LAMMPS data file via write_data, version 16 Mar 2018, timestep = 8000000

4537 atoms
2 atom types

0.0000000000000000e+00 4.9219999999999999e+01 xlo xhi
0.0000000000000000e+00 4.9019635930410494e+01 ylo yhi
6.5859110311161828e-01 3.3281408896879796e+01 zlo zhi

Masses

1 18.015
2 12.01

Atoms # atomic

96 2 0.0000000000000000e+00 2.8417180249513345e+00 2.4144490161280707e+00 0 0 0
98 2 0.0000000000000000e+00 0.0000000000000000e+00 2.4144490161280707e+00 0 0 0
100 2 1.2305000000000001e+00 7.1042950623783474e-01 2.4144490161280707e+00 0 0 0
107 2 1.2305000000000001e+00 2.1312885187134998e+00 2.4144490161280707e+00 0 0 0
109 2 2.4610000000000003e+00 2.8417180249513345e+00 2.4144490161280707e+00 0 0 0
111 2 2.4610000000000003e+00 0.0000000000000000e+00 2.4144490161280707e+00 0 0 0
113 2 3.6915000000000004e+00 7.1042950623783474e-01 2.4144490161280707e+00 0 0 0
128 2 3.6914999999999996e+00 2.1312885187134998e+00 2.4144490161280707e+00 0 0 0
130 2 4.9220000000000006e+00 2.8417180249513332e+00 2.4144490161280707e+00 0 0 0
132 2 4.9220000000000006e+00 0.0000000000000000e+00 2.4144490161280707e+00 0 0 0
134 2 6.1524999999999999e+00 7.1042950623783407e-01 2.4144490161280707e+00 0 0 0
157 2 6.1524999999999999e+00 2.1312885187134989e+00 2.4144490161280707e+00 0 0 0
159 2 7.3829999999999991e+00 2.8417180249513345e+00 2.4144490161280707e+00 0 0 0
161 2 7.3829999999999991e+00 0.0000000000000000e+00 2.4144490161280707e+00 0 0 0
163 2 8.6134999999999984e+00 7.1042950623783407e-01 2.4144490161280707e+00 0 0 0
194 2 8.6134999999999984e+00 2.1312885187135002e+00 2.4144490161280707e+00 0 0 0
196 2 9.8440000000000012e+00 2.8417180249513332e+00 2.4144490161280707e+00 0 0 0
198 2 9.8440000000000012e+00 0.0000000000000000e+00 2.4144490161280707e+00 0 0 0
200 2 1.1074500000000002e+01 7.1042950623783330e-01 2.4144490161280707e+00 0 0 0
239 2 1.1074500000000002e+01 2.1312885187135002e+00 2.4144490161280707e+00 0 0 0
103 2 0.0000000000000000e+00 4.2625770374269996e+00 2.4144490161280707e+00 0 0 0
105 2 1.2305000000000001e+00 4.9730065436648339e+00 2.4144490161280707e+00 0 0 0
120 2 1.2305000000000001e+00 6.3938655561404980e+00 2.4144490161280707e+00 0 0 0
124 2 2.4610000000000003e+00 4.2625770374269996e+00 2.4144490161280707e+00 0 0 0
126 2 3.6914999999999996e+00 4.9730065436648339e+00 2.4144490161280707e+00 0 0 0
149 2 3.6914999999999996e+00 6.3938655561404980e+00 2.4144490161280707e+00 0 0 0
101 2 0.0000000000000000e+00 7.1042950623783341e+00 2.4144490161280707e+00 0 0 0
122 2 2.4610000000000003e+00 7.1042950623783341e+00 2.4144490161280707e+00 0 0 0
153 2 4.9220000000000006e+00 4.2625770374269978e+00 2.4144490161280707e+00 0 0 0
155 2 6.1524999999999999e+00 4.9730065436648339e+00 2.4144490161280707e+00 0 0 0
186 2 6.1524999999999999e+00 6.3938655561404980e+00 2.4144490161280707e+00 0 0 0
190 2 7.3829999999999991e+00 4.2625770374269996e+00 2.4144490161280707e+00 0 0 0
151 2 4.9220000000000006e+00 7.1042950623783341e+00 2.4144490161280707e+00 0 0 0
188 2 7.3830000000000009e+00 7.1042950623783341e+00 2.4144490161280707e+00 0 0 0
192 2 8.6135000000000002e+00 4.9730065436648339e+00 2.4144490161280707e+00 0 0 0
231 2 8.6135000000000002e+00 6.3938655561404980e+00 2.4144490161280707e+00 0 0 0
235 2 9.8440000000000012e+00 4.2625770374270004e+00 2.4144490161280707e+00 0 0 0
237 2 1.1074500000000002e+01 4.9730065436648339e+00 2.4144490161280707e+00 0 0 0
278 2 1.1074500000000002e+01 6.3938655561404980e+00 2.4144490161280707e+00 0 0 0
233 2 9.8440000000000012e+00 7.1042950623783341e+00 2.4144490161280707e+00 0 0 0
116 2 0.0000000000000000e+00 8.5251540748539991e+00 2.4144490161280707e+00 0 0 0
118 2 1.2305000000000001e+00 9.2355835810918343e+00 2.4144490161280707e+00 0 0 0
145 2 2.4610000000000003e+00 8.5251540748539991e+00 2.4144490161280707e+00 0 0 0
147 2 3.6915000000000004e+00 9.2355835810918343e+00 2.4144490161280707e+00 0 0 0
114 2 0.0000000000000000e+00 1.1366872099805333e+01 2.4144490161280707e+00 0 0 0
141 2 1.2305000000000001e+00 1.0656442593567498e+01 2.4144490161280707e+00 0 0 0
143 2 2.4610000000000003e+00 1.1366872099805333e+01 2.4144490161280707e+00 0 0 0
178 2 3.6914999999999996e+00 1.0656442593567499e+01 2.4144490161280707e+00 0 0 0
182 2 4.9220000000000006e+00 8.5251540748539991e+00 2.4144490161280707e+00 0 0 0
184 2 6.1524999999999999e+00 9.2355835810918343e+00 2.4144490161280707e+00 0 0 0
227 2 7.3830000000000009e+00 8.5251540748539991e+00 2.4144490161280707e+00 0 0 0
180 2 4.9220000000000006e+00 1.1366872099805333e+01 2.4144490161280707e+00 0 0 0
223 2 6.1524999999999999e+00 1.0656442593567499e+01 2.4144490161280707e+00 0 0 0
225 2 7.3829999999999991e+00 1.1366872099805333e+01 2.4144490161280707e+00 0 0 0
229 2 8.6134999999999984e+00 9.2355835810918343e+00 2.4144490161280707e+00 0 0 0
274 2 9.8440000000000012e+00 8.5251540748539956e+00 2.4144490161280707e+00 0 0 0
276 2 1.1074500000000002e+01 9.2355835810918343e+00 2.4144490161280707e+00 0 0 0
270 2 8.6134999999999984e+00 1.0656442593567498e+01 2.4144490161280707e+00 0 0 0
272 2 9.8440000000000012e+00 1.1366872099805333e+01 2.4144490161280707e+00 0 0 0
317 2 1.1074500000000002e+01 1.0656442593567498e+01 2.4144490161280707e+00 0 0 0
319 2 1.2304999999999998e+01 1.1366872099805333e+01 2.4144490161280707e+00 0 0 0
97 2 0.0000000000000000e+00 1.4208590124756650e+00 5.6067146278384730e+00 0 0 0
99 2 0.0000000000000000e+00 0.0000000000000000e+00 5.6067146278384730e+00 0 0 0
108 2 1.2305000000000001e+00 2.1312885187134998e+00 5.6067146278384730e+00 0 0 0
110 2 2.4610000000000003e+00 1.4208590124756650e+00 5.6067146278384730e+00 0 0 0
112 2 2.4610000000000003e+00 0.0000000000000000e+00 5.6067146278384730e+00 0 0 0
129 2 3.6914999999999996e+00 2.1312885187134998e+00 5.6067146278384730e+00 0 0 0
425 2 0.0000000000000000e+00 2.8417180249513345e+00 8.7989802395473866e+00 0 0 0
426 2 0.0000000000000000e+00 0.0000000000000000e+00 8.7989802395473866e+00 0 0 0
427 2 1.2305000000000001e+00 7.1042950623783474e-01 8.7989802395473866e+00 0 0 0
431 2 1.2305000000000001e+00 2.1312885187134998e+00 8.7989802395473866e+00 0 0 0
432 2 2.4610000000000003e+00 2.8417180249513345e+00 8.7989802395473866e+00 0 0 0
433 2 2.4610000000000003e+00 0.0000000000000000e+00 8.7989802395473866e+00 0 0 0
434 2 3.6915000000000004e+00 7.1042950623783474e-01 8.7989802395473866e+00 0 0 0
442 2 3.6914999999999996e+00 2.1312885187134998e+00 8.7989802395473866e+00 0 0 0
106 2 1.2305000000000001e+00 3.5521475311891644e+00 5.6067146278384730e+00 0 0 0
127 2 3.6914999999999996e+00 3.5521475311891644e+00 5.6067146278384730e+00 0 0 0
131 2 4.9220000000000006e+00 1.4208590124756650e+00 5.6067146278384730e+00 0 0 0
133 2 4.9220000000000006e+00 0.0000000000000000e+00 5.6067146278384730e+00 0 0 0
158 2 6.1524999999999999e+00 2.1312885187134989e+00 5.6067146278384730e+00 0 0 0
160 2 7.3829999999999991e+00 1.4208590124756659e+00 5.6067146278384730e+00 0 0 0
162 2 7.3829999999999991e+00 0.0000000000000000e+00 5.6067146278384730e+00 0 0 0
443 2 4.9220000000000006e+00 2.8417180249513332e+00 8.7989802395473866e+00 0 0 0
444 2 4.9220000000000006e+00 0.0000000000000000e+00 8.7989802395473866e+00 0 0 0
445 2 6.1524999999999999e+00 7.1042950623783407e-01 8.7989802395473866e+00 0 0 0
457 2 6.1524999999999999e+00 2.1312885187134989e+00 8.7989802395473866e+00 0 0 0
458 2 7.3829999999999991e+00 2.8417180249513345e+00 8.7989802395473866e+00 0 0 0
459 2 7.3829999999999991e+00 0.0000000000000000e+00 8.7989802395473866e+00 0 0 0
156 2 6.1524999999999999e+00 3.5521475311891644e+00 5.6067146278384730e+00 0 0 0
195 2 8.6134999999999984e+00 2.1312885187135002e+00 5.6067146278384730e+00 0 0 0
197 2 9.8440000000000012e+00 1.4208590124756659e+00 5.6067146278384730e+00 0 0 0
199 2 9.8440000000000012e+00 0.0000000000000000e+00 5.6067146278384730e+00 0 0 0
240 2 1.1074500000000002e+01 2.1312885187135002e+00 5.6067146278384730e+00 0 0 0
460 2 8.6134999999999984e+00 7.1042950623783407e-01 8.7989802395473866e+00 0 0 0
476 2 8.6134999999999984e+00 2.1312885187135002e+00 8.7989802395473866e+00 0 0 0
477 2 9.8440000000000012e+00 2.8417180249513332e+00 8.7989802395473866e+00 0 0 0
478 2 9.8440000000000012e+00 0.0000000000000000e+00 8.7989802395473866e+00 0 0 0
479 2 1.1074500000000002e+01 7.1042950623783330e-01 8.7989802395473866e+00 0 0 0
499 2 1.1074500000000002e+01 2.1312885187135002e+00 8.7989802395473866e+00 0 0 0
193 2 8.6134999999999984e+00 3.5521475311891657e+00 5.6067146278384730e+00 0 0 0
238 2 1.1074500000000002e+01 3.5521475311891644e+00 5.6067146278384730e+00 0 0 0
102 2 0.0000000000000000e+00 5.6834360499026637e+00 5.6067146278384730e+00 0 0 0
104 2 0.0000000000000000e+00 4.2625770374269996e+00 5.6067146278384730e+00 0 0 0
121 2 1.2305000000000001e+00 6.3938655561404980e+00 5.6067146278384730e+00 0 0 0
123 2 2.4610000000000003e+00 5.6834360499026637e+00 5.6067146278384730e+00 0 0 0
125 2 2.4610000000000003e+00 4.2625770374269996e+00 5.6067146278384730e+00 0 0 0
150 2 3.6914999999999996e+00 6.3938655561404980e+00 5.6067146278384730e+00 0 0 0
429 2 0.0000000000000000e+00 4.2625770374269996e+00 8.7989802395473866e+00 0 0 0
430 2 1.2305000000000001e+00 4.9730065436648339e+00 8.7989802395473866e+00 0 0 0
438 2 1.2305000000000001e+00 6.3938655561404980e+00 8.7989802395473866e+00 0 0 0
440 2 2.4610000000000003e+00 4.2625770374269996e+00 8.7989802395473866e+00 0 0 0
441 2 3.6914999999999996e+00 4.9730065436648339e+00 8.7989802395473866e+00 0 0 0
453 2 3.6914999999999996e+00 6.3938655561404980e+00 8.7989802395473866e+00 0 0 0
119 2 1.2305000000000001e+00 7.8147245686161639e+00 5.6067146278384730e+00 0 0 0
148 2 3.6914999999999996e+00 7.8147245686161639e+00 5.6067146278384730e+00 0 0 0
428 2 0.0000000000000000e+00 7.1042950623783341e+00 8.7989802395473866e+00 0 0 0
439 2 2.4610000000000003e+00 7.1042950623783341e+00 8.7989802395473866e+00 0 0 0
152 2 4.9220000000000006e+00 5.6834360499026637e+00 5.6067146278384730e+00 0 0 0
154 2 4.9220000000000006e+00 4.2625770374269978e+00 5.6067146278384730e+00 0 0 0
187 2 6.1524999999999999e+00 6.3938655561404980e+00 5.6067146278384730e+00 0 0 0
189 2 7.3829999999999991e+00 5.6834360499026637e+00 5.6067146278384730e+00 0 0 0
191 2 7.3829999999999991e+00 4.2625770374269996e+00 5.6067146278384730e+00 0 0 0
455 2 4.9220000000000006e+00 4.2625770374269978e+00 8.7989802395473866e+00 0 0 0
456 2 6.1524999999999999e+00 4.9730065436648339e+00 8.7989802395473866e+00 0 0 0
472 2 6.1524999999999999e+00 6.3938655561404980e+00 8.7989802395473866e+00 0 0 0
474 2 7.3829999999999991e+00 4.2625770374269996e+00 8.7989802395473866e+00 0 0 0
185 2 6.1524999999999999e+00 7.8147245686161639e+00 5.6067146278384730e+00 0 0 0
454 2 4.9220000000000006e+00 7.1042950623783341e+00 8.7989802395473866e+00 0 0 0
473 2 7.3830000000000009e+00 7.1042950623783341e+00 8.7989802395473866e+00 0 0 0
232 2 8.6135000000000002e+00 6.3938655561404980e+00 5.6067146278384730e+00 0 0 0
234 2 9.8440000000000012e+00 5.6834360499026637e+00 5.6067146278384730e+00 0 0 0
236 2 9.8440000000000012e+00 4.2625770374270004e+00 5.6067146278384730e+00 0 0 0
279 2 1.1074500000000002e+01 6.3938655561404980e+00 5.6067146278384730e+00 0 0 0
475 2 8.6135000000000002e+00 4.9730065436648339e+00 8.7989802395473866e+00 0 0 0
495 2 8.6135000000000002e+00 6.3938655561404980e+00 8.7989802395473866e+00 0 0 0
497 2 9.8440000000000012e+00 4.2625770374270004e+00 8.7989802395473866e+00 0 0 0
498 2 1.1074500000000002e+01 4.9730065436648339e+00 8.7989802395473866e+00 0 0 0
519 2 1.1074500000000002e+01 6.3938655561404980e+00 8.7989802395473866e+00 0 0 0
230 2 8.6135000000000002e+00 7.8147245686161639e+00 5.6067146278384730e+00 0 0 0
277 2 1.1074500000000002e+01 7.8147245686161639e+00 5.6067146278384730e+00 0 0 0
496 2 9.8440000000000012e+00 7.1042950623783341e+00 8.7989802395473866e+00 0 0 0
115 2 0.0000000000000000e+00 9.9460130873296642e+00 5.6067146278384730e+00 0 0 0
117 2 0.0000000000000000e+00 8.5251540748539991e+00 5.6067146278384730e+00 0 0 0
144 2 2.4610000000000003e+00 9.9460130873296642e+00 5.6067146278384730e+00 0 0 0
146 2 2.4610000000000003e+00 8.5251540748539991e+00 5.6067146278384730e+00 0 0 0
436 2 0.0000000000000000e+00 8.5251540748539991e+00 8.7989802395473866e+00 0 0 0
437 2 1.2305000000000001e+00 9.2355835810918343e+00 8.7989802395473866e+00 0 0 0
451 2 2.4610000000000003e+00 8.5251540748539991e+00 8.7989802395473866e+00 0 0 0
452 2 3.6915000000000004e+00 9.2355835810918343e+00 8.7989802395473866e+00 0 0 0
140 2 1.2305000000000001e+00 1.2077301606043163e+01 5.6067146278384730e+00 0 0 0
142 2 1.2305000000000001e+00 1.0656442593567498e+01 5.6067146278384730e+00 0 0 0
177 2 3.6914999999999996e+00 1.2077301606043163e+01 5.6067146278384730e+00 0 0 0
179 2 3.6914999999999996e+00 1.0656442593567499e+01 5.6067146278384730e+00 0 0 0
435 2 0.0000000000000000e+00 1.1366872099805333e+01 8.7989802395473866e+00 0 0 0
449 2 1.2305000000000001e+00 1.0656442593567498e+01 8.7989802395473866e+00 0 0 0
450 2 2.4610000000000003e+00 1.1366872099805333e+01 8.7989802395473866e+00 0 0 0
468 2 3.6914999999999996e+00 1.0656442593567499e+01 8.7989802395473866e+00 0 0 0
181 2 4.9220000000000006e+00 9.9460130873296642e+00 5.6067146278384730e+00 0 0 0
183 2 4.9220000000000006e+00 8.5251540748539991e+00 5.6067146278384730e+00 0 0 0
226 2 7.3830000000000009e+00 9.9460130873296642e+00 5.6067146278384730e+00 0 0 0
228 2 7.3830000000000009e+00 8.5251540748539991e+00 5.6067146278384730e+00 0 0 0
470 2 4.9220000000000006e+00 8.5251540748539991e+00 8.7989802395473866e+00 0 0 0
471 2 6.1524999999999999e+00 9.2355835810918343e+00 8.7989802395473866e+00 0 0 0
493 2 7.3830000000000009e+00 8.5251540748539991e+00 8.7989802395473866e+00 0 0 0
222 2 6.1524999999999999e+00 1.2077301606043163e+01 5.6067146278384730e+00 0 0 0
224 2 6.1524999999999999e+00 1.0656442593567499e+01 5.6067146278384730e+00 0 0 0
469 2 4.9220000000000006e+00 1.1366872099805333e+01 8.7989802395473866e+00 0 0 0
491 2 6.1524999999999999e+00 1.0656442593567499e+01 8.7989802395473866e+00 0 0 0
492 2 7.3829999999999991e+00 1.1366872099805333e+01 8.7989802395473866e+00 0 0 0
273 2 9.8440000000000012e+00 9.9460130873296642e+00 5.6067146278384730e+00 0 0 0
275 2 9.8440000000000012e+00 8.5251540748539956e+00 5.6067146278384730e+00 0 0 0
494 2 8.6134999999999984e+00 9.2355835810918343e+00 8.7989802395473866e+00 0 0 0
517 2 9.8440000000000012e+00 8.5251540748539956e+00 8.7989802395473866e+00 0 0 0
518 2 1.1074500000000002e+01 9.2355835810918343e+00 8.7989802395473866e+00 0 0 0
269 2 8.6135000000000002e+00 1.2077301606043163e+01 5.6067146278384730e+00 0 0 0
271 2 8.6134999999999984e+00 1.0656442593567498e+01 5.6067146278384730e+00 0 0 0
316 2 1.1074500000000002e+01 1.2077301606043163e+01 5.6067146278384730e+00 0 0 0
318 2 1.1074500000000002e+01 1.0656442593567498e+01 5.6067146278384730e+00 0 0 0
515 2 8.6134999999999984e+00 1.0656442593567498e+01 8.7989802395473866e+00 0 0 0
516 2 9.8440000000000012e+00 1.1366872099805333e+01 8.7989802395473866e+00 0 0 0
539 2 1.1074500000000002e+01 1.0656442593567498e+01 8.7989802395473866e+00 0 0 0
540 2 1.2304999999999998e+01 1.1366872099805333e+01 8.7989802395473866e+00 0 0 0
3014 1 9.7129575745839980e-01 2.1731482514242622e+00 1.1646826152914773e+01 0 -1 -1
2827 1 3.6777911637808365e+00 2.3489482694320012e+00 1.1202741338293533e+01 2 -1 0
3753 1 8.1572570649224421e+00 5.1200547684695141e-01 1.0825135139945512e+01 -1 -1 0
2095 1 5.4555735717460170e+00 3.9307551036672400e-01 1.1777580087653913e+01 1 0 -1
2395 1 9.1805105480455094e+00 2.7710213278380076e+00 1.1700802317204936e+01 0 0 0
762 1 1.2227810096192533e+01 2.8669993927290687e+00 1.1396231131103278e+01 -1 1 0
771 1 8.1218531941011984e-01 7.0831542885204755e+00 1.1998629530475771e+01 -2 0 -1
3063 1 3.7942064937834212e+00 7.0871896822825571e+00 1.1567130718422845e+01 0 1 0
2289 1 4.8759799797479939e+00 4.7181170638672194e+00 1.1631535134100659e+01 0 -1 0
3028 1 7.6791937013703651e+00 5.1224233123467906e+00 1.1208904241042179e+01 1 1 -1
1540 1 9.1532213839614833e+00 7.3525960281637692e+00 1.1892283507929250e+01 -1 -1 -1
4366 1 1.1772253983466273e+01 7.3489138917119856e+00 1.1172446311897183e+01 1 2 0
4448 1 3.3157056859789824e+00 1.1285457051134964e+01 1.1259786854563776e+01 0 -1 0
2907 1 6.5547036606602105e-01 1.1465715761806891e+01 1.1996078166634868e+01 1 1 0
825 1 5.1755276252488409e+00 9.4114526008183521e+00 1.2031902279713796e+01 0 0 1
764 1 7.8267960082187260e+00 9.5484883345979963e+00 1.1266560001610751e+01 0 1 -1
2172 1 9.0706637968730988e+00 1.1930186943041486e+01 1.1826209797385387e+01 -1 3 0
3878 1 1.1568789975233251e+01 1.2065777548732152e+01 1.1331588057455823e+01 0 0 0
704 1 1.3223465433106845e+00 2.2179253260276384e+00 1.4454493535350014e+01 2 0 -1
3681 1 3.8580006731647547e+00 2.1887065486853667e+00 1.5590653487593970e+01 -1 1 0
4481 1 5.8273407010077216e+00 1.0496457866246499e-01 1.4732322167926224e+01 1 -2 0
3694 1 8.4897058735792825e+00 5.9460058130209215e-01 1.5463920386451836e+01 1 0 -1
2845 1 9.5053379610450293e+00 2.7791892623433512e+00 1.4526810774243478e+01 -1 1 -1
3891 1 1.2081410742046762e+01 2.8863348342487343e+00 1.5516007394853824e+01 0 1 0
715 1 1.0383347094197530e+00 6.9628326819480604e+00 1.4734266486694034e+01 1 0 -1
1524 1 4.0139179547104069e+00 6.8593975871806032e+00 1.5216143043485486e+01 0 1 0
2142 1 5.1992614028353659e+00 4.4089127711276834e+00 1.4416381538994052e+01 2 1 -1
3653 1 7.6917743550153768e+00 5.0294993707066720e+00 1.5462223589379130e+01 -1 1 0
3760 1 1.2058953777817852e+01 7.7199517770672887e+00 1.5237356514721471e+01 -1 0 -1
2927 1 9.3962503413307186e+00 7.5987534792116964e+00 1.4592375762611958e+01 1 1 0
1521 1 3.5100588543861471e+00 1.1482684958148804e+01 1.5389129603385321e+01 2 2 0
44 1 8.2972046481453587e-01 1.1549550084611200e+01 1.4762640635906378e+01 -2 0 0
2931 1 5.2977256500765710e+00 9.6760084517534359e+00 1.4738385390000994e+01 2 -1 0
768 1 7.8979122208726595e+00 9.6348710188938131e+00 1.5421274248041524e+01 1 0 -1
3742 1 9.1588792258128571e+00 1.1932993735510673e+01 1.4728759860427994e+01 2 -1 0
2916 1 1.1062279082478095e+00 2.2684745464868907e+00 1.9069637123994934e+01 2 1 -1
2389 1 4.1071654650660960e+00 2.7008643580773577e+00 1.8316734000192984e+01 0 2 0
834 1 5.7900642924990215e+00 2.1623137693989708e-01 1.8917180976507023e+01 0 1 0
2196 1 9.7886043300998100e+00 3.2100189550868898e+00 1.9112197815347916e+01 0 0 0
1353 1 8.6612346971927074e+00 7.8743629251682290e-01 1.8244124954016986e+01 0 0 1
1567 1 1.2262823207037621e+00 6.8331250036239695e+00 1.8826795015157511e+01 0 0 0
3042 1 3.9597895354461494e+00 7.4050988039683450e+00 1.8031351337342777e+01 2 0 0
2198 1 5.3518022531087599e+00 5.1029295273397883e+00 1.9072533294576075e+01 0 0 0
4501 1 8.0100274277804733e+00 5.3274151691603109e+00 1.8219340528246381e+01 0 -1 -1
3626 1 9.3525538654936913e+00 7.9028289185378089e+00 1.9129159133054902e+01 0 0 -1
1608 1 1.1972196738605158e+01 7.8238535884963181e+00 1.7970450392042792e+01 -1 0 0
661 1 3.6811223566666151e+00 1.1670676179940607e+01 1.7997088530989451e+01 2 -1 0
3702 1 9.8432483936808157e-01 1.1369325793657731e+01 1.8769668022022923e+01 2 -2 -1
706 1 5.2628481729970433e+00 9.5261744932941994e+00 1.9084484133500805e+01 2 -1 0
4323 1 7.8723605275575110e+00 1.0358150498312368e+01 1.8164714166306105e+01 -1 1 0
2228 1 3.0452132799468368e+00 3.3275196108411415e-01 2.2772376491788560e+01 0 1 -1
776 1 1.5255585793957251e+00 2.5310860017848746e+00 2.2011410868362166e+01 1 1 -1
2840 1 6.8769691895186966e+00 2.6795561147047988e+00 2.2760033434215192e+01 0 0 0
813 1 5.6610272405539241e+00 4.4735781511972095e-01 2.1670170895925231e+01 1 1 1
819 1 9.5916714644188428e+00 2.9930100293917299e+00 2.1738198362513096e+01 0 1 0
2155 1 1.0980623512130913e+01 8.2345294885324583e-01 2.2420014567704559e+01 2 1 -1
622 1 1.1032258766334298e+01 7.6362734107853725e-01 2.5074766846097724e+01 -2 1 -1
3650 1 1.2106537857934856e+00 7.1037841418314409e+00 2.1502770346971463e+01 0 1 0
4490 1 2.8799461439594269e+00 5.0044264264374902e+00 2.2350067143200384e+01 0 2 -1
2332 1 6.8037349555228017e+00 7.5364962859421318e+00 2.2509577532485846e+01 1 2 0
4321 1 5.6245217228962483e+00 5.1078430577159137e+00 2.1740140497100512e+01 2 -1 0
1447 1 1.0838140196769592e+01 5.4374953554360017e+00 2.2452849309040520e+01 1 0 0
79 1 9.4515866567345910e+00 7.7156448911256410e+00 2.1704525701915109e+01 1 0 0
4405 1 2.6439635719394001e+00 9.2064079910486178e+00 2.2434145795822744e+01 -1 0 0
1474 1 1.2136412543993533e+00 1.1241724510987851e+01 2.1657331964527291e+01 0 0 0
2181 1 2.2858850544364691e+00 9.0749804623030332e+00 2.5073766987275398e+01 0 -2 0
3829 1 6.0530605868585186e+00 1.2153701397804248e+01 2.2471838744487933e+01 -1 1 0
1625 1 5.0803542478536903e+00 9.6303558306553665e+00 2.1840544415777824e+01 1 -1 0
2216 1 1.0408745852612235e+01 1.0102981466380774e+01 2.2570385148358007e+01 0 2 -1
2226 1 1.3123759993335660e+00 2.2649472458755322e+00 2.9165908492088118e+01 -1 0 0
830 1 2.8368738856706308e+00 4.1495746373588105e-01 2.5647042844063552e+01 1 0 0
1487 1 4.2852640137247926e+00 2.5186947777477764e+00 2.6304138525299315e+01 1 1 0
1496 1 4.1890832341455981e+00 2.4441725034764485e+00 2.8856024270143578e+01 0 0 -1
2194 1 6.8510942276364517e+00 2.5829116084580699e+00 2.5632467248933779e+01 1 0 0
2874 1 8.2413394235242450e+00 2.6358489629050963e-01 2.5935691514633607e+01 0 0 0
3600 1 8.2663198878206217e+00 3.6273742254751568e-01 2.9094581358797519e+01 0 1 1
673 1 9.6723137994564752e+00 3.0541100886018979e+00 2.9181729405237007e+01 -1 1 0
1588 1 2.7287324495240530e+00 4.8605474167042848e+00 2.5182981620969155e+01 1 1 0
2902 1 3.4252616166260692e+00 7.0221353193369289e+00 2.9153648483028007e+01 1 1 0
4403 1 3.9412442518151192e+00 6.9364971106971431e+00 2.6518856970417790e+01 2 0 1
2234 1 3.8651024451468174e-02 4.3865575831344419e+00 2.5676346764092720e+01 1 0 0
28 1 6.6936699228061967e+00 7.2509606594572062e+00 2.5278302473800050e+01 1 1 1
2912 1 1.0958737168415700e+01 5.4220145181685337e+00 2.5329991138141001e+01 0 0 0
1604 1 8.2397248274912887e+00 5.1192031137712837e+00 2.6149546903751880e+01 1 -1 0
2961 1 1.2146480298189546e+01 7.7780294672347070e+00 2.6106142015105732e+01 0 -1 0
3860 1 1.2176265740970887e+01 7.7215740379059277e+00 2.9017288348606630e+01 1 0 0
633 1 3.1487888830838124e+00 1.1563718745927224e+01 2.8468478890210140e+01 0 0 -1
4401 1 3.5223375429343484e+00 1.1547971210251491e+01 2.5744176051172982e+01 1 0 0
4417 1 7.8208587587275211e+00 9.5515784964820032e+00 2.6251674411151676e+01 0 3 0
2236 1 7.7058773142646020e+00 9.7021493160680379e+00 2.9038084082768293e+01 -2 0 -1
686 1 6.3154674599808560e+00 1.1842607781810971e+01 2.5298992881787335e+01 0 0 0
3017 1 1.0452761421761327e+01 9.7704253913686543e+00 2.5214123027490185e+01 0 1 0
3618 1 1.2389150168994614e+00 1.8731960227276363e+00 3.1918991927271961e+01 1 -1 -1
2903 1 3.7577219485586357e+00 2.5268876986673150e+00 3.2704230138593822e+01 0 2 0
1595 1 5.2076410603386600e+00 2.4278500453691451e-01 3.2025782849313636e+01 2 2 0
835 1 5.5422080814575843e+00 2.2066249714821692e-01 2.9360810821901229e+01 1 -1 0
3804 1 8.3046193566399218e+00 5.3771120131865979e-01 3.2080821876473635e+01 -1 0 0
3592 1 9.7072337856738589e+00 2.9754010736179168e+00 3.2062887820732882e+01 -1 1 0
2960 1 1.0648800919833166e+00 6.6584646838396848e+00 3.2082474650209761e+01 0 1 0
3718 1 7.1691364845978223e-01 6.5330102478798864e+00 2.9273554859828767e+01 0 2 0
4369 1 3.8338049799019349e+00 6.8572024360653030e+00 3.2240248774350476e+01 0 1 0
2169 1 8.1023276765465617e+00 5.1887028611836259e+00 2.9292939112715853e+01 1 -1 -1
2922 1 5.4186653245962075e+00 4.7618188907359009e+00 2.9571736412721197e+01 0 0 0
658 1 5.4002042337644998e+00 4.7624683100118101e+00 3.2149779489264866e+01 1 1 0
694 1 8.1639601757300220e+00 5.2041229113405496e+00 3.2339049126172938e+01 -1 2 -1
863 1 9.0122245766151750e+00 7.7700695220177458e+00 3.2591620463025293e+01 0 0 0
2119 1 9.3444788306946549e+00 7.7337951373091745e+00 2.9658551983102630e+01 1 2 0
2199 1 1.1842696655882655e+01 7.9303969845069515e+00 3.2243350636171314e+01 1 1 -1
744 1 3.1617098130844115e+00 1.2238513600271791e+01 3.2568897632556762e+01 0 -1 0
3640 1 4.6942940588792020e-01 1.1257489556114479e+01 2.9466177774589244e+01 1 0 0
3091 1 4.7855256650962635e-01 1.1254930234528715e+01 3.2240189031120764e+01 -1 -1 0
1431 1 5.0000030010680181e+00 9.5519899805536905e+00 2.9309834126048727e+01 1 3 0
3662 1 4.4961686955172402e+00 9.5962746634949134e+00 3.2170542553153446e+01 2 2 0
4393 1 7.1938153915531231e+00 9.9858040045354723e+00 3.2095691330508551e+01 2 -1 0
2964 1 8.6845021363298418e+00 1.2203170989232623e+01 2.9514402834515138e+01 0 2 0
137 2 0.0000000000000000e+00 1.2787731112280996e+01 2.4144490161280707e+00 0 0 0
139 2 1.2305000000000001e+00 1.3498160618518829e+01 2.4144490161280707e+00 0 0 0
174 2 2.4610000000000003e+00 1.2787731112280996e+01 2.4144490161280707e+00 0 0 0
176 2 3.6915000000000004e+00 1.3498160618518829e+01 2.4144490161280707e+00 0 0 0
135 2 0.0000000000000000e+00 1.5629449137232333e+01 2.4144490161280707e+00 0 0 0
170 2 1.2305000000000001e+00 1.4919019630994494e+01 2.4144490161280707e+00 0 0 0
172 2 2.4610000000000003e+00 1.5629449137232328e+01 2.4144490161280707e+00 0 0 0
215 2 3.6915000000000004e+00 1.4919019630994494e+01 2.4144490161280707e+00 0 0 0
219 2 4.9220000000000006e+00 1.2787731112280996e+01 2.4144490161280707e+00 0 0 0
221 2 6.1524999999999990e+00 1.3498160618518829e+01 2.4144490161280707e+00 0 0 0
266 2 7.3829999999999991e+00 1.2787731112280996e+01 2.4144490161280707e+00 0 0 0
217 2 4.9220000000000006e+00 1.5629449137232333e+01 2.4144490161280707e+00 0 0 0
262 2 6.1524999999999990e+00 1.4919019630994494e+01 2.4144490161280707e+00 0 0 0
264 2 7.3829999999999991e+00 1.5629449137232333e+01 2.4144490161280707e+00 0 0 0
268 2 8.6135000000000002e+00 1.3498160618518835e+01 2.4144490161280707e+00 0 0 0
313 2 9.8440000000000012e+00 1.2787731112280996e+01 2.4144490161280707e+00 0 0 0
315 2 1.1074500000000002e+01 1.3498160618518829e+01 2.4144490161280707e+00 0 0 0
309 2 8.6135000000000002e+00 1.4919019630994494e+01 2.4144490161280707e+00 0 0 0
311 2 9.8440000000000012e+00 1.5629449137232328e+01 2.4144490161280707e+00 0 0 0
351 2 1.1074500000000002e+01 1.4919019630994494e+01 2.4144490161280707e+00 0 0 0
166 2 0.0000000000000000e+00 1.7050308149707998e+01 2.4144490161280707e+00 0 0 0
211 2 2.4610000000000003e+00 1.7050308149707998e+01 2.4144490161280707e+00 0 0 0
164 2 0.0000000000000000e+00 1.9892026174659328e+01 2.4144490161280707e+00 0 0 0
168 2 1.2305000000000001e+00 1.7760737655945832e+01 2.4144490161280707e+00 0 0 0
207 2 1.2305000000000001e+00 1.9181596668421495e+01 2.4144490161280707e+00 0 0 0
209 2 2.4610000000000003e+00 1.9892026174659328e+01 2.4144490161280707e+00 0 0 0
213 2 3.6914999999999996e+00 1.7760737655945832e+01 2.4144490161280707e+00 0 0 0
254 2 3.6914999999999996e+00 1.9181596668421495e+01 2.4144490161280707e+00 0 0 0
258 2 4.9220000000000006e+00 1.7050308149707998e+01 2.4144490161280707e+00 0 0 0
305 2 7.3830000000000009e+00 1.7050308149707998e+01 2.4144490161280707e+00 0 0 0
256 2 4.9220000000000006e+00 1.9892026174659328e+01 2.4144490161280707e+00 0 0 0
260 2 6.1524999999999999e+00 1.7760737655945832e+01 2.4144490161280707e+00 0 0 0
301 2 6.1524999999999999e+00 1.9181596668421495e+01 2.4144490161280707e+00 0 0 0
303 2 7.3829999999999991e+00 1.9892026174659328e+01 2.4144490161280707e+00 0 0 0
347 2 9.8440000000000012e+00 1.7050308149707998e+01 2.4144490161280707e+00 0 0 0
381 2 1.2304999999999998e+01 1.7050308149707998e+01 2.4144490161280707e+00 0 0 0
307 2 8.6134999999999984e+00 1.7760737655945832e+01 2.4144490161280707e+00 0 0 0
343 2 8.6135000000000002e+00 1.9181596668421495e+01 2.4144490161280707e+00 0 0 0
345 2 9.8440000000000012e+00 1.9892026174659335e+01 2.4144490161280707e+00 0 0 0
349 2 1.1074500000000002e+01 1.7760737655945835e+01 2.4144490161280707e+00 0 0 0
377 2 1.1074500000000002e+01 1.9181596668421495e+01 2.4144490161280707e+00 0 0 0
201 2 0.0000000000000000e+00 2.4154603212086325e+01 2.4144490161280707e+00 0 0 0
203 2 0.0000000000000000e+00 2.1312885187134999e+01 2.4144490161280707e+00 0 0 0
205 2 1.2304999999999993e+00 2.2023314693372832e+01 2.4144490161280707e+00 0 0 0
246 2 1.2304999999999993e+00 2.3444173705848499e+01 2.4144490161280707e+00 0 0 0
248 2 2.4610000000000003e+00 2.4154603212086325e+01 2.4144490161280707e+00 0 0 0
250 2 2.4610000000000003e+00 2.1312885187134995e+01 2.4144490161280707e+00 0 0 0
252 2 3.6914999999999996e+00 2.2023314693372832e+01 2.4144490161280707e+00 0 0 0
293 2 3.6915000000000004e+00 2.3444173705848499e+01 2.4144490161280707e+00 0 0 0
295 2 4.9220000000000006e+00 2.4154603212086325e+01 2.4144490161280707e+00 0 0 0
297 2 4.9220000000000006e+00 2.1312885187134995e+01 2.4144490161280707e+00 0 0 0
299 2 6.1524999999999990e+00 2.2023314693372832e+01 2.4144490161280707e+00 0 0 0
335 2 6.1524999999999999e+00 2.3444173705848499e+01 2.4144490161280707e+00 0 0 0
337 2 7.3830000000000009e+00 2.4154603212086336e+01 2.4144490161280707e+00 0 0 0
339 2 7.3829999999999991e+00 2.1312885187134999e+01 2.4144490161280707e+00 0 0 0
341 2 8.6135000000000002e+00 2.2023314693372832e+01 2.4144490161280707e+00 0 0 0
369 2 8.6134999999999984e+00 2.3444173705848499e+01 2.4144490161280707e+00 0 0 0
371 2 9.8440000000000012e+00 2.4154603212086336e+01 2.4144490161280707e+00 0 0 0
373 2 9.8440000000000012e+00 2.1312885187134999e+01 2.4144490161280707e+00 0 0 0
375 2 1.1074500000000002e+01 2.2023314693372832e+01 2.4144490161280707e+00 0 0 0
395 2 1.1074500000000002e+01 2.3444173705848499e+01 2.4144490161280707e+00 0 0 0
138 2 0.0000000000000000e+00 1.2787731112280996e+01 5.6067146278384730e+00 0 0 0
175 2 2.4610000000000003e+00 1.2787731112280996e+01 5.6067146278384730e+00 0 0 0
447 2 0.0000000000000000e+00 1.2787731112280996e+01 8.7989802395473866e+00 0 0 0
448 2 1.2305000000000001e+00 1.3498160618518829e+01 8.7989802395473866e+00 0 0 0
466 2 2.4610000000000003e+00 1.2787731112280996e+01 8.7989802395473866e+00 0 0 0
467 2 3.6915000000000004e+00 1.3498160618518829e+01 8.7989802395473866e+00 0 0 0