LAMMPS data file via write_data, version 29 Sep 2021, timestep = 100000

4065 atoms
2 atom types

0 49.22 xlo xhi
0 49.019635930410494 ylo yhi
1.940974387394169 25.899857858890073 zlo zhi

Masses

1 18.015
2 12.01

Atoms # atomic

83 2 0 2.8417180249513345 3.384144161424956 0 0 0
85 2 0 0 3.384144161424956 0 0 0
87 2 1.2305000000000001 0.7104295062378347 3.384144161424956 0 0 0
94 2 1.2305000000000001 2.1312885187135 3.384144161424956 0 0 0
96 2 2.4610000000000003 2.8417180249513345 3.384144161424956 0 0 0
98 2 2.4610000000000003 0 3.384144161424956 0 0 0
100 2 3.6915000000000004 0.7104295062378347 3.384144161424956 0 0 0
115 2 3.6914999999999996 2.1312885187135 3.384144161424956 0 0 0
117 2 4.922000000000001 2.841718024951333 3.384144161424956 0 0 0
119 2 4.922000000000001 0 3.384144161424956 0 0 0
90 2 0 4.262577037427 3.384144161424956 0 0 0
111 2 2.4610000000000003 4.262577037427 3.384144161424956 0 0 0
140 2 4.922000000000001 4.262577037426998 3.384144161424956 0 0 0
92 2 1.2305000000000001 4.973006543664834 3.384144161424956 0 0 0
107 2 1.2305000000000001 6.393865556140498 3.384144161424956 0 0 0
113 2 3.6914999999999996 4.973006543664834 3.384144161424956 0 0 0
136 2 3.6914999999999996 6.393865556140498 3.384144161424956 0 0 0
88 2 0 7.104295062378334 3.384144161424956 0 0 0
103 2 0 8.525154074854 3.384144161424956 0 0 0
105 2 1.2305000000000001 9.235583581091834 3.384144161424956 0 0 0
109 2 2.4610000000000003 7.104295062378334 3.384144161424956 0 0 0
132 2 2.4610000000000003 8.525154074854 3.384144161424956 0 0 0
134 2 3.6915000000000004 9.235583581091834 3.384144161424956 0 0 0
138 2 4.922000000000001 7.104295062378334 3.384144161424956 0 0 0
169 2 4.922000000000001 8.525154074854 3.384144161424956 0 0 0
84 2 0 1.420859012475665 6.270483709486662 0 0 0
86 2 0 0 6.270483709486662 0 0 0
95 2 1.2305000000000001 2.1312885187135 6.270483709486662 0 0 0
97 2 2.4610000000000003 1.420859012475665 6.270483709486662 0 0 0
99 2 2.4610000000000003 0 6.270483709486662 0 0 0
412 2 0 2.8417180249513345 9.156823257547575 0 0 0
413 2 0 0 9.156823257547575 0 0 0
414 2 1.2305000000000001 0.7104295062378347 9.156823257547575 0 0 0
418 2 1.2305000000000001 2.1312885187135 9.156823257547575 0 0 0
419 2 2.4610000000000003 2.8417180249513345 9.156823257547575 0 0 0
420 2 2.4610000000000003 0 9.156823257547575 0 0 0
116 2 3.6914999999999996 2.1312885187135 6.270483709486662 0 0 0
118 2 4.922000000000001 1.420859012475665 6.270483709486662 0 0 0
120 2 4.922000000000001 0 6.270483709486662 0 0 0
421 2 3.6915000000000004 0.7104295062378347 9.156823257547575 0 0 0
429 2 3.6914999999999996 2.1312885187135 9.156823257547575 0 0 0
430 2 4.922000000000001 2.841718024951333 9.156823257547575 0 0 0
431 2 4.922000000000001 0 9.156823257547575 0 0 0
91 2 0 4.262577037427 6.270483709486662 0 0 0
93 2 1.2305000000000001 3.5521475311891644 6.270483709486662 0 0 0
112 2 2.4610000000000003 4.262577037427 6.270483709486662 0 0 0
416 2 0 4.262577037427 9.156823257547575 0 0 0
427 2 2.4610000000000003 4.262577037427 9.156823257547575 0 0 0
114 2 3.6914999999999996 3.5521475311891644 6.270483709486662 0 0 0
141 2 4.922000000000001 4.262577037426998 6.270483709486662 0 0 0
442 2 4.922000000000001 4.262577037426998 9.156823257547575 0 0 0
89 2 0 5.683436049902664 6.270483709486662 0 0 0
108 2 1.2305000000000001 6.393865556140498 6.270483709486662 0 0 0
110 2 2.4610000000000003 5.683436049902664 6.270483709486662 0 0 0
417 2 1.2305000000000001 4.973006543664834 9.156823257547575 0 0 0
425 2 1.2305000000000001 6.393865556140498 9.156823257547575 0 0 0
137 2 3.6914999999999996 6.393865556140498 6.270483709486662 0 0 0
139 2 4.922000000000001 5.683436049902664 6.270483709486662 0 0 0
428 2 3.6914999999999996 4.973006543664834 9.156823257547575 0 0 0
440 2 3.6914999999999996 6.393865556140498 9.156823257547575 0 0 0
104 2 0 8.525154074854 6.270483709486662 0 0 0
106 2 1.2305000000000001 7.814724568616164 6.270483709486662 0 0 0
133 2 2.4610000000000003 8.525154074854 6.270483709486662 0 0 0
415 2 0 7.104295062378334 9.156823257547575 0 0 0
423 2 0 8.525154074854 9.156823257547575 0 0 0
424 2 1.2305000000000001 9.235583581091834 9.156823257547575 0 0 0
426 2 2.4610000000000003 7.104295062378334 9.156823257547575 0 0 0
438 2 2.4610000000000003 8.525154074854 9.156823257547575 0 0 0
135 2 3.6914999999999996 7.814724568616164 6.270483709486662 0 0 0
170 2 4.922000000000001 8.525154074854 6.270483709486662 0 0 0
439 2 3.6915000000000004 9.235583581091834 9.156823257547575 0 0 0
441 2 4.922000000000001 7.104295062378334 9.156823257547575 0 0 0
457 2 4.922000000000001 8.525154074854 9.156823257547575 0 0 0
1029 1 4.785582052742517 1.8775407848450554 11.877392872435076 0 0 0
3846 1 0.9843789885592852 1.5457180239717503 11.710636114358701 2 1 1
16 1 2.7898620813997796 4.024776954433859 11.725373543886393 0 1 1
838 1 4.288363017332183 8.609989221118454 11.397434117954907 0 0 1
3879 1 1.6037683976466002 8.593565813502599 12.413281136639318 0 1 -1
979 1 0.7757371430646187 5.877819112792794 11.770030084200283 0 0 -1
24 1 5.687775477666118 5.636637124185533 11.418791127995824 -1 1 -1
4001 1 3.8269432978204034 2.492853094325887 14.676079031027262 0 0 0
3910 1 2.2444587277133428 1.0850837157671978 17.185935017740398 0 0 0
62 1 1.8085961218381217 3.8929956420243874 17.174285505890744 0 1 0
940 1 3.254713569978304 5.251257405370143 14.523819041448476 0 0 -1
2901 1 3.991464533588709 6.992746040209848 24.35366249450967 -1 0 -1
930 1 3.8170808795854523 8.385741959184816 14.529775522239543 1 0 0
961 1 0.406560819726892 5.21982094471772 14.58401441637734 1 1 0
2005 1 4.112013013013374 6.555386839631841 17.189941481190857 0 0 0
1991 1 1.5176605908513219 5.3726873645375095 24.69603404841466 1 2 -1
3142 1 6.065314388383343 7.3008769842611745 19.92378152962106 0 0 -1
1119 1 1.6129423530604825 5.142337164054501 21.745916949202837 0 1 0
4049 1 4.043837015973738 0.6117826715797843 19.086788040102 1 1 -1
1975 1 6.109027482858415 6.474964336450944 14.235238536959377 1 0 0
4033 1 3.0374908915082726 4.958817267993631 19.206026751155434 1 1 0
1047 1 1.1597191037694745 2.3160825622804477 24.916190174588536 1 -1 -1
3062 1 2.376135648869763 8.3959067085463 19.178821533037713 1 1 0
20 1 3.0655816030883916 2.9426692788829243 22.435373933360857 1 1 0
907 1 3.6874479604554584 7.264225039368784 21.60233108525822 0 2 0
885 1 4.9448897783166315 0.8570533470283841 24.746528106718777 1 1 0
66 1 5.714835848137634 3.4183277000897436 24.144554959501363 0 1 0
3012 1 5.3482217834523995 3.7222067963201795 20.92607716893947 0 0 -1
3926 1 1.3673857115827615 0.7026098529171778 14.338855842429698 1 1 0
2903 1 6.121649781572851 1.863260577176073 15.955175115214788 1 0 0
1838 1 3.0902666374975167 0.12846670245424374 21.821189077815475 1 0 1
3877 1 3.4634553334609812 9.717733683232614 24.620121945895704 0 -1 0
3829 1 0.13828032338377638 0.025343793547527582 18.494268003203857 0 1 0
101 2 0 11.366872099805333 3.384144161424956 0 0 0
124 2 0 12.787731112280996 3.384144161424956 0 0 0
126 2 1.2305000000000001 13.49816061851883 3.384144161424956 0 0 0
128 2 1.2305000000000001 10.656442593567498 3.384144161424956 0 0 0
130 2 2.4610000000000003 11.366872099805333 3.384144161424956 0 0 0
161 2 2.4610000000000003 12.787731112280996 3.384144161424956 0 0 0
163 2 3.6915000000000004 13.49816061851883 3.384144161424956 0 0 0
165 2 3.6914999999999996 10.6564425935675 3.384144161424956 0 0 0
167 2 4.922000000000001 11.366872099805333 3.384144161424956 0 0 0
206 2 4.922000000000001 12.787731112280996 3.384144161424956 0 0 0
208 2 6.152499999999999 13.49816061851883 3.384144161424956 0 0 0
122 2 0 15.629449137232333 3.384144161424956 0 0 0
153 2 0 17.050308149708 3.384144161424956 0 0 0
157 2 1.2305000000000001 14.919019630994494 3.384144161424956 0 0 0
159 2 2.4610000000000003 15.629449137232328 3.384144161424956 0 0 0
198 2 2.4610000000000003 17.050308149708 3.384144161424956 0 0 0
202 2 3.6915000000000004 14.919019630994494 3.384144161424956 0 0 0
204 2 4.922000000000001 15.629449137232333 3.384144161424956 0 0 0
245 2 4.922000000000001 17.050308149708 3.384144161424956 0 0 0
249 2 6.152499999999999 14.919019630994494 3.384144161424956 0 0 0
155 2 1.2305000000000001 17.76073765594583 3.384144161424956 0 0 0
194 2 1.2305000000000001 19.181596668421495 3.384144161424956 0 0 0
200 2 3.6914999999999996 17.76073765594583 3.384144161424956 0 0 0
241 2 3.6914999999999996 19.181596668421495 3.384144161424956 0 0 0
102 2 0 9.946013087329664 6.270483709486662 0 0 0
131 2 2.4610000000000003 9.946013087329664 6.270483709486662 0 0 0
168 2 4.922000000000001 9.946013087329664 6.270483709486662 0 0 0
125 2 0 12.787731112280996 6.270483709486662 0 0 0
127 2 1.2305000000000001 12.077301606043163 6.270483709486662 0 0 0
129 2 1.2305000000000001 10.656442593567498 6.270483709486662 0 0 0
162 2 2.4610000000000003 12.787731112280996 6.270483709486662 0 0 0
422 2 0 11.366872099805333 9.156823257547575 0 0 0
434 2 0 12.787731112280996 9.156823257547575 0 0 0
435 2 1.2305000000000001 13.49816061851883 9.156823257547575 0 0 0
436 2 1.2305000000000001 10.656442593567498 9.156823257547575 0 0 0
437 2 2.4610000000000003 11.366872099805333 9.156823257547575 0 0 0
453 2 2.4610000000000003 12.787731112280996 9.156823257547575 0 0 0
164 2 3.6914999999999996 12.077301606043163 6.270483709486662 0 0 0
166 2 3.6914999999999996 10.6564425935675 6.270483709486662 0 0 0
207 2 4.922000000000001 12.787731112280996 6.270483709486662 0 0 0
454 2 3.6915000000000004 13.49816061851883 9.156823257547575 0 0 0
455 2 3.6914999999999996 10.6564425935675 9.156823257547575 0 0 0
456 2 4.922000000000001 11.366872099805333 9.156823257547575 0 0 0
476 2 4.922000000000001 12.787731112280996 9.156823257547575 0 0 0
477 2 6.152499999999999 13.49816061851883 9.156823257547575 0 0 0
123 2 0 14.208590124756663 6.270483709486662 0 0 0
160 2 2.4610000000000003 14.208590124756663 6.270483709486662 0 0 0
205 2 4.922000000000001 14.208590124756663 6.270483709486662 0 0 0
154 2 0 17.050308149708 6.270483709486662 0 0 0
156 2 1.2305000000000001 16.339878643470165 6.270483709486662 0 0 0
158 2 1.2305000000000001 14.919019630994494 6.270483709486662 0 0 0
199 2 2.4610000000000003 17.050308149708 6.270483709486662 0 0 0
433 2 0 15.629449137232333 9.156823257547575 0 0 0
449 2 0 17.050308149708 9.156823257547575 0 0 0
451 2 1.2305000000000001 14.919019630994494 9.156823257547575 0 0 0
452 2 2.4610000000000003 15.629449137232328 9.156823257547575 0 0 0
472 2 2.4610000000000003 17.050308149708 9.156823257547575 0 0 0
201 2 3.6915000000000004 16.339878643470165 6.270483709486662 0 0 0
203 2 3.6915000000000004 14.919019630994494 6.270483709486662 0 0 0
246 2 4.922000000000001 17.050308149708 6.270483709486662 0 0 0
250 2 6.152499999999999 14.919019630994494 6.270483709486662 0 0 0
474 2 3.6915000000000004 14.919019630994494 9.156823257547575 0 0 0
475 2 4.922000000000001 15.629449137232333 9.156823257547575 0 0 0
496 2 4.922000000000001 17.050308149708 9.156823257547575 0 0 0
498 2 6.152499999999999 14.919019630994494 9.156823257547575 0 0 0
152 2 0 18.471167162183658 6.270483709486662 0 0 0
195 2 1.2305000000000001 19.181596668421495 6.270483709486662 0 0 0
197 2 2.4610000000000003 18.471167162183658 6.270483709486662 0 0 0
450 2 1.2305000000000001 17.76073765594583 9.156823257547575 0 0 0
470 2 1.2305000000000001 19.181596668421495 9.156823257547575 0 0 0
242 2 3.6914999999999996 19.181596668421495 6.270483709486662 0 0 0
244 2 4.922000000000001 18.471167162183658 6.270483709486662 0 0 0
473 2 3.6914999999999996 17.76073765594583 9.156823257547575 0 0 0
494 2 3.6914999999999996 19.181596668421495 9.156823257547575 0 0 0
1959 1 3.6474892958903564 13.704981257160274 11.868261019277202 0 0 -1
2113 1 5.552921206327515 11.457812835867662 11.91840000311371 1 0 1
2017 1 3.9406151402725524 16.47054808801094 11.928364123486803 0 0 -1
3860 1 1.5662607172440761 18.219157228517243 11.516637807381604 1 1 0
873 1 0.7138296954122834 13.343326904298344 12.018249858214265 2 1 -1
810 1 1.5932130113397402 17.267377187309684 24.71175143128403 2 1 0
3955 1 3.8579543761958823 13.337967954387823 14.501881563684313 0 0 -1
929 1 5.339098836441073 15.450120224587856 15.834919003791635 1 -1 0
2881 1 5.470843126764536 10.97498433532585 14.756722088140165 1 1 0
3084 1 5.771666284619023 10.825257295574374 17.70028972203474 1 -1 1
791 1 3.972988478299543 16.254424666916464 25.202432854088507 1 0 0
2887 1 3.333378182402895 16.83211757107025 14.547244256758155 1 0 0
3915 1 0.2666210562807855 15.48968940445407 18.168450469122405 1 0 0
2842 1 0.3269727664516014 11.168151197631072 21.86763971748018 1 1 0
1920 1 3.4856701201282223 13.57706347293835 24.877134715290858 0 0 2
63 1 2.3252211929396944 13.745887953237109 19.60885196627175 -1 0 0
3943 1 5.520911926965277 19.043843435072258 21.741252421104548 0 1 0
3025 1 0.5061213891618964 14.069404813478796 21.76362579118141 0 1 -1
2091 1 5.0477649704348515 11.671206209343884 20.23691913471474 0 2 0
3031 1 1.2065555829284527 12.751931365101072 14.713464689808987 0 0 0
3823 1 2.8579076414086155 10.133552605478926 21.69509653549148 2 0 1
3936 1 4.447001318143635 15.288165566505377 18.61946473545064 1 0 -1
2074 1 3.7388661410043653 18.159547015432263 19.38731664294349 1 0 0
3801 1 0.9003316056515033 15.58606089386494 15.464205063070834 1 -1 0
3027 1 1.2171729836700886 12.106527670211312 17.73442798552546 1 0 1
2925 1 0.7375760201570615 10.739872338331132 24.716004103291176 2 1 1
1871 1 5.639031220586655 11.337558711065077 24.921523576425415 0 1 0
1065 1 0.9081004950846974 18.282678099398943 19.0119537768754 2 1 0
1789 1 2.9246537734850615 9.919702143332952 17.18816603330412 1 0 0
3007 1 0.500036334071274 16.92863961071371 22.08570743857438 0 1 0
996 1 5.711279967606353 19.07640092626767 24.61349083867468 1 0 -1
2997 1 0.7842665783089625 13.507246810874072 24.6279062481145 1 1 0
2023 1 4.524312704614318 19.261092220302636 14.812375054540984 0 -1 1
3017 1 0.7773647551306383 9.921738730039204 15.04168664594826 1 0 -1
151 2 0 19.89202617465933 3.384144161424956 0 0 0
196 2 2.4610000000000003 19.89202617465933 3.384144161424956 0 0 0
243 2 4.922000000000001 19.89202617465933 3.384144161424956 0 0 0
188 2 0 24.154603212086325 3.384144161424956 0 0 0
190 2 0 21.312885187135 3.384144161424956 0 0 0
192 2 1.2304999999999993 22.023314693372832 3.384144161424956 0 0 0
233 2 1.2304999999999993 23.4441737058485 3.384144161424956 0 0 0
235 2 2.4610000000000003 24.154603212086325 3.384144161424956 0 0 0
237 2 2.4610000000000003 21.312885187134995 3.384144161424956 0 0 0
239 2 3.6914999999999996 22.023314693372832 3.384144161424956 0 0 0
280 2 3.6915000000000004 23.4441737058485 3.384144161424956 0 0 0
282 2 4.922000000000001 24.154603212086325 3.384144161424956 0 0 0
284 2 4.922000000000001 21.312885187134995 3.384144161424956 0 0 0
286 2 6.152499999999999 22.023314693372832 3.384144161424956 0 0 0
1130 2 0 25.575462224561992 3.384144161424956 0 0 0
1132 2 1.2305000000000001 26.285891730799833 3.384144161424956 0 0 0
1140 2 1.230500000000001 27.706750743275496 3.384144161424956 0 0 0
1144 2 2.4610000000000003 25.575462224561992 3.384144161424956 0 0 0
1146 2 3.691499999999999 26.285891730799833 3.384144161424956 0 0 0
1162 2 3.6914999999999996 27.706750743275496 3.384144161424956 0 0 0
1166 2 4.922000000000001 25.575462224561992 3.384144161424956 0 0 0
1192 2 6.152499999999999 27.706750743275496 3.384144161424956 0 0 0
1128 2 0 28.417180249513333 3.384144161424956 0 0 0
1142 2 2.4610000000000003 28.417180249513326 3.384144161424956 0 0 0
1164 2 4.922000000000001 28.417180249513336 3.384144161424956 0 0 0
193 2 1.2305000000000001 20.60245568089716 6.270483709486662 0 0 0
448 2 0 19.89202617465933 9.156823257547575 0 0 0
471 2 2.4610000000000003 19.89202617465933 9.156823257547575 0 0 0
240 2 3.6915000000000004 20.60245568089716 6.270483709486662 0 0 0
495 2 4.922000000000001 19.89202617465933 9.156823257547575 0 0 0
189 2 0 22.733744199610655 6.270483709486662 0 0 0
191 2 0 21.312885187135 6.270483709486662 0 0 0
234 2 1.2304999999999993 23.4441737058485 6.270483709486662 0 0 0
236 2 2.4610000000000003 22.733744199610655 6.270483709486662 0 0 0
238 2 2.4610000000000003 21.312885187134995 6.270483709486662 0 0 0
467 2 0 24.154603212086325 9.156823257547575 0 0 0
468 2 0 21.312885187135 9.156823257547575 0 0 0
469 2 1.2304999999999993 22.023314693372832 9.156823257547575 0 0 0
490 2 1.2304999999999993 23.4441737058485 9.156823257547575 0 0 0
491 2 2.4610000000000003 24.154603212086325 9.156823257547575 0 0 0
492 2 2.4610000000000003 21.312885187134995 9.156823257547575 0 0 0
281 2 3.6915000000000004 23.4441737058485 6.270483709486662 0 0 0
283 2 4.922000000000001 22.733744199610655 6.270483709486662 0 0 0
285 2 4.922000000000001 21.312885187134995 6.270483709486662 0 0 0
493 2 3.6914999999999996 22.023314693372832 9.156823257547575 0 0 0
514 2 3.6915000000000004 23.4441737058485 9.156823257547575 0 0 0
515 2 4.922000000000001 24.154603212086325 9.156823257547575 0 0 0
516 2 4.922000000000001 21.312885187134995 9.156823257547575 0 0 0
517 2 6.152499999999999 22.023314693372832 9.156823257547575 0 0 0
1129 2 0 26.99632123703766 6.270483709486662 0 0 0
1131 2 0 25.575462224561992 6.270483709486662 0 0 0
1133 2 1.2305000000000001 24.865032718324155 6.270483709486662 0 0 0
1141 2 1.230500000000001 27.706750743275496 6.270483709486662 0 0 0
1143 2 2.4610000000000003 26.99632123703766 6.270483709486662 0 0 0
1145 2 2.4610000000000003 25.575462224561992 6.270483709486662 0 0 0
1444 2 0 25.575462224561992 9.156823257547575 0 0 0
1445 2 1.2305000000000001 26.285891730799833 9.156823257547575 0 0 0
1449 2 1.230500000000001 27.706750743275496 9.156823257547575 0 0 0
1451 2 2.4610000000000003 25.575462224561992 9.156823257547575 0 0 0
1147 2 3.6914999999999996 24.865032718324166 6.270483709486662 0 0 0
1163 2 3.6914999999999996 27.706750743275496 6.270483709486662 0 0 0
1165 2 4.922000000000001 26.99632123703766 6.270483709486662 0 0 0
1167 2 4.922000000000001 25.575462224561992 6.270483709486662 0 0 0
1169 2 6.152499999999999 24.865032718324155 6.270483709486662 0 0 0
1193 2 6.152499999999999 27.706750743275496 6.270483709486662 0 0 0
1452 2 3.691499999999999 26.285891730799833 9.156823257547575 0 0 0
1460 2 3.6914999999999996 27.706750743275496 9.156823257547575 0 0 0
1462 2 4.922000000000001 25.575462224561992 9.156823257547575 0 0 0
1475 2 6.152499999999999 27.706750743275496 9.156823257547575 0 0 0
1139 2 1.2304999999999993 29.127609755751163 6.270483709486662 0 0 0
1443 2 0 28.417180249513333 9.156823257547575 0 0 0
1450 2 2.4610000000000003 28.417180249513326 9.156823257547575 0 0 0
1161 2 3.691499999999999 29.127609755751152 6.270483709486662 0 0 0
1191 2 6.152499999999998 29.127609755751152 6.270483709486662 0 0 0
1461 2 4.922000000000001 28.417180249513336 9.156823257547575 0 0 0
978 1 5.275740659806721 22.666574712544264 12.184832061984737 0 0 -1
2008 1 2.295919966150583 27.00752289323295 11.77121024821684 1 0 -2
2028 1 5.169903010972308 27.003362692586656 12.945127381648392 1 0 1
3968 1 2.5116189010960825 24.283575506852348 11.839341301608506 0 0 0
1075 1 4.146710173790261 20.238617659126607 11.83712374706163 0 1 0
1958 1 3.898670145405754 24.029254731339563 14.485120559385358 0 -1 0
829 1 2.4275565388598848 21.565473732156395 15.576021423117313 0 -1 -1
845 1 2.3488647031051837 27.269915246193303 14.60567689868277 0 0 0
3940 1 0.7902108532530892 28.09214652854308 20.564060289320707 1 0 0
3900 1 2.9635804821756295 25.90868166621433 18.78681183661157 1 0 0
1971 1 4.288786957081119 28.059638191528617 19.32449519218192 0 -1 0
1002 1 5.558758378487826 23.00292403649345 21.348801756325088 0 0 -1
4017 1 0.9076878941389211 24.679042963301725 24.884248093244118 0 0 0
57 1 5.1978508464372 23.10656197020486 16.825955305528744 0 0 0
1867 1 3.453854833446302 21.814476331713728 20.15075148053881 1 0 0
2848 1 2.2739483954900677 27.3713759931449 24.744580671907833 0 -1 2
2894 1 5.519778551084852 22.842601255126883 24.179994285894075 1 1 -1
1901 1 6.129421555628195 24.60903512386767 19.126979369066703 0 0 -1
982 1 3.046052761397095 27.691922199119805 21.89828714683025 0 0 -1
1878 1 5.063048475546544 26.55282417367121 15.993973924041512 0 0 0
2069 1 0.7907309840176757 27.59653986676203 17.69715417844342 1 0 1
3808 1 1.0275744675834892 25.12658148433166 15.930207454981357 1 0 1
3807 1 3.2859626037748946 24.81862693326102 21.402924227671072 1 1 0
995 1 1.1055210136852949 21.804300126944362 24.985904232515985 1 0 0
2019 1 0.8942048486047831 23.94578667610811 22.018875104408323 0 0 0
4036 1 4.671170053732171 20.07401509620587 17.773484960933047 1 0 0
3108 1 1.050850764159142 21.416940578325903 18.102640242703217 0 1 0
1081 1 5.1655619102213475 27.349208234093354 24.27434853806406 2 1 0
902 1 5.940843265540215 29.26776073198607 15.835947681025688 0 0 -1
2056 1 0.7014049558416772 24.092294882187996 18.949678634864647 1 0 0
795 1 3.0405118887625058 19.618119815440252 24.39388811511285 0 0 0
951 1 2.2419863331304515 19.7173625678405 21.790883687491714 0 1 0
1136 2 0 29.83803926198899 3.384144161424956 0 0 0
1138 2 1.2304999999999993 30.54846876822683 3.384144161424956 0 0 0
1158 2 2.4610000000000003 29.83803926198899 3.384144161424956 0 0 0
1160 2 3.6915000000000004 30.54846876822683 3.384144161424956 0 0 0
1188 2 4.922000000000001 29.83803926198899 3.384144161424956 0 0 0
1134 2 0 32.67975728694033 3.384144161424956 0 0 0
1150 2 0 34.100616299416 3.384144161424956 0 0 0
1154 2 1.2304999999999993 31.969327780702493 3.384144161424956 0 0 0
1156 2 2.4610000000000003 32.67975728694034 3.384144161424956 0 0 0
1180 2 2.4609999999999985 34.100616299416 3.384144161424956 0 0 0
1184 2 3.6914999999999996 31.969327780702493 3.384144161424956 0 0 0
1186 2 4.9220000000000015 32.67975728694034 3.384144161424956 0 0 0
1218 2 4.922000000000001 34.100616299416 3.384144161424956 0 0 0
1152 2 1.230500000000001 34.81104580565383 3.384144161424956 0 0 0
1182 2 3.691500000000002 34.81104580565383 3.384144161424956 0 0 0
1148 2 0 36.94233432436734 3.384144161424956 0 0 0
1172 2 0 38.36319333684299 3.384144161424956 0 0 0
1176 2 1.2304999999999993 36.231904818129486 3.384144161424956 0 0 0
1178 2 2.461000000000002 36.94233432436734 3.384144161424956 0 0 0
1210 2 2.4610000000000003 38.36319333684299 3.384144161424956 0 0 0
1214 2 3.6914999999999996 36.231904818129486 3.384144161424956 0 0 0
1216 2 4.922000000000001 36.942334324367316 3.384144161424956 0 0 0
1255 2 4.922000000000001 38.36319333684299 3.384144161424956 0 0 0
1174 2 1.230500000000001 39.07362284308084 3.384144161424956 0 0 0
1212 2 3.691500000000002 39.07362284308082 3.384144161424956 0 0 0
1135 2 0 31.258898274464656 6.270483709486662 0 0 0
1137 2 0 29.83803926198899 6.270483709486662 0 0 0
1157 2 2.4609999999999985 31.258898274464656 6.270483709486662 0 0 0
1159 2 2.4610000000000003 29.83803926198899 6.270483709486662 0 0 0
1447 2 0 29.83803926198899 9.156823257547575 0 0 0
1448 2 1.2304999999999993 30.54846876822683 9.156823257547575 0 0 0
1458 2 2.4610000000000003 29.83803926198899 9.156823257547575 0 0 0
1187 2 4.921999999999998 31.258898274464656 6.270483709486662 0 0 0
1189 2 4.922000000000001 29.83803926198899 6.270483709486662 0 0 0
1459 2 3.6915000000000004 30.54846876822683 9.156823257547575 0 0 0
1473 2 4.922000000000001 29.83803926198899 9.156823257547575 0 0 0
1151 2 0 34.100616299416 6.270483709486662 0 0 0
1153 2 1.2304999999999993 33.39018679317816 6.270483709486662 0 0 0
1155 2 1.2304999999999993 31.969327780702493 6.270483709486662 0 0 0
1181 2 2.4609999999999985 34.100616299416 6.270483709486662 0 0 0
1446 2 0 32.67975728694033 9.156823257547575 0 0 0
1454 2 0 34.100616299416 9.156823257547575 0 0 0
1456 2 1.2304999999999993 31.969327780702493 9.156823257547575 0 0 0
1457 2 2.4610000000000003 32.67975728694034 9.156823257547575 0 0 0
1469 2 2.4609999999999985 34.100616299416 9.156823257547575 0 0 0
1183 2 3.691499999999998 33.39018679317816 6.270483709486662 0 0 0
1185 2 3.6914999999999996 31.969327780702493 6.270483709486662 0 0 0
1219 2 4.922000000000001 34.100616299416 6.270483709486662 0 0 0
1221 2 6.152499999999999 33.39018679317816 6.270483709486662 0 0 0
1471 2 3.6914999999999996 31.969327780702493 9.156823257547575 0 0 0
1472 2 4.9220000000000015 32.67975728694034 9.156823257547575 0 0 0
1488 2 4.922000000000001 34.100616299416 9.156823257547575 0 0 0
1455 2 1.230500000000001 34.81104580565383 9.156823257547575 0 0 0
1470 2 3.691500000000002 34.81104580565383 9.156823257547575 0 0 0
1149 2 0 35.52147531189165 6.270483709486662 0 0 0
1173 2 0 38.36319333684299 6.270483709486662 0 0 0
1175 2 1.2304999999999993 37.65276383060515 6.270483709486662 0 0 0
1177 2 1.2304999999999993 36.231904818129486 6.270483709486662 0 0 0
1179 2 2.4609999999999985 35.52147531189166 6.270483709486662 0 0 0
1211 2 2.4610000000000003 38.36319333684299 6.270483709486662 0 0 0
1453 2 0 36.94233432436734 9.156823257547575 0 0 0
1465 2 0 38.36319333684299 9.156823257547575 0 0 0
1467 2 1.2304999999999993 36.231904818129486 9.156823257547575 0 0 0
1468 2 2.461000000000002 36.94233432436734 9.156823257547575 0 0 0
1484 2 2.4610000000000003 38.36319333684299 9.156823257547575 0 0 0
1213 2 3.6914999999999996 37.65276383060515 6.270483709486662 0 0 0
1215 2 3.6914999999999996 36.231904818129486 6.270483709486662 0 0 0
1217 2 4.922000000000001 35.52147531189166 6.270483709486662 0 0 0
1256 2 4.922000000000001 38.36319333684299 6.270483709486662 0 0 0
1258 2 6.152499999999998 37.65276383060515 6.270483709486662 0 0 0
1486 2 3.6914999999999996 36.231904818129486 9.156823257547575 0 0 0
1487 2 4.922000000000001 36.942334324367316 9.156823257547575 0 0 0
1506 2 4.922000000000001 38.36319333684299 9.156823257547575 0 0 0
1466 2 1.230500000000001 39.07362284308084 9.156823257547575 0 0 0
1485 2 3.691500000000002 39.07362284308082 9.156823257547575 0 0 0
3908 1 2.592877076110665 33.12383849223753 12.059388526179589 1 0 1
1105 1 3.4120146273906102 38.342307777571015 11.791435375437027 0 0 0
2854 1 0.29674150429878493 34.68056174101527 11.690133228885978 1 -1 0
3942 1 4.489738348109084 35.37607952064628 11.862513838410495 -1 0 0
1032 1 2.3745077765901517 30.299300045252675 11.444300058849128 1 0 -1
1000 1 5.457753146552142 29.65246186897984 11.697332869011992 0 -1 -1
3866 1 0.36207516753493596 37.80102831432047 11.712063257746484 1 -1 0
3038 1 5.182952286994844 31.0656285686645 21.799037637441714 1 0 0
910 1 2.3954122593188827 33.183007062784085 14.871502994196966 1 1 0
891 1 1.6821525636429997 34.728991476432505 24.939236635789023 0 -1 -1
1913 1 2.880540997495877 37.9831739471562 21.955024023380297 0 0 0
1066 1 4.940115334774372 36.378472276629076 14.543011042771777 1 -2 0
802 1 3.2535244483346166 38.26492011772483 14.733542692432101 1 -1 1
2123 1 0.7428568089770786 29.741743101896784 24.831541296771384 1 0 0
2871 1 1.1593262933346395 35.57401826642024 14.198431724307728 1 -1 0
3121 1 4.195575652798036 34.59175979027423 16.424190075290205 0 -1 0
2063 1 1.1415802334561758 33.82726009943333 19.03459589773633 0 0 1
2943 1 0.9510539174623946 38.493952669830534 19.841340238709414 1 0 1
3018 1 4.109717305936575 33.0245054315022 19.120750752863323 0 0 0
2905 1 2.0181508030465327 30.23634655298003 14.264898399418595 1 0 0
3032 1 1.992464181744282 35.22426268509306 22.097309651183394 1 1 1
1812 1 1.4614455735109912 30.25449386626413 17.213006703008922 0 0 -1
2948 1 2.691879129809536 36.9384590359842 17.16912530402407 1 0 0
4038 1 5.976895270759954 36.7974794292981 21.403882714174443 -1 0 1
1006 1 4.0478001428745705 30.565409378820007 17.614749833374557 1 1 0
2830 1 4.4233621924884785 37.951531805079455 19.255986347979317 1 0 0
3116 1 0.30659232884610516 30.640719164576726 22.085824474108293 1 0 1
2102 1 2.4546745665277947 32.039206496776366 24.529634170546075 1 -1 0
3864 1 3.030452361473035 37.19022386163042 24.758485858810268 2 0 0
946 1 5.146205229134064 31.907210987135446 24.436605344272607 0 0 -1
3098 1 2.5019288458934925 32.38294256699175 21.696675830873048 0 0 -1
1016 1 0.03589365565018893 32.54965161696598 16.98128435291219 0 1 -1
1912 1 5.861958886944895 36.7627834568811 24.25879184472074 0 0 -1
3914 1 0.15726743211191072 36.28027590469748 18.207647597219704 0 0 -1
1833 1 0.0642349867384505 38.73648304892271 14.320276657684309 0 1 0
2884 1 6.1393771738293275 33.90660756299254 20.35084292908555 1 0 0
2886 1 4.94381952068724 31.279666150293927 14.025150739987964 0 0 0
1170 2 0 41.20491136179432 3.384144161424956 0 0 0
1206 2 1.230500000000001 40.494481855556494 3.384144161424956 0 0 0
1208 2 2.4610000000000003 41.20491136179432 3.384144161424956 0 0 0
1251 2 3.6914999999999996 40.494481855556494 3.384144161424956 0 0 0
1253 2 4.922000000000003 41.20491136179432 3.384144161424956 0 0 0
1296 2 6.152499999999998 40.494481855556494 3.384144161424956 0 0 0
1202 2 0 42.62577037427 3.384144161424956 0 0 0
1204 2 1.2304999999999993 43.33619988050783 3.384144161424956 0 0 0
1247 2 2.4610000000000003 42.62577037427 3.384144161424956 0 0 0
1249 2 3.691500000000002 43.33619988050783 3.384144161424956 0 0 0
1292 2 4.922000000000001 42.62577037426999 3.384144161424956 0 0 0
1200 2 0 45.46748839922133 3.384144161424956 0 0 0
1243 2 1.2304999999999993 44.757058892983494 3.384144161424956 0 0 0
1245 2 2.4610000000000003 45.46748839922133 3.384144161424956 0 0 0
1288 2 3.6914999999999996 44.757058892983494 3.384144161424956 0 0 0
1290 2 4.922000000000001 45.46748839922133 3.384144161424956 0 0 0
1239 2 0 46.888347411697 3.384144161424956 0 0 0
1241 2 1.230500000000001 47.59877691793481 3.384144161424956 0 0 0
1284 2 2.4609999999999985 46.888347411697 3.384144161424956 0 0 0
1286 2 3.6914999999999996 47.598776917934835 3.384144161424956 0 0 0
1329 2 4.922000000000001 46.888347411697 3.384144161424956 0 0 0
1171 2 0 39.78405234931866 6.270483709486662 0 0 0
1205 2 1.230500000000001 41.91534086803216 6.270483709486662 0 0 0
1207 2 1.230500000000001 40.494481855556494 6.270483709486662 0 0 0