LAMMPS data file via write_data, version 29 Sep 2021, timestep = 8000000

4065 atoms
2 atom types

0 49.22 xlo xhi
0 49.019635930410494 ylo yhi
1.0915055059588923 26.74932674031587 zlo zhi

Masses

1 18.015
2 12.01

Atoms # atomic

83 2 0 2.8417180249513345 2.6370112519577056 0 0 0
85 2 0 0 2.6370112519577056 0 0 0
87 2 1.2305000000000001 0.7104295062378347 2.6370112519577056 0 0 0
94 2 1.2305000000000001 2.1312885187135 2.6370112519577056 0 0 0
96 2 2.4610000000000003 2.8417180249513345 2.6370112519577056 0 0 0
98 2 2.4610000000000003 0 2.6370112519577056 0 0 0
100 2 3.6915000000000004 0.7104295062378347 2.6370112519577056 0 0 0
115 2 3.6914999999999996 2.1312885187135 2.6370112519577056 0 0 0
117 2 4.922000000000001 2.841718024951333 2.6370112519577056 0 0 0
119 2 4.922000000000001 0 2.6370112519577056 0 0 0
90 2 0 4.262577037427 2.6370112519577056 0 0 0
111 2 2.4610000000000003 4.262577037427 2.6370112519577056 0 0 0
140 2 4.922000000000001 4.262577037426998 2.6370112519577056 0 0 0
92 2 1.2305000000000001 4.973006543664834 2.6370112519577056 0 0 0
107 2 1.2305000000000001 6.393865556140498 2.6370112519577056 0 0 0
113 2 3.6914999999999996 4.973006543664834 2.6370112519577056 0 0 0
136 2 3.6914999999999996 6.393865556140498 2.6370112519577056 0 0 0
88 2 0 7.104295062378334 2.6370112519577056 0 0 0
103 2 0 8.525154074854 2.6370112519577056 0 0 0
105 2 1.2305000000000001 9.235583581091834 2.6370112519577056 0 0 0
109 2 2.4610000000000003 7.104295062378334 2.6370112519577056 0 0 0
132 2 2.4610000000000003 8.525154074854 2.6370112519577056 0 0 0
134 2 3.6915000000000004 9.235583581091834 2.6370112519577056 0 0 0
138 2 4.922000000000001 7.104295062378334 2.6370112519577056 0 0 0
169 2 4.922000000000001 8.525154074854 2.6370112519577056 0 0 0
84 2 0 1.420859012475665 5.728022743954543 0 0 0
86 2 0 0 5.728022743954543 0 0 0
95 2 1.2305000000000001 2.1312885187135 5.728022743954543 0 0 0
97 2 2.4610000000000003 1.420859012475665 5.728022743954543 0 0 0
99 2 2.4610000000000003 0 5.728022743954543 0 0 0
412 2 0 2.8417180249513345 8.819034235958247 0 0 0
413 2 0 0 8.819034235958247 0 0 0
414 2 1.2305000000000001 0.7104295062378347 8.819034235958247 0 0 0
418 2 1.2305000000000001 2.1312885187135 8.819034235958247 0 0 0
419 2 2.4610000000000003 2.8417180249513345 8.819034235958247 0 0 0
420 2 2.4610000000000003 0 8.819034235958247 0 0 0
116 2 3.6914999999999996 2.1312885187135 5.728022743954543 0 0 0
118 2 4.922000000000001 1.420859012475665 5.728022743954543 0 0 0
120 2 4.922000000000001 0 5.728022743954543 0 0 0
421 2 3.6915000000000004 0.7104295062378347 8.819034235958247 0 0 0
429 2 3.6914999999999996 2.1312885187135 8.819034235958247 0 0 0
430 2 4.922000000000001 2.841718024951333 8.819034235958247 0 0 0
431 2 4.922000000000001 0 8.819034235958247 0 0 0
91 2 0 4.262577037427 5.728022743954543 0 0 0
93 2 1.2305000000000001 3.5521475311891644 5.728022743954543 0 0 0
112 2 2.4610000000000003 4.262577037427 5.728022743954543 0 0 0
416 2 0 4.262577037427 8.819034235958247 0 0 0
427 2 2.4610000000000003 4.262577037427 8.819034235958247 0 0 0
114 2 3.6914999999999996 3.5521475311891644 5.728022743954543 0 0 0
141 2 4.922000000000001 4.262577037426998 5.728022743954543 0 0 0
442 2 4.922000000000001 4.262577037426998 8.819034235958247 0 0 0
89 2 0 5.683436049902664 5.728022743954543 0 0 0
108 2 1.2305000000000001 6.393865556140498 5.728022743954543 0 0 0
110 2 2.4610000000000003 5.683436049902664 5.728022743954543 0 0 0
417 2 1.2305000000000001 4.973006543664834 8.819034235958247 0 0 0
425 2 1.2305000000000001 6.393865556140498 8.819034235958247 0 0 0
137 2 3.6914999999999996 6.393865556140498 5.728022743954543 0 0 0
139 2 4.922000000000001 5.683436049902664 5.728022743954543 0 0 0
428 2 3.6914999999999996 4.973006543664834 8.819034235958247 0 0 0
440 2 3.6914999999999996 6.393865556140498 8.819034235958247 0 0 0
104 2 0 8.525154074854 5.728022743954543 0 0 0
106 2 1.2305000000000001 7.814724568616164 5.728022743954543 0 0 0
133 2 2.4610000000000003 8.525154074854 5.728022743954543 0 0 0
415 2 0 7.104295062378334 8.819034235958247 0 0 0
423 2 0 8.525154074854 8.819034235958247 0 0 0
424 2 1.2305000000000001 9.235583581091834 8.819034235958247 0 0 0
426 2 2.4610000000000003 7.104295062378334 8.819034235958247 0 0 0
438 2 2.4610000000000003 8.525154074854 8.819034235958247 0 0 0
135 2 3.6914999999999996 7.814724568616164 5.728022743954543 0 0 0
170 2 4.922000000000001 8.525154074854 5.728022743954543 0 0 0
439 2 3.6915000000000004 9.235583581091834 8.819034235958247 0 0 0
441 2 4.922000000000001 7.104295062378334 8.819034235958247 0 0 0
457 2 4.922000000000001 8.525154074854 8.819034235958247 0 0 0
2055 1 2.347843572881452 2.0719206794350917 11.314801900075881 4 -2 1
2063 1 1.2894183084700037 4.5732540806633075 11.540871190999432 -3 -2 1
1792 1 2.8890062279136264 6.764404674876557 11.323479223971447 1 -1 -1
1844 1 5.650810307091711 6.647933820940803 11.710412318104988 1 2 1
58 1 1.6654079176194718 9.173710450507645 11.7064571889886 -3 2 -1
908 1 5.161997846007061 1.9608520180649707 11.643752304414901 -2 3 0
3102 1 3.3655217526264694 4.9147865896509115 15.08151079221005 4 -1 -1
816 1 5.266364277337503 6.871566809190444 14.251785836373482 -1 -4 0
2941 1 3.4745418512825417 4.8139622939528355 17.935812546755223 -2 -2 0
63 1 0.14406056385995708 2.680111524932497 25.859743179797043 -1 0 0
3841 1 2.2628729065999624 6.509682072870975 23.009586474499454 0 1 1
3054 1 5.992540623673519 4.30035467130702 22.59936525375895 -2 0 0
1891 1 3.9290401257673597 9.035240378210752 15.292023235479924 2 -1 0
927 1 1.513501606907322 9.212727437006633 14.33754577079908 1 -1 0
1942 1 0.212649922561281 0.33795688782619704 14.538422653459492 3 0 -1
1791 1 0.5946281506570152 0.2991412349667234 19.393688959266207 -2 3 0
3125 1 4.418693018185121 2.525577792152028 19.011657272433983 0 3 1
2882 1 4.383788113088634 2.1178576208142776 21.92936783526831 0 0 0
1045 1 4.026156261677304 2.3098436306787606 14.078769494991118 1 -3 0
1 1 0.9852185683956697 4.771020830685337 19.00314506597654 2 1 0
1925 1 0.8733966761042398 4.376115660425716 21.866209261830143 0 2 0
3929 1 1.6410326969870175 9.115569994865169 19.062052404208703 4 0 0
4006 1 4.9228336667278345 6.61367333118398 19.112650083737535 -3 -1 -1
3135 1 4.690927019896585 6.505929840319991 21.875609533932924 -1 0 1
1804 1 1.236303145052484 9.036402131404705 21.85874724041349 -1 0 0
12 1 3.2474485805260023 2.1259954923681907 25.71853226826276 -2 2 0
915 1 0.7679058576393 4.864791328998096 14.403739931263312 2 0 0
3927 1 1.787204026306794 2.2600711027629066 23.151690715536812 0 -3 0
14 1 5.164874944987448 4.286918809259919 25.37982668681977 -1 1 0
3094 1 4.377580187766951 9.09758559488985 18.045443691465426 0 3 0
3079 1 5.05032904367578 8.693068948833261 25.583259016971812 2 2 0
1826 1 3.192134520575613 6.4283210153407495 25.656086906680084 1 1 -1
3840 1 0.484603107667535 6.940374622050059 25.835315890778045 0 -2 0
1857 1 6.069725533104789 8.617799462794647 22.76017393966845 -5 -3 -1
820 1 2.9627703108414294 0.22848167297084387 18.16840560268979 2 3 -1
3896 1 0.05438304127483207 7.21326672131747 17.798576037954977 0 0 0
101 2 0 11.366872099805333 2.6370112519577056 0 0 0
124 2 0 12.787731112280996 2.6370112519577056 0 0 0
126 2 1.2305000000000001 13.49816061851883 2.6370112519577056 0 0 0
128 2 1.2305000000000001 10.656442593567498 2.6370112519577056 0 0 0
130 2 2.4610000000000003 11.366872099805333 2.6370112519577056 0 0 0
161 2 2.4610000000000003 12.787731112280996 2.6370112519577056 0 0 0
163 2 3.6915000000000004 13.49816061851883 2.6370112519577056 0 0 0
165 2 3.6914999999999996 10.6564425935675 2.6370112519577056 0 0 0
167 2 4.922000000000001 11.366872099805333 2.6370112519577056 0 0 0
206 2 4.922000000000001 12.787731112280996 2.6370112519577056 0 0 0
208 2 6.152499999999999 13.49816061851883 2.6370112519577056 0 0 0
122 2 0 15.629449137232333 2.6370112519577056 0 0 0
153 2 0 17.050308149708 2.6370112519577056 0 0 0
157 2 1.2305000000000001 14.919019630994494 2.6370112519577056 0 0 0
159 2 2.4610000000000003 15.629449137232328 2.6370112519577056 0 0 0
198 2 2.4610000000000003 17.050308149708 2.6370112519577056 0 0 0
202 2 3.6915000000000004 14.919019630994494 2.6370112519577056 0 0 0
204 2 4.922000000000001 15.629449137232333 2.6370112519577056 0 0 0
245 2 4.922000000000001 17.050308149708 2.6370112519577056 0 0 0
249 2 6.152499999999999 14.919019630994494 2.6370112519577056 0 0 0
155 2 1.2305000000000001 17.76073765594583 2.6370112519577056 0 0 0
194 2 1.2305000000000001 19.181596668421495 2.6370112519577056 0 0 0
200 2 3.6914999999999996 17.76073765594583 2.6370112519577056 0 0 0
241 2 3.6914999999999996 19.181596668421495 2.6370112519577056 0 0 0
102 2 0 9.946013087329664 5.728022743954543 0 0 0
131 2 2.4610000000000003 9.946013087329664 5.728022743954543 0 0 0
168 2 4.922000000000001 9.946013087329664 5.728022743954543 0 0 0
125 2 0 12.787731112280996 5.728022743954543 0 0 0
127 2 1.2305000000000001 12.077301606043163 5.728022743954543 0 0 0
129 2 1.2305000000000001 10.656442593567498 5.728022743954543 0 0 0
162 2 2.4610000000000003 12.787731112280996 5.728022743954543 0 0 0
422 2 0 11.366872099805333 8.819034235958247 0 0 0
434 2 0 12.787731112280996 8.819034235958247 0 0 0
435 2 1.2305000000000001 13.49816061851883 8.819034235958247 0 0 0
436 2 1.2305000000000001 10.656442593567498 8.819034235958247 0 0 0
437 2 2.4610000000000003 11.366872099805333 8.819034235958247 0 0 0
453 2 2.4610000000000003 12.787731112280996 8.819034235958247 0 0 0
164 2 3.6914999999999996 12.077301606043163 5.728022743954543 0 0 0
166 2 3.6914999999999996 10.6564425935675 5.728022743954543 0 0 0
207 2 4.922000000000001 12.787731112280996 5.728022743954543 0 0 0
454 2 3.6915000000000004 13.49816061851883 8.819034235958247 0 0 0
455 2 3.6914999999999996 10.6564425935675 8.819034235958247 0 0 0
456 2 4.922000000000001 11.366872099805333 8.819034235958247 0 0 0
476 2 4.922000000000001 12.787731112280996 8.819034235958247 0 0 0
477 2 6.152499999999999 13.49816061851883 8.819034235958247 0 0 0
123 2 0 14.208590124756663 5.728022743954543 0 0 0
160 2 2.4610000000000003 14.208590124756663 5.728022743954543 0 0 0
205 2 4.922000000000001 14.208590124756663 5.728022743954543 0 0 0
154 2 0 17.050308149708 5.728022743954543 0 0 0
156 2 1.2305000000000001 16.339878643470165 5.728022743954543 0 0 0
158 2 1.2305000000000001 14.919019630994494 5.728022743954543 0 0 0
199 2 2.4610000000000003 17.050308149708 5.728022743954543 0 0 0
433 2 0 15.629449137232333 8.819034235958247 0 0 0
449 2 0 17.050308149708 8.819034235958247 0 0 0
451 2 1.2305000000000001 14.919019630994494 8.819034235958247 0 0 0
452 2 2.4610000000000003 15.629449137232328 8.819034235958247 0 0 0
472 2 2.4610000000000003 17.050308149708 8.819034235958247 0 0 0
201 2 3.6915000000000004 16.339878643470165 5.728022743954543 0 0 0
203 2 3.6915000000000004 14.919019630994494 5.728022743954543 0 0 0
246 2 4.922000000000001 17.050308149708 5.728022743954543 0 0 0
250 2 6.152499999999999 14.919019630994494 5.728022743954543 0 0 0
474 2 3.6915000000000004 14.919019630994494 8.819034235958247 0 0 0
475 2 4.922000000000001 15.629449137232333 8.819034235958247 0 0 0
496 2 4.922000000000001 17.050308149708 8.819034235958247 0 0 0
498 2 6.152499999999999 14.919019630994494 8.819034235958247 0 0 0
152 2 0 18.471167162183658 5.728022743954543 0 0 0
195 2 1.2305000000000001 19.181596668421495 5.728022743954543 0 0 0
197 2 2.4610000000000003 18.471167162183658 5.728022743954543 0 0 0
450 2 1.2305000000000001 17.76073765594583 8.819034235958247 0 0 0
470 2 1.2305000000000001 19.181596668421495 8.819034235958247 0 0 0
242 2 3.6914999999999996 19.181596668421495 5.728022743954543 0 0 0
244 2 4.922000000000001 18.471167162183658 5.728022743954543 0 0 0
473 2 3.6914999999999996 17.76073765594583 8.819034235958247 0 0 0
494 2 3.6914999999999996 19.181596668421495 8.819034235958247 0 0 0
1813 1 2.821354192469273 11.656664992123705 11.264941458597097 2 -1 0
44 1 2.045525038118069 14.347383587380003 11.599461391402308 -2 3 0
3969 1 3.6182964844800303 16.667446073086964 11.323970106163001 2 0 0
4008 1 2.4331063593551265 19.192828632181033 11.836914958064511 -1 1 0
3928 1 5.335851615178111 11.29215744382384 11.782278659728462 -4 1 0
78 1 4.623077976997172 13.633781267857449 15.582128562871995 1 -3 1
4000 1 3.3430912828813737 15.676473270509906 22.65345415684653 -1 0 0
1105 1 4.273337689420524 13.66242928055392 18.28179759742274 1 1 0
2026 1 0.5804645320657187 11.570795493842505 18.015263562270842 0 0 0
3100 1 0.5322425014404191 11.691055000647108 15.061289024680464 -1 0 0
1122 1 0.9227294413940492 11.280484979521317 25.73526095158357 3 4 0
2068 1 0.8153103533145661 15.866516235411915 15.425284548523509 1 2 0
3799 1 4.369301995648576 18.24016487112221 15.280927275491273 0 -5 -1
2829 1 0.38355729111613857 15.945290669625445 18.26889355182223 1 1 1
1892 1 4.230176763868889 18.32556171447251 18.169334727643264 2 2 0
1797 1 2.0390243799595122 18.371378696019974 14.3713641920048 0 -1 0
822 1 5.070524821344612 18.18849332933534 25.757165382153783 1 2 1
1815 1 1.772781437078091 13.599493650246568 19.45647432223247 -1 2 1
1051 1 1.8822192891146903 13.123240237040733 21.968584893415258 5 -4 0
1926 1 5.5585198651522445 11.388982206823506 19.265105509096816 -1 2 1
82 1 5.76061501953766 15.660386527655259 21.970623751266533 1 -1 0
851 1 1.58003503100895 18.288191671702286 19.024464375129888 -2 -1 -1
2949 1 2.3716781205131965 17.84391969889135 21.671643860020037 1 2 0
1960 1 5.37304433840395 15.827251893384505 19.287112750861958 -3 -1 0
53 1 5.381757873713502 11.15717234719402 21.892869810218183 1 0 -1
1868 1 2.13521053452199 13.677059887825331 14.503909120752635 1 0 0
1809 1 5.11778951563432 13.384773460147882 25.793286775349223 1 -2 -1
2017 1 2.8150685324988287 10.755736237160686 22.949973243588484 1 2 -1
2856 1 3.6753966573688284 11.120138585263803 25.674520987655136 -1 0 0
3916 1 3.648304362209901 15.761830142049401 25.390245108319295 3 2 0
3913 1 0.8287116463420166 16.378561036293824 25.671726117401032 3 3 0
2878 1 5.713663012999283 15.804428724681426 14.54460221781289 -1 0 1
4023 1 5.252926658733278 11.212051777424538 14.491972614105965 1 -2 1
1917 1 0.23734968257579694 17.908361117430335 23.188596865179893 1 1 -1
151 2 0 19.89202617465933 2.6370112519577056 0 0 0
196 2 2.4610000000000003 19.89202617465933 2.6370112519577056 0 0 0
243 2 4.922000000000001 19.89202617465933 2.6370112519577056 0 0 0
188 2 0 24.154603212086325 2.6370112519577056 0 0 0
190 2 0 21.312885187135 2.6370112519577056 0 0 0
192 2 1.2304999999999993 22.023314693372832 2.6370112519577056 0 0 0
233 2 1.2304999999999993 23.4441737058485 2.6370112519577056 0 0 0
235 2 2.4610000000000003 24.154603212086325 2.6370112519577056 0 0 0
237 2 2.4610000000000003 21.312885187134995 2.6370112519577056 0 0 0
239 2 3.6914999999999996 22.023314693372832 2.6370112519577056 0 0 0
280 2 3.6915000000000004 23.4441737058485 2.6370112519577056 0 0 0
282 2 4.922000000000001 24.154603212086325 2.6370112519577056 0 0 0
284 2 4.922000000000001 21.312885187134995 2.6370112519577056 0 0 0
286 2 6.152499999999999 22.023314693372832 2.6370112519577056 0 0 0
1130 2 0 25.575462224561992 2.6370112519577056 0 0 0
1132 2 1.2305000000000001 26.285891730799833 2.6370112519577056 0 0 0
1140 2 1.230500000000001 27.706750743275496 2.6370112519577056 0 0 0
1144 2 2.4610000000000003 25.575462224561992 2.6370112519577056 0 0 0
1146 2 3.691499999999999 26.285891730799833 2.6370112519577056 0 0 0
1162 2 3.6914999999999996 27.706750743275496 2.6370112519577056 0 0 0
1166 2 4.922000000000001 25.575462224561992 2.6370112519577056 0 0 0
1192 2 6.152499999999999 27.706750743275496 2.6370112519577056 0 0 0
1128 2 0 28.417180249513333 2.6370112519577056 0 0 0
1142 2 2.4610000000000003 28.417180249513326 2.6370112519577056 0 0 0
1164 2 4.922000000000001 28.417180249513336 2.6370112519577056 0 0 0
193 2 1.2305000000000001 20.60245568089716 5.728022743954543 0 0 0
448 2 0 19.89202617465933 8.819034235958247 0 0 0
471 2 2.4610000000000003 19.89202617465933 8.819034235958247 0 0 0
240 2 3.6915000000000004 20.60245568089716 5.728022743954543 0 0 0
495 2 4.922000000000001 19.89202617465933 8.819034235958247 0 0 0
189 2 0 22.733744199610655 5.728022743954543 0 0 0
191 2 0 21.312885187135 5.728022743954543 0 0 0
234 2 1.2304999999999993 23.4441737058485 5.728022743954543 0 0 0
236 2 2.4610000000000003 22.733744199610655 5.728022743954543 0 0 0
238 2 2.4610000000000003 21.312885187134995 5.728022743954543 0 0 0
467 2 0 24.154603212086325 8.819034235958247 0 0 0
468 2 0 21.312885187135 8.819034235958247 0 0 0
469 2 1.2304999999999993 22.023314693372832 8.819034235958247 0 0 0
490 2 1.2304999999999993 23.4441737058485 8.819034235958247 0 0 0
491 2 2.4610000000000003 24.154603212086325 8.819034235958247 0 0 0
492 2 2.4610000000000003 21.312885187134995 8.819034235958247 0 0 0
281 2 3.6915000000000004 23.4441737058485 5.728022743954543 0 0 0
283 2 4.922000000000001 22.733744199610655 5.728022743954543 0 0 0
285 2 4.922000000000001 21.312885187134995 5.728022743954543 0 0 0
493 2 3.6914999999999996 22.023314693372832 8.819034235958247 0 0 0
514 2 3.6915000000000004 23.4441737058485 8.819034235958247 0 0 0
515 2 4.922000000000001 24.154603212086325 8.819034235958247 0 0 0
516 2 4.922000000000001 21.312885187134995 8.819034235958247 0 0 0
517 2 6.152499999999999 22.023314693372832 8.819034235958247 0 0 0
1129 2 0 26.99632123703766 5.728022743954543 0 0 0
1131 2 0 25.575462224561992 5.728022743954543 0 0 0
1133 2 1.2305000000000001 24.865032718324155 5.728022743954543 0 0 0
1141 2 1.230500000000001 27.706750743275496 5.728022743954543 0 0 0
1143 2 2.4610000000000003 26.99632123703766 5.728022743954543 0 0 0
1145 2 2.4610000000000003 25.575462224561992 5.728022743954543 0 0 0
1444 2 0 25.575462224561992 8.819034235958247 0 0 0
1445 2 1.2305000000000001 26.285891730799833 8.819034235958247 0 0 0
1449 2 1.230500000000001 27.706750743275496 8.819034235958247 0 0 0
1451 2 2.4610000000000003 25.575462224561992 8.819034235958247 0 0 0
1147 2 3.6914999999999996 24.865032718324166 5.728022743954543 0 0 0
1163 2 3.6914999999999996 27.706750743275496 5.728022743954543 0 0 0
1165 2 4.922000000000001 26.99632123703766 5.728022743954543 0 0 0
1167 2 4.922000000000001 25.575462224561992 5.728022743954543 0 0 0
1169 2 6.152499999999999 24.865032718324155 5.728022743954543 0 0 0
1193 2 6.152499999999999 27.706750743275496 5.728022743954543 0 0 0
1452 2 3.691499999999999 26.285891730799833 8.819034235958247 0 0 0
1460 2 3.6914999999999996 27.706750743275496 8.819034235958247 0 0 0
1462 2 4.922000000000001 25.575462224561992 8.819034235958247 0 0 0
1475 2 6.152499999999999 27.706750743275496 8.819034235958247 0 0 0
1139 2 1.2304999999999993 29.127609755751163 5.728022743954543 0 0 0
1443 2 0 28.417180249513333 8.819034235958247 0 0 0
1450 2 2.4610000000000003 28.417180249513326 8.819034235958247 0 0 0
1161 2 3.691499999999999 29.127609755751152 5.728022743954543 0 0 0
1191 2 6.152499999999998 29.127609755751152 5.728022743954543 0 0 0
1461 2 4.922000000000001 28.417180249513336 8.819034235958247 0 0 0
3904 1 4.423085172794947 21.28628502590186 11.684783254768709 -4 -1 0
34 1 2.978724696537135 23.70092298000607 11.042625553998832 1 1 0
2060 1 0.9937199403368604 29.16294822082081 11.495493098705664 -1 3 1
1814 1 3.66195525534283 28.320919410205914 11.404539334627245 1 -1 1
2916 1 4.787174205155136 25.72859839168752 11.62298456115112 0 -1 0
2879 1 0.18618801375121577 23.90881435133857 11.634900137701557 3 1 -1
3830 1 3.63926190845542 22.003299240571373 16.315014674147736 3 2 0
3050 1 5.102856540824882 20.629347717435838 14.50622482152147 3 3 0
2909 1 2.8008515240634617 24.17226807290094 15.535980327798637 -2 1 1
812 1 1.373267468829345 20.28373118460853 16.275638050305737 -2 2 -1
1864 1 2.2708970437184552 25.365855033675846 17.949290417749925 0 3 0
3951 1 3.329479542025417 28.383653824656875 15.075825109872365 1 0 -1
929 1 0.6140020315004235 21.801784770844762 22.678583450033205 -1 1 0
2823 1 3.870753311292748 28.700755203215603 18.086116737061726 1 1 -1
2972 1 0.7870910774864398 28.648643078871885 14.3810137051188 2 0 0
950 1 4.461966399464106 22.966499285834196 18.74019674935845 2 0 0
902 1 4.70821199414041 26.05865013360048 14.552007538278831 1 1 -1
2864 1 0.569896682863314 28.078287189890656 25.961729108619117 2 -3 0
3826 1 3.33165784121544 20.45060153781204 22.73807418710784 -1 4 -1
2833 1 3.0474049553012805 22.87139411225621 21.20256673556362 -1 -1 0
996 1 1.5304021022717327 26.153810099675344 22.274217488570606 2 1 -1
3972 1 0.4638542502877082 28.530436420355663 21.510068507338453 3 -1 0
2943 1 4.774915889754323 26.263846547576026 18.68629543214421 2 3 1
1101 1 4.294453325684874 25.498824938634367 21.318539966124472 -2 -2 -1
3142 1 1.1266564735392455 29.245944441046017 18.79380210778776 0 -2 -1
1995 1 0.9527683217882139 22.982936698496427 19.062366312366876 -1 4 1
3962 1 5.652005706043385 20.5540808767752 19.246658509116934 -1 -3 0
3088 1 3.91682199091659 20.762368977079316 25.4118982824603 -2 1 0
2042 1 1.2237903903431162 21.191123455838593 25.33652860116698 0 0 -1
3998 1 4.4841788727645975 25.36846837953585 25.815052669871186 -1 -1 0
2021 1 2.0256400734096323 25.97101008805744 24.914423369398207 -1 0 -1
952 1 5.763647157846247 22.854750613867992 25.65210520130125 1 -2 -1
999 1 6.059088402218542 23.166021596915744 22.77327362017688 1 -1 0
1994 1 5.764196364005123 27.535910279093972 24.81979943136639 -1 2 0
3071 1 6.038743724304965 27.936211163317818 21.91388489153609 -1 2 -1
1062 1 0.2656042790066925 23.922206632459396 14.46356832020911 1 2 0
4012 1 0.19571657443162138 23.66082915085229 25.435312827795414 0 2 0
1136 2 0 29.83803926198899 2.6370112519577056 0 0 0
1138 2 1.2304999999999993 30.54846876822683 2.6370112519577056 0 0 0
1158 2 2.4610000000000003 29.83803926198899 2.6370112519577056 0 0 0
1160 2 3.6915000000000004 30.54846876822683 2.6370112519577056 0 0 0
1188 2 4.922000000000001 29.83803926198899 2.6370112519577056 0 0 0
1134 2 0 32.67975728694033 2.6370112519577056 0 0 0
1150 2 0 34.100616299416 2.6370112519577056 0 0 0
1154 2 1.2304999999999993 31.969327780702493 2.6370112519577056 0 0 0
1156 2 2.4610000000000003 32.67975728694034 2.6370112519577056 0 0 0
1180 2 2.4609999999999985 34.100616299416 2.6370112519577056 0 0 0
1184 2 3.6914999999999996 31.969327780702493 2.6370112519577056 0 0 0
1186 2 4.9220000000000015 32.67975728694034 2.6370112519577056 0 0 0
1218 2 4.922000000000001 34.100616299416 2.6370112519577056 0 0 0
1152 2 1.230500000000001 34.81104580565383 2.6370112519577056 0 0 0
1182 2 3.691500000000002 34.81104580565383 2.6370112519577056 0 0 0
1148 2 0 36.94233432436734 2.6370112519577056 0 0 0
1172 2 0 38.36319333684299 2.6370112519577056 0 0 0
1176 2 1.2304999999999993 36.231904818129486 2.6370112519577056 0 0 0
1178 2 2.461000000000002 36.94233432436734 2.6370112519577056 0 0 0
1210 2 2.4610000000000003 38.36319333684299 2.6370112519577056 0 0 0
1214 2 3.6914999999999996 36.231904818129486 2.6370112519577056 0 0 0
1216 2 4.922000000000001 36.942334324367316 2.6370112519577056 0 0 0
1255 2 4.922000000000001 38.36319333684299 2.6370112519577056 0 0 0
1174 2 1.230500000000001 39.07362284308084 2.6370112519577056 0 0 0
1212 2 3.691500000000002 39.07362284308082 2.6370112519577056 0 0 0
1135 2 0 31.258898274464656 5.728022743954543 0 0 0
1137 2 0 29.83803926198899 5.728022743954543 0 0 0
1157 2 2.4609999999999985 31.258898274464656 5.728022743954543 0 0 0
1159 2 2.4610000000000003 29.83803926198899 5.728022743954543 0 0 0
1447 2 0 29.83803926198899 8.819034235958247 0 0 0
1448 2 1.2304999999999993 30.54846876822683 8.819034235958247 0 0 0
1458 2 2.4610000000000003 29.83803926198899 8.819034235958247 0 0 0
1187 2 4.921999999999998 31.258898274464656 5.728022743954543 0 0 0
1189 2 4.922000000000001 29.83803926198899 5.728022743954543 0 0 0
1459 2 3.6915000000000004 30.54846876822683 8.819034235958247 0 0 0
1473 2 4.922000000000001 29.83803926198899 8.819034235958247 0 0 0
1151 2 0 34.100616299416 5.728022743954543 0 0 0
1153 2 1.2304999999999993 33.39018679317816 5.728022743954543 0 0 0
1155 2 1.2304999999999993 31.969327780702493 5.728022743954543 0 0 0
1181 2 2.4609999999999985 34.100616299416 5.728022743954543 0 0 0
1446 2 0 32.67975728694033 8.819034235958247 0 0 0
1454 2 0 34.100616299416 8.819034235958247 0 0 0
1456 2 1.2304999999999993 31.969327780702493 8.819034235958247 0 0 0
1457 2 2.4610000000000003 32.67975728694034 8.819034235958247 0 0 0
1469 2 2.4609999999999985 34.100616299416 8.819034235958247 0 0 0
1183 2 3.691499999999998 33.39018679317816 5.728022743954543 0 0 0
1185 2 3.6914999999999996 31.969327780702493 5.728022743954543 0 0 0
1219 2 4.922000000000001 34.100616299416 5.728022743954543 0 0 0
1221 2 6.152499999999999 33.39018679317816 5.728022743954543 0 0 0
1471 2 3.6914999999999996 31.969327780702493 8.819034235958247 0 0 0
1472 2 4.9220000000000015 32.67975728694034 8.819034235958247 0 0 0
1488 2 4.922000000000001 34.100616299416 8.819034235958247 0 0 0
1455 2 1.230500000000001 34.81104580565383 8.819034235958247 0 0 0
1470 2 3.691500000000002 34.81104580565383 8.819034235958247 0 0 0
1149 2 0 35.52147531189165 5.728022743954543 0 0 0
1173 2 0 38.36319333684299 5.728022743954543 0 0 0
1175 2 1.2304999999999993 37.65276383060515 5.728022743954543 0 0 0
1177 2 1.2304999999999993 36.231904818129486 5.728022743954543 0 0 0
1179 2 2.4609999999999985 35.52147531189166 5.728022743954543 0 0 0
1211 2 2.4610000000000003 38.36319333684299 5.728022743954543 0 0 0
1453 2 0 36.94233432436734 8.819034235958247 0 0 0
1465 2 0 38.36319333684299 8.819034235958247 0 0 0
1467 2 1.2304999999999993 36.231904818129486 8.819034235958247 0 0 0
1468 2 2.461000000000002 36.94233432436734 8.819034235958247 0 0 0
1484 2 2.4610000000000003 38.36319333684299 8.819034235958247 0 0 0
1213 2 3.6914999999999996 37.65276383060515 5.728022743954543 0 0 0
1215 2 3.6914999999999996 36.231904818129486 5.728022743954543 0 0 0
1217 2 4.922000000000001 35.52147531189166 5.728022743954543 0 0 0
1256 2 4.922000000000001 38.36319333684299 5.728022743954543 0 0 0
1258 2 6.152499999999998 37.65276383060515 5.728022743954543 0 0 0
1486 2 3.6914999999999996 36.231904818129486 8.819034235958247 0 0 0
1487 2 4.922000000000001 36.942334324367316 8.819034235958247 0 0 0
1506 2 4.922000000000001 38.36319333684299 8.819034235958247 0 0 0
1466 2 1.230500000000001 39.07362284308084 8.819034235958247 0 0 0
1485 2 3.691500000000002 39.07362284308082 8.819034235958247 0 0 0
2834 1 4.122679713006805 32.85841019764606 11.504384410841544 0 0 0
823 1 1.4969187481718416 33.561453576344185 12.146036507078481 1 -1 -1
2117 1 5.0990164361500785 30.563748260045955 12.532527935699168 0 0 0
1024 1 2.2498144276320713 37.65395236665604 11.816155339081204 1 -1 0
804 1 5.776174565442347 35.03925308973031 11.880893483857626 -4 -3 -1
2018 1 4.868456869892931 37.448512726084374 11.177397371560534 -1 -2 -2
2848 1 0.43810360310126756 35.8184725275865 11.220279797058303 0 0 2
76 1 3.982216521528311 33.09673793261762 15.571769125642081 3 -2 0
2019 1 5.361290227333037 30.457314843939425 15.24562743734207 0 0 0
3871 1 1.2463044858942811 33.425220917312686 14.75319778122015 5 -3 -1
3107 1 3.8212754016800194 33.25887897525178 18.33060760306062 0 -1 0
786 1 4.103782447814928 37.45914425122704 15.519230974388233 1 -1 0
3934 1 1.5543036224243871 38.28330685717708 14.439552126749293 3 -2 0
1823 1 5.570079627054144 35.16323312181253 19.2197603298995 -1 2 0
2871 1 2.8911320314564515 35.0821147959764 25.272353048969382 2 -3 0
2041 1 1.192167150126862 33.68943289761602 18.947283559688927 0 -1 0
1082 1 5.215226155355482 30.941202436829236 18.862499524114465 1 1 0
2024 1 4.99438575079103 30.399571878599122 21.702224713819653 1 -1 -1
2936 1 0.7195598448012595 32.94974699184497 21.720808324193953 0 0 1
2924 1 4.359936247010808 37.54127290939362 18.389546101778272 -3 -2 -1
4061 1 5.537014446072862 35.07023952762135 22.04091429811605 -1 -3 -1
3801 1 1.5825510425688787 37.58401849175495 25.380631855614293 2 -2 0
1934 1 1.492400730863555 37.61271935046058 22.278327435992008 2 1 -1
3040 1 1.7916140633302695 38.16363859594266 19.177642807654788 2 -2 -1
3984 1 2.6096980026895578 34.84807066623799 22.5664716658232 -1 2 -1
1967 1 2.2495915697407938 30.49132608606579 22.661653379038746 1 -4 1
848 1 1.1448599465351261 33.00999261943975 26.134268830128516 -1 0 0
3808 1 2.173449431424307 30.44842217359326 25.390334383996723 0 1 1
3038 1 5.114521558248777 30.054381571449436 25.681616160013093 -2 -2 0
1839 1 5.390812587401763 34.73041467697618 26.030392844391127 1 0 0
3863 1 5.526667722757798 35.20677367970115 14.6603629430321 3 2 0
921 1 0.11179512698538778 36.10055496344993 18.382397175177353 0 2 0
3891 1 0.19805798679799605 36.24452708730434 15.520086099018801 3 2 0
1170 2 0 41.20491136179432 2.6370112519577056 0 0 0
1206 2 1.230500000000001 40.494481855556494 2.6370112519577056 0 0 0
1208 2 2.4610000000000003 41.20491136179432 2.6370112519577056 0 0 0
1251 2 3.6914999999999996 40.494481855556494 2.6370112519577056 0 0 0
1253 2 4.922000000000003 41.20491136179432 2.6370112519577056 0 0 0
1296 2 6.152499999999998 40.494481855556494 2.6370112519577056 0 0 0
1202 2 0 42.62577037427 2.6370112519577056 0 0 0
1204 2 1.2304999999999993 43.33619988050783 2.6370112519577056 0 0 0
1247 2 2.4610000000000003 42.62577037427 2.6370112519577056 0 0 0
1249 2 3.691500000000002 43.33619988050783 2.6370112519577056 0 0 0
1292 2 4.922000000000001 42.62577037426999 2.6370112519577056 0 0 0
1200 2 0 45.46748839922133 2.6370112519577056 0 0 0
1243 2 1.2304999999999993 44.757058892983494 2.6370112519577056 0 0 0
1245 2 2.4610000000000003 45.46748839922133 2.6370112519577056 0 0 0
1288 2 3.6914999999999996 44.757058892983494 2.6370112519577056 0 0 0
1290 2 4.922000000000001 45.46748839922133 2.6370112519577056 0 0 0
1239 2 0 46.888347411697 2.6370112519577056 0 0 0