LAMMPS data file via write_data, version 16 Mar 2018, timestep = 8000000

4055 atoms
2 atom types

0.0000000000000000e+00 4.9219999999999999e+01 xlo xhi
0.0000000000000000e+00 4.9019635930410494e+01 ylo yhi
1.1814382491010136e+00 2.6758561750900252e+01 zlo zhi

Masses

1 18.015
2 12.01

Atoms # atomic

53 2 0.0000000000000000e+00 2.8417180249513345e+00 2.7934265288433018e+00 0 0 0
55 2 0.0000000000000000e+00 0.0000000000000000e+00 2.7934265288433018e+00 0 0 0
57 2 1.2305000000000001e+00 7.1042950623783474e-01 2.7934265288433018e+00 0 0 0
64 2 1.2305000000000001e+00 2.1312885187134998e+00 2.7934265288433018e+00 0 0 0
66 2 2.4610000000000003e+00 2.8417180249513345e+00 2.7934265288433018e+00 0 0 0
68 2 2.4610000000000003e+00 0.0000000000000000e+00 2.7934265288433018e+00 0 0 0
70 2 3.6915000000000004e+00 7.1042950623783474e-01 2.7934265288433018e+00 0 0 0
85 2 3.6914999999999996e+00 2.1312885187134998e+00 2.7934265288433018e+00 0 0 0
87 2 4.9220000000000006e+00 2.8417180249513332e+00 2.7934265288433018e+00 0 0 0
89 2 4.9220000000000006e+00 0.0000000000000000e+00 2.7934265288433018e+00 0 0 0
60 2 0.0000000000000000e+00 4.2625770374269996e+00 2.7934265288433018e+00 0 0 0
81 2 2.4610000000000003e+00 4.2625770374269996e+00 2.7934265288433018e+00 0 0 0
110 2 4.9220000000000006e+00 4.2625770374269978e+00 2.7934265288433018e+00 0 0 0
62 2 1.2305000000000001e+00 4.9730065436648339e+00 2.7934265288433018e+00 0 0 0
77 2 1.2305000000000001e+00 6.3938655561404980e+00 2.7934265288433018e+00 0 0 0
83 2 3.6914999999999996e+00 4.9730065436648339e+00 2.7934265288433018e+00 0 0 0
106 2 3.6914999999999996e+00 6.3938655561404980e+00 2.7934265288433018e+00 0 0 0
58 2 0.0000000000000000e+00 7.1042950623783341e+00 2.7934265288433018e+00 0 0 0
73 2 0.0000000000000000e+00 8.5251540748539991e+00 2.7934265288433018e+00 0 0 0
75 2 1.2305000000000001e+00 9.2355835810918343e+00 2.7934265288433018e+00 0 0 0
79 2 2.4610000000000003e+00 7.1042950623783341e+00 2.7934265288433018e+00 0 0 0
102 2 2.4610000000000003e+00 8.5251540748539991e+00 2.7934265288433018e+00 0 0 0
104 2 3.6915000000000004e+00 9.2355835810918343e+00 2.7934265288433018e+00 0 0 0
108 2 4.9220000000000006e+00 7.1042950623783341e+00 2.7934265288433018e+00 0 0 0
139 2 4.9220000000000006e+00 8.5251540748539991e+00 2.7934265288433018e+00 0 0 0
54 2 0.0000000000000000e+00 1.4208590124756650e+00 5.8428227236116275e+00 0 0 0
56 2 0.0000000000000000e+00 0.0000000000000000e+00 5.8428227236116275e+00 0 0 0
65 2 1.2305000000000001e+00 2.1312885187134998e+00 5.8428227236116275e+00 0 0 0
67 2 2.4610000000000003e+00 1.4208590124756650e+00 5.8428227236116275e+00 0 0 0
69 2 2.4610000000000003e+00 0.0000000000000000e+00 5.8428227236116275e+00 0 0 0
86 2 3.6914999999999996e+00 2.1312885187134998e+00 5.8428227236116275e+00 0 0 0
382 2 0.0000000000000000e+00 2.8417180249513345e+00 8.8922189183762299e+00 0 0 0
383 2 0.0000000000000000e+00 0.0000000000000000e+00 8.8922189183762299e+00 0 0 0
384 2 1.2305000000000001e+00 7.1042950623783474e-01 8.8922189183762299e+00 0 0 0
388 2 1.2305000000000001e+00 2.1312885187134998e+00 8.8922189183762299e+00 0 0 0
389 2 2.4610000000000003e+00 2.8417180249513345e+00 8.8922189183762299e+00 0 0 0
390 2 2.4610000000000003e+00 0.0000000000000000e+00 8.8922189183762299e+00 0 0 0
391 2 3.6915000000000004e+00 7.1042950623783474e-01 8.8922189183762299e+00 0 0 0
399 2 3.6914999999999996e+00 2.1312885187134998e+00 8.8922189183762299e+00 0 0 0
88 2 4.9220000000000006e+00 1.4208590124756650e+00 5.8428227236116275e+00 0 0 0
90 2 4.9220000000000006e+00 0.0000000000000000e+00 5.8428227236116275e+00 0 0 0
400 2 4.9220000000000006e+00 2.8417180249513332e+00 8.8922189183762299e+00 0 0 0
401 2 4.9220000000000006e+00 0.0000000000000000e+00 8.8922189183762299e+00 0 0 0
61 2 0.0000000000000000e+00 4.2625770374269996e+00 5.8428227236116275e+00 0 0 0
63 2 1.2305000000000001e+00 3.5521475311891644e+00 5.8428227236116275e+00 0 0 0
82 2 2.4610000000000003e+00 4.2625770374269996e+00 5.8428227236116275e+00 0 0 0
84 2 3.6914999999999996e+00 3.5521475311891644e+00 5.8428227236116275e+00 0 0 0
386 2 0.0000000000000000e+00 4.2625770374269996e+00 8.8922189183762299e+00 0 0 0
397 2 2.4610000000000003e+00 4.2625770374269996e+00 8.8922189183762299e+00 0 0 0
111 2 4.9220000000000006e+00 4.2625770374269978e+00 5.8428227236116275e+00 0 0 0
412 2 4.9220000000000006e+00 4.2625770374269978e+00 8.8922189183762299e+00 0 0 0
59 2 0.0000000000000000e+00 5.6834360499026637e+00 5.8428227236116275e+00 0 0 0
78 2 1.2305000000000001e+00 6.3938655561404980e+00 5.8428227236116275e+00 0 0 0
80 2 2.4610000000000003e+00 5.6834360499026637e+00 5.8428227236116275e+00 0 0 0
107 2 3.6914999999999996e+00 6.3938655561404980e+00 5.8428227236116275e+00 0 0 0
387 2 1.2305000000000001e+00 4.9730065436648339e+00 8.8922189183762299e+00 0 0 0
395 2 1.2305000000000001e+00 6.3938655561404980e+00 8.8922189183762299e+00 0 0 0
398 2 3.6914999999999996e+00 4.9730065436648339e+00 8.8922189183762299e+00 0 0 0
410 2 3.6914999999999996e+00 6.3938655561404980e+00 8.8922189183762299e+00 0 0 0
109 2 4.9220000000000006e+00 5.6834360499026637e+00 5.8428227236116275e+00 0 0 0
74 2 0.0000000000000000e+00 8.5251540748539991e+00 5.8428227236116275e+00 0 0 0
76 2 1.2305000000000001e+00 7.8147245686161639e+00 5.8428227236116275e+00 0 0 0
103 2 2.4610000000000003e+00 8.5251540748539991e+00 5.8428227236116275e+00 0 0 0
105 2 3.6914999999999996e+00 7.8147245686161639e+00 5.8428227236116275e+00 0 0 0
385 2 0.0000000000000000e+00 7.1042950623783341e+00 8.8922189183762299e+00 0 0 0
393 2 0.0000000000000000e+00 8.5251540748539991e+00 8.8922189183762299e+00 0 0 0
394 2 1.2305000000000001e+00 9.2355835810918343e+00 8.8922189183762299e+00 0 0 0
396 2 2.4610000000000003e+00 7.1042950623783341e+00 8.8922189183762299e+00 0 0 0
408 2 2.4610000000000003e+00 8.5251540748539991e+00 8.8922189183762299e+00 0 0 0
409 2 3.6915000000000004e+00 9.2355835810918343e+00 8.8922189183762299e+00 0 0 0
140 2 4.9220000000000006e+00 8.5251540748539991e+00 5.8428227236116275e+00 0 0 0
411 2 4.9220000000000006e+00 7.1042950623783341e+00 8.8922189183762299e+00 0 0 0
427 2 4.9220000000000006e+00 8.5251540748539991e+00 8.8922189183762299e+00 0 0 0
2562 1 3.0884764156920728e+00 1.2415418934581830e+00 1.1542639841137218e+01 0 -1 -1
2573 1 3.4843468025950712e+00 3.8801141265614247e+00 1.2209176088329983e+01 0 1 -1
2623 1 3.6859324038271652e+00 9.1527742350210488e+00 1.1146810527499685e+01 1 1 0
1293 1 1.3956125981636811e+00 5.3187981060342873e+00 1.1250971371024846e+01 1 0 0
3285 1 1.5167225960233168e+00 8.0072679609944544e+00 1.2045839593250548e+01 1 0 -1
1242 1 5.9275937847284998e+00 7.5650832896191167e+00 1.2038481639581748e+01 0 1 0
547 1 5.9366015069136591e+00 4.6965756996318913e+00 1.1739216409140470e+01 1 1 0
1384 1 6.6899642089569700e-01 2.4596295764375498e-02 1.1800077725732498e+01 1 1 -1
733 1 2.9380906233365613e+00 7.9961317456416692e-01 1.5279671921748427e+01 0 0 0
1406 1 3.6199194848462248e+00 3.5016616698528646e+00 1.4878878279253701e+01 0 0 0
3942 1 1.3981989138364761e+00 5.6755884968465935e+00 2.5770052861308990e+01 0 0 0
2052 1 3.0339247559876510e+00 1.1369919617863218e+00 1.8340675290454435e+01 0 0 0
1344 1 3.9340141388489589e+00 7.1088812591044519e+00 2.5960679431385152e+01 0 0 0
3387 1 1.2301549206100568e+00 5.3130154131260223e+00 1.5841857770042731e+01 1 0 -1
2051 1 1.3355875950235097e+00 7.7877196111040448e+00 1.4628681553646169e+01 1 2 -1
768 1 3.6576689039455905e+00 9.1634549691978595e+00 1.5718157457879959e+01 0 0 0
682 1 4.0584246455031820e+00 9.2373450690410781e+00 1.8411600532786807e+01 1 0 -1
2683 1 1.3454276929325588e+00 5.3883484500909073e+00 1.8640300331416103e+01 1 2 0
1937 1 1.0358141615281342e+00 2.7203819364172026e+00 1.9358992052690326e+01 1 0 0
4055 1 1.1450159028932319e+00 2.9682039483420977e+00 2.2035108852878235e+01 1 1 -1
20 1 5.6979249176086935e+00 2.6882240552441199e+00 2.1794146120735238e+01 0 0 -1
3972 1 6.0273981051147620e+00 5.0538659720487678e+00 1.5499255270280063e+01 1 0 -1
2749 1 4.1967192739464183e+00 9.6141761552354907e+00 2.5342806764977325e+01 1 0 0
2728 1 3.5317248827824792e+00 6.7402334859676492e+00 2.1783613463703855e+01 1 0 0
724 1 3.7480884709440794e+00 6.6082395516655259e+00 1.9103847134296529e+01 0 0 0
1352 1 5.9890064573554405e+00 7.9262750882905593e+00 1.4869881320008695e+01 0 0 0
3280 1 3.4021783993599275e+00 1.2239582936431459e+00 2.2749877198236153e+01 0 -1 0
2706 1 3.5089606819871646e+00 1.2888400818121160e+00 2.5531514086801241e+01 1 1 -1
3369 1 1.2789779667836809e+00 3.0803635911308231e+00 2.5505161180665393e+01 1 0 -1
2034 1 1.4878571874041446e+00 5.4636571676178525e+00 2.2819996975892177e+01 1 0 1
2703 1 4.0500696683732018e+00 9.4772930533260364e+00 2.2778309535278485e+01 0 0 -1
2002 1 5.5507817080031341e+00 2.3889840079684408e+00 1.9017648450908190e+01 0 1 0
3391 1 5.9393766731242383e+00 5.0513339317640327e+00 1.8203097893619603e+01 0 1 0
1958 1 5.7988008545527281e+00 2.4374540972259058e+00 2.6060672495083743e+01 0 0 -1
616 1 5.9634564753629862e+00 5.2116262156501101e+00 2.2784103116888684e+01 1 1 0
71 2 0.0000000000000000e+00 1.1366872099805333e+01 2.7934265288433018e+00 0 0 0
94 2 0.0000000000000000e+00 1.2787731112280996e+01 2.7934265288433018e+00 0 0 0
96 2 1.2305000000000001e+00 1.3498160618518829e+01 2.7934265288433018e+00 0 0 0
98 2 1.2305000000000001e+00 1.0656442593567498e+01 2.7934265288433018e+00 0 0 0
100 2 2.4610000000000003e+00 1.1366872099805333e+01 2.7934265288433018e+00 0 0 0
131 2 2.4610000000000003e+00 1.2787731112280996e+01 2.7934265288433018e+00 0 0 0
133 2 3.6915000000000004e+00 1.3498160618518829e+01 2.7934265288433018e+00 0 0 0
135 2 3.6914999999999996e+00 1.0656442593567499e+01 2.7934265288433018e+00 0 0 0
137 2 4.9220000000000006e+00 1.1366872099805333e+01 2.7934265288433018e+00 0 0 0
176 2 4.9220000000000006e+00 1.2787731112280996e+01 2.7934265288433018e+00 0 0 0
178 2 6.1524999999999990e+00 1.3498160618518829e+01 2.7934265288433018e+00 0 0 0
92 2 0.0000000000000000e+00 1.5629449137232333e+01 2.7934265288433018e+00 0 0 0
123 2 0.0000000000000000e+00 1.7050308149707998e+01 2.7934265288433018e+00 0 0 0
127 2 1.2305000000000001e+00 1.4919019630994494e+01 2.7934265288433018e+00 0 0 0
129 2 2.4610000000000003e+00 1.5629449137232328e+01 2.7934265288433018e+00 0 0 0
168 2 2.4610000000000003e+00 1.7050308149707998e+01 2.7934265288433018e+00 0 0 0
172 2 3.6915000000000004e+00 1.4919019630994494e+01 2.7934265288433018e+00 0 0 0
174 2 4.9220000000000006e+00 1.5629449137232333e+01 2.7934265288433018e+00 0 0 0
215 2 4.9220000000000006e+00 1.7050308149707998e+01 2.7934265288433018e+00 0 0 0
219 2 6.1524999999999990e+00 1.4919019630994494e+01 2.7934265288433018e+00 0 0 0
125 2 1.2305000000000001e+00 1.7760737655945832e+01 2.7934265288433018e+00 0 0 0
164 2 1.2305000000000001e+00 1.9181596668421495e+01 2.7934265288433018e+00 0 0 0
170 2 3.6914999999999996e+00 1.7760737655945832e+01 2.7934265288433018e+00 0 0 0
211 2 3.6914999999999996e+00 1.9181596668421495e+01 2.7934265288433018e+00 0 0 0
72 2 0.0000000000000000e+00 9.9460130873296642e+00 5.8428227236116275e+00 0 0 0
101 2 2.4610000000000003e+00 9.9460130873296642e+00 5.8428227236116275e+00 0 0 0
138 2 4.9220000000000006e+00 9.9460130873296642e+00 5.8428227236116275e+00 0 0 0
95 2 0.0000000000000000e+00 1.2787731112280996e+01 5.8428227236116275e+00 0 0 0
97 2 1.2305000000000001e+00 1.2077301606043163e+01 5.8428227236116275e+00 0 0 0
99 2 1.2305000000000001e+00 1.0656442593567498e+01 5.8428227236116275e+00 0 0 0
132 2 2.4610000000000003e+00 1.2787731112280996e+01 5.8428227236116275e+00 0 0 0
134 2 3.6914999999999996e+00 1.2077301606043163e+01 5.8428227236116275e+00 0 0 0
136 2 3.6914999999999996e+00 1.0656442593567499e+01 5.8428227236116275e+00 0 0 0
392 2 0.0000000000000000e+00 1.1366872099805333e+01 8.8922189183762299e+00 0 0 0
404 2 0.0000000000000000e+00 1.2787731112280996e+01 8.8922189183762299e+00 0 0 0
405 2 1.2305000000000001e+00 1.3498160618518829e+01 8.8922189183762299e+00 0 0 0
406 2 1.2305000000000001e+00 1.0656442593567498e+01 8.8922189183762299e+00 0 0 0
407 2 2.4610000000000003e+00 1.1366872099805333e+01 8.8922189183762299e+00 0 0 0
423 2 2.4610000000000003e+00 1.2787731112280996e+01 8.8922189183762299e+00 0 0 0
424 2 3.6915000000000004e+00 1.3498160618518829e+01 8.8922189183762299e+00 0 0 0
425 2 3.6914999999999996e+00 1.0656442593567499e+01 8.8922189183762299e+00 0 0 0
177 2 4.9220000000000006e+00 1.2787731112280996e+01 5.8428227236116275e+00 0 0 0
426 2 4.9220000000000006e+00 1.1366872099805333e+01 8.8922189183762299e+00 0 0 0
446 2 4.9220000000000006e+00 1.2787731112280996e+01 8.8922189183762299e+00 0 0 0
447 2 6.1524999999999990e+00 1.3498160618518829e+01 8.8922189183762299e+00 0 0 0
93 2 0.0000000000000000e+00 1.4208590124756663e+01 5.8428227236116275e+00 0 0 0
130 2 2.4610000000000003e+00 1.4208590124756663e+01 5.8428227236116275e+00 0 0 0
175 2 4.9220000000000006e+00 1.4208590124756663e+01 5.8428227236116275e+00 0 0 0
124 2 0.0000000000000000e+00 1.7050308149707998e+01 5.8428227236116275e+00 0 0 0
126 2 1.2305000000000001e+00 1.6339878643470165e+01 5.8428227236116275e+00 0 0 0
128 2 1.2305000000000001e+00 1.4919019630994494e+01 5.8428227236116275e+00 0 0 0
169 2 2.4610000000000003e+00 1.7050308149707998e+01 5.8428227236116275e+00 0 0 0
171 2 3.6915000000000004e+00 1.6339878643470165e+01 5.8428227236116275e+00 0 0 0
173 2 3.6915000000000004e+00 1.4919019630994494e+01 5.8428227236116275e+00 0 0 0
403 2 0.0000000000000000e+00 1.5629449137232333e+01 8.8922189183762299e+00 0 0 0
419 2 0.0000000000000000e+00 1.7050308149707998e+01 8.8922189183762299e+00 0 0 0
421 2 1.2305000000000001e+00 1.4919019630994494e+01 8.8922189183762299e+00 0 0 0
422 2 2.4610000000000003e+00 1.5629449137232328e+01 8.8922189183762299e+00 0 0 0
442 2 2.4610000000000003e+00 1.7050308149707998e+01 8.8922189183762299e+00 0 0 0
444 2 3.6915000000000004e+00 1.4919019630994494e+01 8.8922189183762299e+00 0 0 0
216 2 4.9220000000000006e+00 1.7050308149707998e+01 5.8428227236116275e+00 0 0 0
220 2 6.1524999999999990e+00 1.4919019630994494e+01 5.8428227236116275e+00 0 0 0
445 2 4.9220000000000006e+00 1.5629449137232333e+01 8.8922189183762299e+00 0 0 0
466 2 4.9220000000000006e+00 1.7050308149707998e+01 8.8922189183762299e+00 0 0 0
468 2 6.1524999999999990e+00 1.4919019630994494e+01 8.8922189183762299e+00 0 0 0
122 2 0.0000000000000000e+00 1.8471167162183658e+01 5.8428227236116275e+00 0 0 0
165 2 1.2305000000000001e+00 1.9181596668421495e+01 5.8428227236116275e+00 0 0 0
167 2 2.4610000000000003e+00 1.8471167162183658e+01 5.8428227236116275e+00 0 0 0
212 2 3.6914999999999996e+00 1.9181596668421495e+01 5.8428227236116275e+00 0 0 0
420 2 1.2305000000000001e+00 1.7760737655945832e+01 8.8922189183762299e+00 0 0 0
440 2 1.2305000000000001e+00 1.9181596668421495e+01 8.8922189183762299e+00 0 0 0
443 2 3.6914999999999996e+00 1.7760737655945832e+01 8.8922189183762299e+00 0 0 0
464 2 3.6914999999999996e+00 1.9181596668421495e+01 8.8922189183762299e+00 0 0 0
214 2 4.9220000000000006e+00 1.8471167162183658e+01 5.8428227236116275e+00 0 0 0
1973 1 1.9600523578321027e+00 1.3386539998846024e+01 1.1355768643678577e+01 0 0 -1
3361 1 3.9742405845491704e+00 1.1796701191806875e+01 1.1895040545521310e+01 0 0 1
1337 1 2.2723029329942936e+00 1.6260579710505244e+01 1.1845697921019987e+01 1 0 0
3417 1 4.7660347924581510e+00 1.7177275474147383e+01 1.1455371234041463e+01 1 -1 0
3923 1 2.2523824346784238e-02 1.8133474159941574e+01 1.1642773462492547e+01 1 1 0
593 1 1.9884288430080250e+00 1.3400254647537675e+01 1.5488694664361832e+01 0 0 0
33 1 4.0974643060610880e+00 1.1741589044053075e+01 1.4610433305278239e+01 2 0 0
2713 1 4.7778293010076558e+00 1.6877004284468537e+01 1.5021324272607773e+01 0 1 0
2587 1 2.2145545027937708e+00 1.6203416038353851e+01 1.4630735238060478e+01 0 1 -1
1302 1 4.9427907897295471e+00 1.6311845614051762e+01 1.7948720539438483e+01 1 0 -1
730 1 5.3058572461042965e+00 1.9303168927698263e+01 1.4191523127852570e+01 1 0 1
2043 1 2.0255330682347150e+00 1.3864760138709300e+01 2.5430161719582241e+01 0 0 -1
3963 1 2.6054832089666560e+00 1.8697865930300921e+01 2.5691772158043388e+01 0 1 -1
3425 1 2.1438632979222079e+00 1.3395693376563395e+01 1.8143676186998270e+01 1 0 -1
752 1 1.7197213930907840e+00 1.0755883299200152e+01 1.9164637276313623e+01 1 0 0
3895 1 4.8354916207497567e+00 1.3724252197020427e+01 1.9164600228217317e+01 1 0 1
3412 1 1.4811227937766678e+00 1.0865482249010231e+01 2.2078244145806604e+01 0 0 0
1957 1 4.5376517255919175e+00 1.4178579978694016e+01 2.1967720954654190e+01 0 0 1
1938 1 2.7683081002183934e+00 1.7896875820090848e+01 1.8886583154045898e+01 0 0 0
1446 1 4.6130585900079408e+00 1.7022240157208550e+01 2.2540828925408729e+01 0 0 0
3370 1 2.5515768616389938e+00 1.8774294054038425e+01 2.1582800232412104e+01 0 0 -1
551 1 5.1438253295732155e+00 1.7476287173330750e+01 2.5526367047449668e+01 1 0 0
1270 1 1.9484353904698439e+00 1.1153043811131329e+01 2.5332888366605719e+01 0 1 0
1238 1 4.6697885903821339e+00 1.4711642215084794e+01 2.5217870394727058e+01 0 0 0
1370 1 1.8792115555541948e+00 1.3583379971842247e+01 2.2655916608978362e+01 0 0 -1
698 1 2.3453531335370315e-01 1.7589816449894013e+01 2.2528281090381757e+01 1 0 -1
121 2 0.0000000000000000e+00 1.9892026174659328e+01 2.7934265288433018e+00 0 0 0
166 2 2.4610000000000003e+00 1.9892026174659328e+01 2.7934265288433018e+00 0 0 0
213 2 4.9220000000000006e+00 1.9892026174659328e+01 2.7934265288433018e+00 0 0 0
158 2 0.0000000000000000e+00 2.4154603212086325e+01 2.7934265288433018e+00 0 0 0
160 2 0.0000000000000000e+00 2.1312885187134999e+01 2.7934265288433018e+00 0 0 0
162 2 1.2304999999999993e+00 2.2023314693372832e+01 2.7934265288433018e+00 0 0 0
203 2 1.2304999999999993e+00 2.3444173705848499e+01 2.7934265288433018e+00 0 0 0
205 2 2.4610000000000003e+00 2.4154603212086325e+01 2.7934265288433018e+00 0 0 0
207 2 2.4610000000000003e+00 2.1312885187134995e+01 2.7934265288433018e+00 0 0 0
209 2 3.6914999999999996e+00 2.2023314693372832e+01 2.7934265288433018e+00 0 0 0
250 2 3.6915000000000004e+00 2.3444173705848499e+01 2.7934265288433018e+00 0 0 0
252 2 4.9220000000000006e+00 2.4154603212086325e+01 2.7934265288433018e+00 0 0 0
254 2 4.9220000000000006e+00 2.1312885187134995e+01 2.7934265288433018e+00 0 0 0
256 2 6.1524999999999990e+00 2.2023314693372832e+01 2.7934265288433018e+00 0 0 0
774 2 0.0000000000000000e+00 2.5575462224561992e+01 2.7934265288433018e+00 0 0 0
776 2 1.2305000000000001e+00 2.6285891730799833e+01 2.7934265288433018e+00 0 0 0
784 2 1.2305000000000010e+00 2.7706750743275496e+01 2.7934265288433018e+00 0 0 0
788 2 2.4610000000000003e+00 2.5575462224561992e+01 2.7934265288433018e+00 0 0 0
790 2 3.6914999999999991e+00 2.6285891730799833e+01 2.7934265288433018e+00 0 0 0
806 2 3.6914999999999996e+00 2.7706750743275496e+01 2.7934265288433018e+00 0 0 0
810 2 4.9220000000000006e+00 2.5575462224561992e+01 2.7934265288433018e+00 0 0 0
836 2 6.1524999999999990e+00 2.7706750743275496e+01 2.7934265288433018e+00 0 0 0
772 2 0.0000000000000000e+00 2.8417180249513333e+01 2.7934265288433018e+00 0 0 0
786 2 2.4610000000000003e+00 2.8417180249513326e+01 2.7934265288433018e+00 0 0 0
808 2 4.9220000000000006e+00 2.8417180249513336e+01 2.7934265288433018e+00 0 0 0
163 2 1.2305000000000001e+00 2.0602455680897162e+01 5.8428227236116275e+00 0 0 0
210 2 3.6915000000000004e+00 2.0602455680897162e+01 5.8428227236116275e+00 0 0 0
418 2 0.0000000000000000e+00 1.9892026174659328e+01 8.8922189183762299e+00 0 0 0
441 2 2.4610000000000003e+00 1.9892026174659328e+01 8.8922189183762299e+00 0 0 0
465 2 4.9220000000000006e+00 1.9892026174659328e+01 8.8922189183762299e+00 0 0 0
159 2 0.0000000000000000e+00 2.2733744199610655e+01 5.8428227236116275e+00 0 0 0
161 2 0.0000000000000000e+00 2.1312885187134999e+01 5.8428227236116275e+00 0 0 0
204 2 1.2304999999999993e+00 2.3444173705848499e+01 5.8428227236116275e+00 0 0 0
206 2 2.4610000000000003e+00 2.2733744199610655e+01 5.8428227236116275e+00 0 0 0
208 2 2.4610000000000003e+00 2.1312885187134995e+01 5.8428227236116275e+00 0 0 0
251 2 3.6915000000000004e+00 2.3444173705848499e+01 5.8428227236116275e+00 0 0 0
437 2 0.0000000000000000e+00 2.4154603212086325e+01 8.8922189183762299e+00 0 0 0
438 2 0.0000000000000000e+00 2.1312885187134999e+01 8.8922189183762299e+00 0 0 0
439 2 1.2304999999999993e+00 2.2023314693372832e+01 8.8922189183762299e+00 0 0 0
460 2 1.2304999999999993e+00 2.3444173705848499e+01 8.8922189183762299e+00 0 0 0
461 2 2.4610000000000003e+00 2.4154603212086325e+01 8.8922189183762299e+00 0 0 0
462 2 2.4610000000000003e+00 2.1312885187134995e+01 8.8922189183762299e+00 0 0 0
463 2 3.6914999999999996e+00 2.2023314693372832e+01 8.8922189183762299e+00 0 0 0
484 2 3.6915000000000004e+00 2.3444173705848499e+01 8.8922189183762299e+00 0 0 0
253 2 4.9220000000000006e+00 2.2733744199610655e+01 5.8428227236116275e+00 0 0 0
255 2 4.9220000000000006e+00 2.1312885187134995e+01 5.8428227236116275e+00 0 0 0
485 2 4.9220000000000006e+00 2.4154603212086325e+01 8.8922189183762299e+00 0 0 0
486 2 4.9220000000000006e+00 2.1312885187134995e+01 8.8922189183762299e+00 0 0 0
487 2 6.1524999999999990e+00 2.2023314693372832e+01 8.8922189183762299e+00 0 0 0
773 2 0.0000000000000000e+00 2.6996321237037659e+01 5.8428227236116275e+00 0 0 0
775 2 0.0000000000000000e+00 2.5575462224561992e+01 5.8428227236116275e+00 0 0 0
777 2 1.2305000000000001e+00 2.4865032718324155e+01 5.8428227236116275e+00 0 0 0
785 2 1.2305000000000010e+00 2.7706750743275496e+01 5.8428227236116275e+00 0 0 0
787 2 2.4610000000000003e+00 2.6996321237037659e+01 5.8428227236116275e+00 0 0 0
789 2 2.4610000000000003e+00 2.5575462224561992e+01 5.8428227236116275e+00 0 0 0
791 2 3.6914999999999996e+00 2.4865032718324166e+01 5.8428227236116275e+00 0 0 0
807 2 3.6914999999999996e+00 2.7706750743275496e+01 5.8428227236116275e+00 0 0 0
1088 2 0.0000000000000000e+00 2.5575462224561992e+01 8.8922189183762299e+00 0 0 0
1089 2 1.2305000000000001e+00 2.6285891730799833e+01 8.8922189183762299e+00 0 0 0
1093 2 1.2305000000000010e+00 2.7706750743275496e+01 8.8922189183762299e+00 0 0 0
1095 2 2.4610000000000003e+00 2.5575462224561992e+01 8.8922189183762299e+00 0 0 0
1096 2 3.6914999999999991e+00 2.6285891730799833e+01 8.8922189183762299e+00 0 0 0
1104 2 3.6914999999999996e+00 2.7706750743275496e+01 8.8922189183762299e+00 0 0 0
809 2 4.9220000000000006e+00 2.6996321237037659e+01 5.8428227236116275e+00 0 0 0
811 2 4.9220000000000006e+00 2.5575462224561992e+01 5.8428227236116275e+00 0 0 0
813 2 6.1524999999999990e+00 2.4865032718324155e+01 5.8428227236116275e+00 0 0 0
837 2 6.1524999999999990e+00 2.7706750743275496e+01 5.8428227236116275e+00 0 0 0
1106 2 4.9220000000000006e+00 2.5575462224561992e+01 8.8922189183762299e+00 0 0 0
1119 2 6.1524999999999990e+00 2.7706750743275496e+01 8.8922189183762299e+00 0 0 0
783 2 1.2304999999999993e+00 2.9127609755751163e+01 5.8428227236116275e+00 0 0 0
805 2 3.6914999999999991e+00 2.9127609755751152e+01 5.8428227236116275e+00 0 0 0
1087 2 0.0000000000000000e+00 2.8417180249513333e+01 8.8922189183762299e+00 0 0 0
1094 2 2.4610000000000003e+00 2.8417180249513326e+01 8.8922189183762299e+00 0 0 0
835 2 6.1524999999999981e+00 2.9127609755751152e+01 5.8428227236116275e+00 0 0 0
1105 2 4.9220000000000006e+00 2.8417180249513336e+01 8.8922189183762299e+00 0 0 0
2008 1 3.1389659769083713e+00 2.1675582152264777e+01 1.1605538479295634e+01 0 -1 0
2628 1 5.6968654607850377e-01 2.0704538808114545e+01 1.2285060697658148e+01 1 0 -1
2632 1 5.2989377812207090e+00 1.9852838433735485e+01 1.1430550853329258e+01 0 -1 -1
1999 1 3.8727283459862201e+00 2.4301665025942711e+01 1.2298133277906443e+01 0 0 -1
2712 1 1.8497460308643596e+00 2.8525703784685916e+01 1.2333711661717297e+01 1 0 0
2748 1 1.7933404280632783e+00 2.5815135011812558e+01 1.1232801375204058e+01 1 0 0
728 1 3.4878595669626975e+00 2.0364513764042467e+01 1.7754852677931051e+01 0 1 1
2732 1 3.3016488748297839e+00 2.1339534418374029e+01 1.5135689428738894e+01 0 0 0
1927 1 3.2183314837775812e+00 2.2336593085994988e+01 1.9583503501149682e+01 0 -1 0
5 1 3.1720810815871774e+00 2.4461058619146073e+01 1.4997798821566116e+01 1 0 0
687 1 5.9579379191067057e+00 2.8610321898074083e+01 1.5121290568100150e+01 1 -1 0
1300 1 1.3446455311293732e+00 2.8693445690495288e+01 1.5063571503178515e+01 0 1 -1
4024 1 9.0541940857468761e-01 2.5668399893700350e+01 1.5999665044695782e+01 0 1 1
27 1 5.5770741496870819e+00 2.5616597972026405e+01 1.5640651548979076e+01 1 -1 0
3289 1 5.6119980702596912e+00 2.6023599626222094e+01 1.8407014835073252e+01 0 -1 0
717 1 7.9241719528548804e-01 2.3388290123271183e+01 1.9357112343161656e+01 0 0 0
664 1 7.1719573722130769e-01 2.3155527262035857e+01 2.2204735575566030e+01 1 0 -1
1298 1 5.4092013324120005e+00 2.3360332155423350e+01 2.2620262546445428e+01 0 0 1
2590 1 9.4657742767350117e-01 2.6098609234717827e+01 2.2871405445784266e+01 1 0 -1
3403 1 1.0851035874059747e+00 2.6280435125678459e+01 2.5493408092252185e+01 1 0 -1
3933 1 1.0264483059752232e+00 2.5977754947338784e+01 1.8856621124163439e+01 1 0 1
3377 1 3.5193268545050262e+00 2.7330983998723106e+01 1.9475791168352682e+01 0 0 0
3404 1 3.1478621111168215e+00 2.7575492239918805e+01 2.2299508807590637e+01 1 0 0
561 1 6.8769537980859674e-01 2.0457658917988169e+01 1.4758088129230723e+01 0 0 -1
3977 1 3.0780906937857044e+00 2.1565566205607045e+01 2.2326378214980238e+01 0 0 -1
620 1 5.3107931569624869e+00 2.3272213508548951e+01 2.5718104846198038e+01 0 0 0
1997 1 3.1937845998089229e+00 2.1446362670119331e+01 2.5128383385686188e+01 0 0 0
3915 1 9.3041828484500400e-01 2.3368301731460672e+01 2.5244456856415034e+01 1 0 0
2572 1 3.3323143221173201e+00 2.7665119092834530e+01 2.5724223705994081e+01 0 0 -1
2686 1 5.6586997269715411e+00 2.6244756088537446e+01 2.5534330947655945e+01 0 0 0
550 1 5.5386782848862950e+00 2.3510881980718178e+01 1.9688011115771612e+01 1 0 0
2107 1 5.6121729930411366e+00 2.6218181290848353e+01 2.2801883609175814e+01 1 0 0
780 2 0.0000000000000000e+00 2.9838039261988989e+01 2.7934265288433018e+00 0 0 0
782 2 1.2304999999999993e+00 3.0548468768226829e+01 2.7934265288433018e+00 0 0 0
802 2 2.4610000000000003e+00 2.9838039261988989e+01 2.7934265288433018e+00 0 0 0
804 2 3.6915000000000004e+00 3.0548468768226829e+01 2.7934265288433018e+00 0 0 0
832 2 4.9220000000000006e+00 2.9838039261988989e+01 2.7934265288433018e+00 0 0 0
778 2 0.0000000000000000e+00 3.2679757286940330e+01 2.7934265288433018e+00 0 0 0
794 2 0.0000000000000000e+00 3.4100616299415996e+01 2.7934265288433018e+00 0 0 0
798 2 1.2304999999999993e+00 3.1969327780702493e+01 2.7934265288433018e+00 0 0 0
800 2 2.4610000000000003e+00 3.2679757286940337e+01 2.7934265288433018e+00 0 0 0
824 2 2.4609999999999985e+00 3.4100616299415996e+01 2.7934265288433018e+00 0 0 0
828 2 3.6914999999999996e+00 3.1969327780702493e+01 2.7934265288433018e+00 0 0 0
830 2 4.9220000000000015e+00 3.2679757286940337e+01 2.7934265288433018e+00 0 0 0
862 2 4.9220000000000006e+00 3.4100616299415996e+01 2.7934265288433018e+00 0 0 0
796 2 1.2305000000000010e+00 3.4811045805653833e+01 2.7934265288433018e+00 0 0 0
826 2 3.6915000000000018e+00 3.4811045805653833e+01 2.7934265288433018e+00 0 0 0
792 2 0.0000000000000000e+00 3.6942334324367337e+01 2.7934265288433018e+00 0 0 0
816 2 0.0000000000000000e+00 3.8363193336842990e+01 2.7934265288433018e+00 0 0 0
820 2 1.2304999999999993e+00 3.6231904818129486e+01 2.7934265288433018e+00 0 0 0
822 2 2.4610000000000021e+00 3.6942334324367337e+01 2.7934265288433018e+00 0 0 0
854 2 2.4610000000000003e+00 3.8363193336842990e+01 2.7934265288433018e+00 0 0 0
858 2 3.6914999999999996e+00 3.6231904818129486e+01 2.7934265288433018e+00 0 0 0
860 2 4.9220000000000006e+00 3.6942334324367316e+01 2.7934265288433018e+00 0 0 0
899 2 4.9220000000000006e+00 3.8363193336842990e+01 2.7934265288433018e+00 0 0 0
818 2 1.2305000000000010e+00 3.9073622843080841e+01 2.7934265288433018e+00 0 0 0
856 2 3.6915000000000018e+00 3.9073622843080820e+01 2.7934265288433018e+00 0 0 0
779 2 0.0000000000000000e+00 3.1258898274464656e+01 5.8428227236116275e+00 0 0 0
781 2 0.0000000000000000e+00 2.9838039261988989e+01 5.8428227236116275e+00 0 0 0
801 2 2.4609999999999985e+00 3.1258898274464656e+01 5.8428227236116275e+00 0 0 0
803 2 2.4610000000000003e+00 2.9838039261988989e+01 5.8428227236116275e+00 0 0 0
1091 2 0.0000000000000000e+00 2.9838039261988989e+01 8.8922189183762299e+00 0 0 0
1092 2 1.2304999999999993e+00 3.0548468768226829e+01 8.8922189183762299e+00 0 0 0
1102 2 2.4610000000000003e+00 2.9838039261988989e+01 8.8922189183762299e+00 0 0 0
1103 2 3.6915000000000004e+00 3.0548468768226829e+01 8.8922189183762299e+00 0 0 0
831 2 4.9219999999999979e+00 3.1258898274464656e+01 5.8428227236116275e+00 0 0 0
833 2 4.9220000000000006e+00 2.9838039261988989e+01 5.8428227236116275e+00 0 0 0
1117 2 4.9220000000000006e+00 2.9838039261988989e+01 8.8922189183762299e+00 0 0 0
795 2 0.0000000000000000e+00 3.4100616299415996e+01 5.8428227236116275e+00 0 0 0
797 2 1.2304999999999993e+00 3.3390186793178160e+01 5.8428227236116275e+00 0 0 0
799 2 1.2304999999999993e+00 3.1969327780702493e+01 5.8428227236116275e+00 0 0 0
825 2 2.4609999999999985e+00 3.4100616299415996e+01 5.8428227236116275e+00 0 0 0
827 2 3.6914999999999978e+00 3.3390186793178160e+01 5.8428227236116275e+00 0 0 0
829 2 3.6914999999999996e+00 3.1969327780702493e+01 5.8428227236116275e+00 0 0 0
1090 2 0.0000000000000000e+00 3.2679757286940330e+01 8.8922189183762299e+00 0 0 0
1098 2 0.0000000000000000e+00 3.4100616299415996e+01 8.8922189183762299e+00 0 0 0
1100 2 1.2304999999999993e+00 3.1969327780702493e+01 8.8922189183762299e+00 0 0 0
1101 2 2.4610000000000003e+00 3.2679757286940337e+01 8.8922189183762299e+00 0 0 0
1113 2 2.4609999999999985e+00 3.4100616299415996e+01 8.8922189183762299e+00 0 0 0
1115 2 3.6914999999999996e+00 3.1969327780702493e+01 8.8922189183762299e+00 0 0 0
863 2 4.9220000000000006e+00 3.4100616299415996e+01 5.8428227236116275e+00 0 0 0
865 2 6.1524999999999990e+00 3.3390186793178160e+01 5.8428227236116275e+00 0 0 0