LAMMPS data file via write_data, version 16 Mar 2018, timestep = 100000

4055 atoms
2 atom types

0.0000000000000000e+00 4.9219999999999999e+01 xlo xhi
0.0000000000000000e+00 4.9019635930410494e+01 ylo yhi
1.1876226338197817e+00 2.6752377366181335e+01 zlo zhi

Masses

1 18.015
2 12.01

Atoms # atomic

53 2 0.0000000000000000e+00 2.8417180249513345e+00 2.7988313766713029e+00 0 0 0
55 2 0.0000000000000000e+00 0.0000000000000000e+00 2.7988313766713029e+00 0 0 0
57 2 1.2305000000000001e+00 7.1042950623783474e-01 2.7988313766713029e+00 0 0 0
64 2 1.2305000000000001e+00 2.1312885187134998e+00 2.7988313766713029e+00 0 0 0
66 2 2.4610000000000003e+00 2.8417180249513345e+00 2.7988313766713029e+00 0 0 0
68 2 2.4610000000000003e+00 0.0000000000000000e+00 2.7988313766713029e+00 0 0 0
70 2 3.6915000000000004e+00 7.1042950623783474e-01 2.7988313766713029e+00 0 0 0
85 2 3.6914999999999996e+00 2.1312885187134998e+00 2.7988313766713029e+00 0 0 0
87 2 4.9220000000000006e+00 2.8417180249513332e+00 2.7988313766713029e+00 0 0 0
89 2 4.9220000000000006e+00 0.0000000000000000e+00 2.7988313766713029e+00 0 0 0
60 2 0.0000000000000000e+00 4.2625770374269996e+00 2.7988313766713029e+00 0 0 0
81 2 2.4610000000000003e+00 4.2625770374269996e+00 2.7988313766713029e+00 0 0 0
110 2 4.9220000000000006e+00 4.2625770374269978e+00 2.7988313766713029e+00 0 0 0
62 2 1.2305000000000001e+00 4.9730065436648339e+00 2.7988313766713029e+00 0 0 0
77 2 1.2305000000000001e+00 6.3938655561404980e+00 2.7988313766713029e+00 0 0 0
83 2 3.6914999999999996e+00 4.9730065436648339e+00 2.7988313766713029e+00 0 0 0
106 2 3.6914999999999996e+00 6.3938655561404980e+00 2.7988313766713029e+00 0 0 0
58 2 0.0000000000000000e+00 7.1042950623783341e+00 2.7988313766713029e+00 0 0 0
73 2 0.0000000000000000e+00 8.5251540748539991e+00 2.7988313766713029e+00 0 0 0
75 2 1.2305000000000001e+00 9.2355835810918343e+00 2.7988313766713029e+00 0 0 0
79 2 2.4610000000000003e+00 7.1042950623783341e+00 2.7988313766713029e+00 0 0 0
102 2 2.4610000000000003e+00 8.5251540748539991e+00 2.7988313766713029e+00 0 0 0
104 2 3.6915000000000004e+00 9.2355835810918343e+00 2.7988313766713029e+00 0 0 0
108 2 4.9220000000000006e+00 7.1042950623783341e+00 2.7988313766713029e+00 0 0 0
139 2 4.9220000000000006e+00 8.5251540748539991e+00 2.7988313766713029e+00 0 0 0
54 2 0.0000000000000000e+00 1.4208590124756650e+00 5.8467529224818424e+00 0 0 0
56 2 0.0000000000000000e+00 0.0000000000000000e+00 5.8467529224818424e+00 0 0 0
65 2 1.2305000000000001e+00 2.1312885187134998e+00 5.8467529224818424e+00 0 0 0
67 2 2.4610000000000003e+00 1.4208590124756650e+00 5.8467529224818424e+00 0 0 0
69 2 2.4610000000000003e+00 0.0000000000000000e+00 5.8467529224818424e+00 0 0 0
86 2 3.6914999999999996e+00 2.1312885187134998e+00 5.8467529224818424e+00 0 0 0
382 2 0.0000000000000000e+00 2.8417180249513345e+00 8.8946744682915018e+00 0 0 0
383 2 0.0000000000000000e+00 0.0000000000000000e+00 8.8946744682915018e+00 0 0 0
384 2 1.2305000000000001e+00 7.1042950623783474e-01 8.8946744682915018e+00 0 0 0
388 2 1.2305000000000001e+00 2.1312885187134998e+00 8.8946744682915018e+00 0 0 0
389 2 2.4610000000000003e+00 2.8417180249513345e+00 8.8946744682915018e+00 0 0 0
390 2 2.4610000000000003e+00 0.0000000000000000e+00 8.8946744682915018e+00 0 0 0
391 2 3.6915000000000004e+00 7.1042950623783474e-01 8.8946744682915018e+00 0 0 0
399 2 3.6914999999999996e+00 2.1312885187134998e+00 8.8946744682915018e+00 0 0 0
88 2 4.9220000000000006e+00 1.4208590124756650e+00 5.8467529224818424e+00 0 0 0
90 2 4.9220000000000006e+00 0.0000000000000000e+00 5.8467529224818424e+00 0 0 0
400 2 4.9220000000000006e+00 2.8417180249513332e+00 8.8946744682915018e+00 0 0 0
401 2 4.9220000000000006e+00 0.0000000000000000e+00 8.8946744682915018e+00 0 0 0
61 2 0.0000000000000000e+00 4.2625770374269996e+00 5.8467529224818424e+00 0 0 0
63 2 1.2305000000000001e+00 3.5521475311891644e+00 5.8467529224818424e+00 0 0 0
82 2 2.4610000000000003e+00 4.2625770374269996e+00 5.8467529224818424e+00 0 0 0
84 2 3.6914999999999996e+00 3.5521475311891644e+00 5.8467529224818424e+00 0 0 0
386 2 0.0000000000000000e+00 4.2625770374269996e+00 8.8946744682915018e+00 0 0 0
397 2 2.4610000000000003e+00 4.2625770374269996e+00 8.8946744682915018e+00 0 0 0
111 2 4.9220000000000006e+00 4.2625770374269978e+00 5.8467529224818424e+00 0 0 0
412 2 4.9220000000000006e+00 4.2625770374269978e+00 8.8946744682915018e+00 0 0 0
59 2 0.0000000000000000e+00 5.6834360499026637e+00 5.8467529224818424e+00 0 0 0
78 2 1.2305000000000001e+00 6.3938655561404980e+00 5.8467529224818424e+00 0 0 0
80 2 2.4610000000000003e+00 5.6834360499026637e+00 5.8467529224818424e+00 0 0 0
107 2 3.6914999999999996e+00 6.3938655561404980e+00 5.8467529224818424e+00 0 0 0
387 2 1.2305000000000001e+00 4.9730065436648339e+00 8.8946744682915018e+00 0 0 0
395 2 1.2305000000000001e+00 6.3938655561404980e+00 8.8946744682915018e+00 0 0 0
398 2 3.6914999999999996e+00 4.9730065436648339e+00 8.8946744682915018e+00 0 0 0
410 2 3.6914999999999996e+00 6.3938655561404980e+00 8.8946744682915018e+00 0 0 0
109 2 4.9220000000000006e+00 5.6834360499026637e+00 5.8467529224818424e+00 0 0 0
74 2 0.0000000000000000e+00 8.5251540748539991e+00 5.8467529224818424e+00 0 0 0
76 2 1.2305000000000001e+00 7.8147245686161639e+00 5.8467529224818424e+00 0 0 0
103 2 2.4610000000000003e+00 8.5251540748539991e+00 5.8467529224818424e+00 0 0 0
105 2 3.6914999999999996e+00 7.8147245686161639e+00 5.8467529224818424e+00 0 0 0
385 2 0.0000000000000000e+00 7.1042950623783341e+00 8.8946744682915018e+00 0 0 0
393 2 0.0000000000000000e+00 8.5251540748539991e+00 8.8946744682915018e+00 0 0 0
394 2 1.2305000000000001e+00 9.2355835810918343e+00 8.8946744682915018e+00 0 0 0
396 2 2.4610000000000003e+00 7.1042950623783341e+00 8.8946744682915018e+00 0 0 0
408 2 2.4610000000000003e+00 8.5251540748539991e+00 8.8946744682915018e+00 0 0 0
409 2 3.6915000000000004e+00 9.2355835810918343e+00 8.8946744682915018e+00 0 0 0
140 2 4.9220000000000006e+00 8.5251540748539991e+00 5.8467529224818424e+00 0 0 0
411 2 4.9220000000000006e+00 7.1042950623783341e+00 8.8946744682915018e+00 0 0 0
427 2 4.9220000000000006e+00 8.5251540748539991e+00 8.8946744682915018e+00 0 0 0
2562 1 3.1863817949614135e+00 1.2561897731998850e+00 1.1427307054182739e+01 0 -1 -1
2573 1 3.3542633977579643e+00 3.7372266656634681e+00 1.2130843122050793e+01 0 1 -1
2623 1 4.0690288913014232e+00 9.4675032644097339e+00 1.1682870288252211e+01 1 1 0
3285 1 1.7384402280605558e+00 7.9513086627125320e+00 1.1620417591150099e+01 1 0 -1
1293 1 1.1629497975400918e+00 5.3511524260909580e+00 1.1313112792638762e+01 1 0 0
1242 1 5.9215656486728871e+00 4.9083350535342687e+00 1.1463374661921959e+01 0 1 0
1937 1 3.4574416814426234e+00 1.3002895172159061e+00 1.5589451621405424e+01 1 0 0
1406 1 3.5558033635304898e+00 4.0401152352223546e+00 1.4831072727463360e+01 0 0 0
2703 1 3.8448834401230418e+00 8.8894764418559582e+00 2.2379568132833860e+01 0 0 -1
2052 1 3.4391594407582855e+00 1.3509469713216202e+00 1.8210595358159612e+01 0 0 0
2051 1 1.7762815544929900e+00 8.1421869555118676e+00 1.4492251187747838e+01 1 2 -1
3387 1 1.2895426916682504e+00 5.4577466431075132e+00 1.5262099138999105e+01 1 0 -1
682 1 4.2611137615434709e+00 9.0223780847178450e+00 1.7973234826364706e+01 1 0 -1
2683 1 9.6406193033330545e-01 5.0962755755031219e+00 1.8113562717867183e+01 1 2 0
768 1 4.3503820775802859e+00 9.4756859325044047e+00 1.5137648845250187e+01 0 0 0
2749 1 3.7891292265547500e+00 8.7869761282301493e+00 2.5156487855350402e+01 1 0 0
1344 1 3.6451140239161339e+00 6.1446866404188016e+00 2.5580731331079548e+01 0 0 0
2034 1 1.2884745084200222e+00 5.4308562683876369e+00 2.2457828283146057e+01 1 0 1
2074 1 1.0914729063021047e+00 2.3152740635438165e+00 1.9077504861413075e+01 0 1 0
4055 1 9.8591137382528216e-01 2.7814486613654252e+00 2.1691138106962015e+01 1 1 -1
2002 1 5.8510682669496310e+00 2.5886094237644062e+00 1.8997559066062891e+01 0 1 0
724 1 3.5275373917785782e+00 6.2913197341109051e+00 1.9079295539927184e+01 0 0 0
2728 1 3.6618459741653355e+00 6.2935395442492572e+00 2.1541398515579559e+01 1 0 0
3280 1 3.1888782919498135e+00 1.1768430786107784e+00 2.2672818232671172e+01 0 -1 0
3369 1 1.0298937567549220e+00 2.6484465024440618e+00 2.5782476870473111e+01 1 0 -1
2706 1 3.3788252308548152e+00 1.2493791727750656e+00 2.5505505592336704e+01 1 1 -1
20 1 5.4779792066037700e+00 2.2644613311798683e+00 2.2063952698911692e+01 0 0 -1
3942 1 1.2099262217188642e+00 5.2690674427169117e+00 2.5083703237755110e+01 0 0 0
1958 1 5.7490074008940129e+00 2.3580932588287968e+00 2.5943884404043260e+01 0 0 -1
3391 1 5.9673643377161367e+00 5.2492419674328543e+00 1.8190100382936595e+01 0 1 0
616 1 5.9141533243476019e+00 4.9863944713974018e+00 2.2459816450502007e+01 1 1 0
3972 1 5.6817428198970132e+00 5.4457860025676137e+00 1.5525556043143391e+01 1 0 -1
1919 1 5.7416249845423222e+00 1.6064538846760729e-01 1.4445979745439985e+01 0 0 0
733 1 1.1071801174067943e+00 3.1209009610627547e-01 1.4745417856902497e+01 0 0 0
71 2 0.0000000000000000e+00 1.1366872099805333e+01 2.7988313766713029e+00 0 0 0
94 2 0.0000000000000000e+00 1.2787731112280996e+01 2.7988313766713029e+00 0 0 0
96 2 1.2305000000000001e+00 1.3498160618518829e+01 2.7988313766713029e+00 0 0 0
98 2 1.2305000000000001e+00 1.0656442593567498e+01 2.7988313766713029e+00 0 0 0
100 2 2.4610000000000003e+00 1.1366872099805333e+01 2.7988313766713029e+00 0 0 0
131 2 2.4610000000000003e+00 1.2787731112280996e+01 2.7988313766713029e+00 0 0 0
133 2 3.6915000000000004e+00 1.3498160618518829e+01 2.7988313766713029e+00 0 0 0
135 2 3.6914999999999996e+00 1.0656442593567499e+01 2.7988313766713029e+00 0 0 0
137 2 4.9220000000000006e+00 1.1366872099805333e+01 2.7988313766713029e+00 0 0 0
176 2 4.9220000000000006e+00 1.2787731112280996e+01 2.7988313766713029e+00 0 0 0
178 2 6.1524999999999990e+00 1.3498160618518829e+01 2.7988313766713029e+00 0 0 0
92 2 0.0000000000000000e+00 1.5629449137232333e+01 2.7988313766713029e+00 0 0 0
123 2 0.0000000000000000e+00 1.7050308149707998e+01 2.7988313766713029e+00 0 0 0
127 2 1.2305000000000001e+00 1.4919019630994494e+01 2.7988313766713029e+00 0 0 0
129 2 2.4610000000000003e+00 1.5629449137232328e+01 2.7988313766713029e+00 0 0 0
168 2 2.4610000000000003e+00 1.7050308149707998e+01 2.7988313766713029e+00 0 0 0
172 2 3.6915000000000004e+00 1.4919019630994494e+01 2.7988313766713029e+00 0 0 0
174 2 4.9220000000000006e+00 1.5629449137232333e+01 2.7988313766713029e+00 0 0 0
215 2 4.9220000000000006e+00 1.7050308149707998e+01 2.7988313766713029e+00 0 0 0
219 2 6.1524999999999990e+00 1.4919019630994494e+01 2.7988313766713029e+00 0 0 0
125 2 1.2305000000000001e+00 1.7760737655945832e+01 2.7988313766713029e+00 0 0 0
164 2 1.2305000000000001e+00 1.9181596668421495e+01 2.7988313766713029e+00 0 0 0
170 2 3.6914999999999996e+00 1.7760737655945832e+01 2.7988313766713029e+00 0 0 0
211 2 3.6914999999999996e+00 1.9181596668421495e+01 2.7988313766713029e+00 0 0 0
72 2 0.0000000000000000e+00 9.9460130873296642e+00 5.8467529224818424e+00 0 0 0
101 2 2.4610000000000003e+00 9.9460130873296642e+00 5.8467529224818424e+00 0 0 0
138 2 4.9220000000000006e+00 9.9460130873296642e+00 5.8467529224818424e+00 0 0 0
95 2 0.0000000000000000e+00 1.2787731112280996e+01 5.8467529224818424e+00 0 0 0
97 2 1.2305000000000001e+00 1.2077301606043163e+01 5.8467529224818424e+00 0 0 0
99 2 1.2305000000000001e+00 1.0656442593567498e+01 5.8467529224818424e+00 0 0 0
132 2 2.4610000000000003e+00 1.2787731112280996e+01 5.8467529224818424e+00 0 0 0
134 2 3.6914999999999996e+00 1.2077301606043163e+01 5.8467529224818424e+00 0 0 0
136 2 3.6914999999999996e+00 1.0656442593567499e+01 5.8467529224818424e+00 0 0 0
392 2 0.0000000000000000e+00 1.1366872099805333e+01 8.8946744682915018e+00 0 0 0
404 2 0.0000000000000000e+00 1.2787731112280996e+01 8.8946744682915018e+00 0 0 0
405 2 1.2305000000000001e+00 1.3498160618518829e+01 8.8946744682915018e+00 0 0 0
406 2 1.2305000000000001e+00 1.0656442593567498e+01 8.8946744682915018e+00 0 0 0
407 2 2.4610000000000003e+00 1.1366872099805333e+01 8.8946744682915018e+00 0 0 0
423 2 2.4610000000000003e+00 1.2787731112280996e+01 8.8946744682915018e+00 0 0 0
424 2 3.6915000000000004e+00 1.3498160618518829e+01 8.8946744682915018e+00 0 0 0
425 2 3.6914999999999996e+00 1.0656442593567499e+01 8.8946744682915018e+00 0 0 0
177 2 4.9220000000000006e+00 1.2787731112280996e+01 5.8467529224818424e+00 0 0 0
426 2 4.9220000000000006e+00 1.1366872099805333e+01 8.8946744682915018e+00 0 0 0
446 2 4.9220000000000006e+00 1.2787731112280996e+01 8.8946744682915018e+00 0 0 0
447 2 6.1524999999999990e+00 1.3498160618518829e+01 8.8946744682915018e+00 0 0 0
93 2 0.0000000000000000e+00 1.4208590124756663e+01 5.8467529224818424e+00 0 0 0
130 2 2.4610000000000003e+00 1.4208590124756663e+01 5.8467529224818424e+00 0 0 0
175 2 4.9220000000000006e+00 1.4208590124756663e+01 5.8467529224818424e+00 0 0 0
124 2 0.0000000000000000e+00 1.7050308149707998e+01 5.8467529224818424e+00 0 0 0
126 2 1.2305000000000001e+00 1.6339878643470165e+01 5.8467529224818424e+00 0 0 0
128 2 1.2305000000000001e+00 1.4919019630994494e+01 5.8467529224818424e+00 0 0 0
169 2 2.4610000000000003e+00 1.7050308149707998e+01 5.8467529224818424e+00 0 0 0
171 2 3.6915000000000004e+00 1.6339878643470165e+01 5.8467529224818424e+00 0 0 0
173 2 3.6915000000000004e+00 1.4919019630994494e+01 5.8467529224818424e+00 0 0 0
403 2 0.0000000000000000e+00 1.5629449137232333e+01 8.8946744682915018e+00 0 0 0
419 2 0.0000000000000000e+00 1.7050308149707998e+01 8.8946744682915018e+00 0 0 0
421 2 1.2305000000000001e+00 1.4919019630994494e+01 8.8946744682915018e+00 0 0 0
422 2 2.4610000000000003e+00 1.5629449137232328e+01 8.8946744682915018e+00 0 0 0
442 2 2.4610000000000003e+00 1.7050308149707998e+01 8.8946744682915018e+00 0 0 0
444 2 3.6915000000000004e+00 1.4919019630994494e+01 8.8946744682915018e+00 0 0 0
216 2 4.9220000000000006e+00 1.7050308149707998e+01 5.8467529224818424e+00 0 0 0
220 2 6.1524999999999990e+00 1.4919019630994494e+01 5.8467529224818424e+00 0 0 0
445 2 4.9220000000000006e+00 1.5629449137232333e+01 8.8946744682915018e+00 0 0 0
466 2 4.9220000000000006e+00 1.7050308149707998e+01 8.8946744682915018e+00 0 0 0
468 2 6.1524999999999990e+00 1.4919019630994494e+01 8.8946744682915018e+00 0 0 0
122 2 0.0000000000000000e+00 1.8471167162183658e+01 5.8467529224818424e+00 0 0 0
165 2 1.2305000000000001e+00 1.9181596668421495e+01 5.8467529224818424e+00 0 0 0
167 2 2.4610000000000003e+00 1.8471167162183658e+01 5.8467529224818424e+00 0 0 0
212 2 3.6914999999999996e+00 1.9181596668421495e+01 5.8467529224818424e+00 0 0 0
420 2 1.2305000000000001e+00 1.7760737655945832e+01 8.8946744682915018e+00 0 0 0
440 2 1.2305000000000001e+00 1.9181596668421495e+01 8.8946744682915018e+00 0 0 0
443 2 3.6914999999999996e+00 1.7760737655945832e+01 8.8946744682915018e+00 0 0 0
464 2 3.6914999999999996e+00 1.9181596668421495e+01 8.8946744682915018e+00 0 0 0
214 2 4.9220000000000006e+00 1.8471167162183658e+01 5.8467529224818424e+00 0 0 0
1973 1 2.5241520277644534e+00 1.3492883396789233e+01 1.1160659345621420e+01 0 0 -1
3361 1 4.5163217932731854e+00 1.2185980012482352e+01 1.2083273426459042e+01 0 0 1
3417 1 5.3167676133630053e+00 1.7600230042241119e+01 1.1666668830925310e+01 1 -1 0
1337 1 2.6172248020973576e+00 1.6340682311903663e+01 1.2143301220362515e+01 1 0 0
3923 1 2.6110062695381753e-01 1.7593264946192257e+01 1.1609106220246600e+01 1 1 0
593 1 2.1755099787471455e+00 1.3510443328578521e+01 1.5462868213481569e+01 0 0 0
33 1 4.5275477344230879e+00 1.2308742572336055e+01 1.4744619294238239e+01 2 0 0
5 1 5.2350238082381431e+00 1.7672582495577231e+01 1.4543783520651122e+01 1 0 0
2587 1 2.6714969197925185e+00 1.6462627230347309e+01 1.4851614040048958e+01 0 1 -1
3333 1 2.2549795282195104e+00 1.3044709145993977e+01 1.8160016448540862e+01 1 0 -1
752 1 1.9423135120077994e+00 1.0410435871715055e+01 1.8585921091071150e+01 1 0 0
1957 1 4.5272161664151120e+00 1.4101388604824303e+01 1.9490901602037717e+01 0 0 1
3968 1 4.0938491042629357e+00 1.3673833875823115e+01 2.2254099704262341e+01 1 0 0
3412 1 1.6283986076843739e+00 1.0235106662479375e+01 2.1478498171615470e+01 0 0 0
1370 1 1.5140444878866557e+00 1.2498447723950132e+01 2.2919129855920350e+01 0 0 -1
2087 1 2.1838572265085210e-01 1.7354192852331824e+01 1.5317281164503393e+01 1 0 0
3913 1 4.5052206920974944e+00 1.6959617603409150e+01 1.9445284432727039e+01 0 0 0
564 1 1.9590958424812124e+00 1.7900045859665230e+01 1.9607133625427220e+01 1 0 0
3383 1 2.4960596663856389e+00 1.7658000378972968e+01 2.2382194125492390e+01 0 1 -1
3324 1 4.4517197829877873e+00 1.6146352730061778e+01 2.3563571194845352e+01 1 0 0
1270 1 1.6350341298751294e+00 1.0225317481230393e+01 2.6016979963005138e+01 0 1 0
2043 1 1.9156277986680033e+00 1.2684097955748603e+01 2.5624413776963848e+01 0 0 -1
647 1 4.6759835218579786e+00 1.3035381941020720e+01 2.5453834121148201e+01 0 1 0
2024 1 2.3809006155380255e+00 1.7997248300181106e+01 2.5446245381019708e+01 1 0 0
27 1 5.1162406853870595e+00 1.7868792611852665e+01 2.6029606957304392e+01 1 -1 0
2105 1 6.0762899204490655e+00 1.7025600454217571e+01 2.1844231711733375e+01 1 0 0
3902 1 5.9987223135008110e+00 1.7841798481712431e+01 1.7264202967600227e+01 0 1 1
3935 1 6.1046293605555100e+00 1.0234567382255959e+01 2.5894308084236265e+01 1 1 0
1264 1 6.1909743915016691e-02 1.6804684957264637e+01 2.5850588402117804e+01 0 -1 0
121 2 0.0000000000000000e+00 1.9892026174659328e+01 2.7988313766713029e+00 0 0 0
166 2 2.4610000000000003e+00 1.9892026174659328e+01 2.7988313766713029e+00 0 0 0
213 2 4.9220000000000006e+00 1.9892026174659328e+01 2.7988313766713029e+00 0 0 0
158 2 0.0000000000000000e+00 2.4154603212086325e+01 2.7988313766713029e+00 0 0 0
160 2 0.0000000000000000e+00 2.1312885187134999e+01 2.7988313766713029e+00 0 0 0
162 2 1.2304999999999993e+00 2.2023314693372832e+01 2.7988313766713029e+00 0 0 0
203 2 1.2304999999999993e+00 2.3444173705848499e+01 2.7988313766713029e+00 0 0 0
205 2 2.4610000000000003e+00 2.4154603212086325e+01 2.7988313766713029e+00 0 0 0
207 2 2.4610000000000003e+00 2.1312885187134995e+01 2.7988313766713029e+00 0 0 0
209 2 3.6914999999999996e+00 2.2023314693372832e+01 2.7988313766713029e+00 0 0 0
250 2 3.6915000000000004e+00 2.3444173705848499e+01 2.7988313766713029e+00 0 0 0
252 2 4.9220000000000006e+00 2.4154603212086325e+01 2.7988313766713029e+00 0 0 0
254 2 4.9220000000000006e+00 2.1312885187134995e+01 2.7988313766713029e+00 0 0 0
256 2 6.1524999999999990e+00 2.2023314693372832e+01 2.7988313766713029e+00 0 0 0
774 2 0.0000000000000000e+00 2.5575462224561992e+01 2.7988313766713029e+00 0 0 0
776 2 1.2305000000000001e+00 2.6285891730799833e+01 2.7988313766713029e+00 0 0 0
784 2 1.2305000000000010e+00 2.7706750743275496e+01 2.7988313766713029e+00 0 0 0
788 2 2.4610000000000003e+00 2.5575462224561992e+01 2.7988313766713029e+00 0 0 0
790 2 3.6914999999999991e+00 2.6285891730799833e+01 2.7988313766713029e+00 0 0 0
806 2 3.6914999999999996e+00 2.7706750743275496e+01 2.7988313766713029e+00 0 0 0
810 2 4.9220000000000006e+00 2.5575462224561992e+01 2.7988313766713029e+00 0 0 0
836 2 6.1524999999999990e+00 2.7706750743275496e+01 2.7988313766713029e+00 0 0 0
772 2 0.0000000000000000e+00 2.8417180249513333e+01 2.7988313766713029e+00 0 0 0
786 2 2.4610000000000003e+00 2.8417180249513326e+01 2.7988313766713029e+00 0 0 0
808 2 4.9220000000000006e+00 2.8417180249513336e+01 2.7988313766713029e+00 0 0 0
163 2 1.2305000000000001e+00 2.0602455680897162e+01 5.8467529224818424e+00 0 0 0
210 2 3.6915000000000004e+00 2.0602455680897162e+01 5.8467529224818424e+00 0 0 0
418 2 0.0000000000000000e+00 1.9892026174659328e+01 8.8946744682915018e+00 0 0 0
441 2 2.4610000000000003e+00 1.9892026174659328e+01 8.8946744682915018e+00 0 0 0
465 2 4.9220000000000006e+00 1.9892026174659328e+01 8.8946744682915018e+00 0 0 0
159 2 0.0000000000000000e+00 2.2733744199610655e+01 5.8467529224818424e+00 0 0 0
161 2 0.0000000000000000e+00 2.1312885187134999e+01 5.8467529224818424e+00 0 0 0
204 2 1.2304999999999993e+00 2.3444173705848499e+01 5.8467529224818424e+00 0 0 0
206 2 2.4610000000000003e+00 2.2733744199610655e+01 5.8467529224818424e+00 0 0 0
208 2 2.4610000000000003e+00 2.1312885187134995e+01 5.8467529224818424e+00 0 0 0
251 2 3.6915000000000004e+00 2.3444173705848499e+01 5.8467529224818424e+00 0 0 0
437 2 0.0000000000000000e+00 2.4154603212086325e+01 8.8946744682915018e+00 0 0 0
438 2 0.0000000000000000e+00 2.1312885187134999e+01 8.8946744682915018e+00 0 0 0
439 2 1.2304999999999993e+00 2.2023314693372832e+01 8.8946744682915018e+00 0 0 0
460 2 1.2304999999999993e+00 2.3444173705848499e+01 8.8946744682915018e+00 0 0 0
461 2 2.4610000000000003e+00 2.4154603212086325e+01 8.8946744682915018e+00 0 0 0
462 2 2.4610000000000003e+00 2.1312885187134995e+01 8.8946744682915018e+00 0 0 0
463 2 3.6914999999999996e+00 2.2023314693372832e+01 8.8946744682915018e+00 0 0 0
484 2 3.6915000000000004e+00 2.3444173705848499e+01 8.8946744682915018e+00 0 0 0
253 2 4.9220000000000006e+00 2.2733744199610655e+01 5.8467529224818424e+00 0 0 0
255 2 4.9220000000000006e+00 2.1312885187134995e+01 5.8467529224818424e+00 0 0 0
485 2 4.9220000000000006e+00 2.4154603212086325e+01 8.8946744682915018e+00 0 0 0
486 2 4.9220000000000006e+00 2.1312885187134995e+01 8.8946744682915018e+00 0 0 0
487 2 6.1524999999999990e+00 2.2023314693372832e+01 8.8946744682915018e+00 0 0 0
773 2 0.0000000000000000e+00 2.6996321237037659e+01 5.8467529224818424e+00 0 0 0
775 2 0.0000000000000000e+00 2.5575462224561992e+01 5.8467529224818424e+00 0 0 0
777 2 1.2305000000000001e+00 2.4865032718324155e+01 5.8467529224818424e+00 0 0 0
785 2 1.2305000000000010e+00 2.7706750743275496e+01 5.8467529224818424e+00 0 0 0
787 2 2.4610000000000003e+00 2.6996321237037659e+01 5.8467529224818424e+00 0 0 0
789 2 2.4610000000000003e+00 2.5575462224561992e+01 5.8467529224818424e+00 0 0 0
791 2 3.6914999999999996e+00 2.4865032718324166e+01 5.8467529224818424e+00 0 0 0
807 2 3.6914999999999996e+00 2.7706750743275496e+01 5.8467529224818424e+00 0 0 0
1088 2 0.0000000000000000e+00 2.5575462224561992e+01 8.8946744682915018e+00 0 0 0
1089 2 1.2305000000000001e+00 2.6285891730799833e+01 8.8946744682915018e+00 0 0 0
1093 2 1.2305000000000010e+00 2.7706750743275496e+01 8.8946744682915018e+00 0 0 0
1095 2 2.4610000000000003e+00 2.5575462224561992e+01 8.8946744682915018e+00 0 0 0
1096 2 3.6914999999999991e+00 2.6285891730799833e+01 8.8946744682915018e+00 0 0 0
1104 2 3.6914999999999996e+00 2.7706750743275496e+01 8.8946744682915018e+00 0 0 0
809 2 4.9220000000000006e+00 2.6996321237037659e+01 5.8467529224818424e+00 0 0 0
811 2 4.9220000000000006e+00 2.5575462224561992e+01 5.8467529224818424e+00 0 0 0
813 2 6.1524999999999990e+00 2.4865032718324155e+01 5.8467529224818424e+00 0 0 0
837 2 6.1524999999999990e+00 2.7706750743275496e+01 5.8467529224818424e+00 0 0 0
1106 2 4.9220000000000006e+00 2.5575462224561992e+01 8.8946744682915018e+00 0 0 0
1119 2 6.1524999999999990e+00 2.7706750743275496e+01 8.8946744682915018e+00 0 0 0
783 2 1.2304999999999993e+00 2.9127609755751163e+01 5.8467529224818424e+00 0 0 0
805 2 3.6914999999999991e+00 2.9127609755751152e+01 5.8467529224818424e+00 0 0 0
1087 2 0.0000000000000000e+00 2.8417180249513333e+01 8.8946744682915018e+00 0 0 0
1094 2 2.4610000000000003e+00 2.8417180249513326e+01 8.8946744682915018e+00 0 0 0
835 2 6.1524999999999981e+00 2.9127609755751152e+01 5.8467529224818424e+00 0 0 0
1105 2 4.9220000000000006e+00 2.8417180249513336e+01 8.8946744682915018e+00 0 0 0
2008 1 3.2347102057017425e+00 2.1912837647375007e+01 1.1356976357901585e+01 0 -1 0
2632 1 5.5662276751971955e+00 2.0327988426388739e+01 1.1449101171353249e+01 0 -1 -1
2628 1 5.0207343457258236e-01 2.0585049419884243e+01 1.1772364789050748e+01 1 0 -1
1999 1 3.7442595658158839e+00 2.4727426229448337e+01 1.1159203654274053e+01 0 0 -1
2748 1 1.2630303076457201e+00 2.6191973296924346e+01 1.1423719283642544e+01 1 0 0
2712 1 1.3365907603669307e+00 2.8955131290741548e+01 1.1907797073123751e+01 1 0 0
3276 1 5.8408510041420962e+00 2.8407186092218275e+01 1.1955723063372300e+01 0 0 0
571 1 5.8603063445563075e+00 2.6062231707597135e+01 1.0907756092901630e+01 0 0 0
1304 1 3.7001797416312838e+00 2.4851467653751584e+01 1.3966607864613922e+01 0 0 0
1300 1 1.0846045576511851e+00 2.8984400163640132e+01 1.4575657772312162e+01 0 1 -1
1992 1 5.4652594212910399e+00 2.0532647113073285e+01 1.4751076155136003e+01 0 0 0
1922 1 3.2876664968962288e+00 2.3339575606251419e+01 1.8742413461943471e+01 1 0 -1
3995 1 6.0122101276386575e+00 2.6189731915215702e+01 1.5514888433233301e+01 1 0 0
1315 1 5.4329035349541561e+00 2.0609509536040409e+01 1.7485233731167789e+01 0 0 -1
2667 1 2.3183204142716889e+00 2.5672535976297947e+01 2.2886691321129479e+01 0 1 -1
664 1 1.8564955883564904e+00 2.5096567697971182e+01 1.6864319511457300e+01 1 0 -1
4024 1 1.0459439295006974e+00 2.6319938341588678e+01 1.4274962033378857e+01 0 1 1
3963 1 2.5855703571258251e+00 2.0713182460474545e+01 2.5601012839444344e+01 0 1 -1
2572 1 4.1926026838721411e+00 2.7813056268555187e+01 2.6152952386335688e+01 0 0 -1
551 1 2.7152485841889451e+00 2.0148140874684952e+01 1.8118515831167905e+01 1 0 0
3960 1 1.9877341332196976e+00 2.1516814654056244e+01 2.0507263669816677e+01 1 -1 -1
3403 1 2.2207872647801143e+00 2.5991506959086301e+01 2.5634243263755597e+01 1 0 -1
3404 1 7.5777458952435095e-01 2.6916565437044881e+01 1.8779187220301459e+01 1 0 0
3377 1 3.6263390063901801e+00 2.7404351776611360e+01 1.8871780991195209e+01 0 0 0
1938 1 3.8509479709480283e+00 2.7612083114970797e+01 2.1636798433653912e+01 0 0 0
1443 1 6.0690899192660419e+00 2.3382022688816711e+01 1.8905738440185161e+01 1 0 0
2107 1 3.7123811300987737e+00 2.3167722276162294e+01 2.2666528297895631e+01 1 0 0
542 1 3.4195402105759625e+00 2.3433004657626476e+01 2.5538297301669736e+01 0 0 0
2108 1 3.5543084935153741e+00 2.0185839043739179e+01 2.2870867550899455e+01 1 0 1
3400 1 3.1503046623168918e+00 2.2146275814434095e+01 1.4151355919137391e+01 1 -1 0
1318 1 1.0313018542371353e+00 2.1089239544745979e+01 1.5581170490711402e+01 2 0 0
780 2 0.0000000000000000e+00 2.9838039261988989e+01 2.7988313766713029e+00 0 0 0
782 2 1.2304999999999993e+00 3.0548468768226829e+01 2.7988313766713029e+00 0 0 0
802 2 2.4610000000000003e+00 2.9838039261988989e+01 2.7988313766713029e+00 0 0 0
804 2 3.6915000000000004e+00 3.0548468768226829e+01 2.7988313766713029e+00 0 0 0
832 2 4.9220000000000006e+00 2.9838039261988989e+01 2.7988313766713029e+00 0 0 0
778 2 0.0000000000000000e+00 3.2679757286940330e+01 2.7988313766713029e+00 0 0 0
794 2 0.0000000000000000e+00 3.4100616299415996e+01 2.7988313766713029e+00 0 0 0
798 2 1.2304999999999993e+00 3.1969327780702493e+01 2.7988313766713029e+00 0 0 0
800 2 2.4610000000000003e+00 3.2679757286940337e+01 2.7988313766713029e+00 0 0 0
824 2 2.4609999999999985e+00 3.4100616299415996e+01 2.7988313766713029e+00 0 0 0
828 2 3.6914999999999996e+00 3.1969327780702493e+01 2.7988313766713029e+00 0 0 0
830 2 4.9220000000000015e+00 3.2679757286940337e+01 2.7988313766713029e+00 0 0 0
862 2 4.9220000000000006e+00 3.4100616299415996e+01 2.7988313766713029e+00 0 0 0
796 2 1.2305000000000010e+00 3.4811045805653833e+01 2.7988313766713029e+00 0 0 0
826 2 3.6915000000000018e+00 3.4811045805653833e+01 2.7988313766713029e+00 0 0 0
792 2 0.0000000000000000e+00 3.6942334324367337e+01 2.7988313766713029e+00 0 0 0
816 2 0.0000000000000000e+00 3.8363193336842990e+01 2.7988313766713029e+00 0 0 0
820 2 1.2304999999999993e+00 3.6231904818129486e+01 2.7988313766713029e+00 0 0 0
822 2 2.4610000000000021e+00 3.6942334324367337e+01 2.7988313766713029e+00 0 0 0
854 2 2.4610000000000003e+00 3.8363193336842990e+01 2.7988313766713029e+00 0 0 0
858 2 3.6914999999999996e+00 3.6231904818129486e+01 2.7988313766713029e+00 0 0 0
860 2 4.9220000000000006e+00 3.6942334324367316e+01 2.7988313766713029e+00 0 0 0
899 2 4.9220000000000006e+00 3.8363193336842990e+01 2.7988313766713029e+00 0 0 0
818 2 1.2305000000000010e+00 3.9073622843080841e+01 2.7988313766713029e+00 0 0 0
856 2 3.6915000000000018e+00 3.9073622843080820e+01 2.7988313766713029e+00 0 0 0
779 2 0.0000000000000000e+00 3.1258898274464656e+01 5.8467529224818424e+00 0 0 0
781 2 0.0000000000000000e+00 2.9838039261988989e+01 5.8467529224818424e+00 0 0 0
801 2 2.4609999999999985e+00 3.1258898274464656e+01 5.8467529224818424e+00 0 0 0
803 2 2.4610000000000003e+00 2.9838039261988989e+01 5.8467529224818424e+00 0 0 0
1091 2 0.0000000000000000e+00 2.9838039261988989e+01 8.8946744682915018e+00 0 0 0
1092 2 1.2304999999999993e+00 3.0548468768226829e+01 8.8946744682915018e+00 0 0 0
1102 2 2.4610000000000003e+00 2.9838039261988989e+01 8.8946744682915018e+00 0 0 0
1103 2 3.6915000000000004e+00 3.0548468768226829e+01 8.8946744682915018e+00 0 0 0
831 2 4.9219999999999979e+00 3.1258898274464656e+01 5.8467529224818424e+00 0 0 0
833 2 4.9220000000000006e+00 2.9838039261988989e+01 5.8467529224818424e+00 0 0 0
1117 2 4.9220000000000006e+00 2.9838039261988989e+01 8.8946744682915018e+00 0 0 0
795 2 0.0000000000000000e+00 3.4100616299415996e+01 5.8467529224818424e+00 0 0 0
797 2 1.2304999999999993e+00 3.3390186793178160e+01 5.8467529224818424e+00 0 0 0
799 2 1.2304999999999993e+00 3.1969327780702493e+01 5.8467529224818424e+00 0 0 0
825 2 2.4609999999999985e+00 3.4100616299415996e+01 5.8467529224818424e+00 0 0 0
827 2 3.6914999999999978e+00 3.3390186793178160e+01 5.8467529224818424e+00 0 0 0
829 2 3.6914999999999996e+00 3.1969327780702493e+01 5.8467529224818424e+00 0 0 0
1090 2 0.0000000000000000e+00 3.2679757286940330e+01 8.8946744682915018e+00 0 0 0
1098 2 0.0000000000000000e+00 3.4100616299415996e+01 8.8946744682915018e+00 0 0 0
1100 2 1.2304999999999993e+00 3.1969327780702493e+01 8.8946744682915018e+00 0 0 0
1101 2 2.4610000000000003e+00 3.2679757286940337e+01 8.8946744682915018e+00 0 0 0
1113 2 2.4609999999999985e+00 3.4100616299415996e+01 8.8946744682915018e+00 0 0 0
1115 2 3.6914999999999996e+00 3.1969327780702493e+01 8.8946744682915018e+00 0 0 0
863 2 4.9220000000000006e+00 3.4100616299415996e+01 5.8467529224818424e+00 0 0 0