
# Create simulation box and atoms

read_data data.ML_graphite_m500atm_240K
  orthogonal box = (0 0 1.84677) to (49.22 49.0196 26.0932)
  8 by 5 by 2 MPI processor grid
  reading atoms ...
  4055 atoms
  reading velocities ...
  4055 velocities
group water type 1
1295 atoms in group water
group graphite type 2
2760 atoms in group graphite

# Define potential

pair_style sw
pair_coeff * * MLC_e.sw mW C


# Fix graphite atoms in place

fix 5 graphite setforce 0.0 0.0 0.0
velocity graphite set 0.0 0.0 0.0


# Equilibration of molecular water

# Add velocity/set timestep

velocity	    water create ${TEMP} ${SEED} rot yes dist gaussian
velocity	    water create 240 ${SEED} rot yes dist gaussian
velocity	    water create 240 17969 rot yes dist gaussian
timestep	    5.0

# Define output

compute			1 water msd
compute			3 water temp
thermo	    	50
thermo_style	custom step temp press vol etotal ke pe c_1[4] c_3

# Neighbor lists

neigh_modify    delay 0 every 1 check yes

# Set fixes

fix             1 water momentum 10 linear 1 1 1 rescale
fix             2 water nve
fix             3 water temp/csvr ${TEMP} ${TEMP} 500.0 ${SEED}
fix             3 water temp/csvr 240 ${TEMP} 500.0 ${SEED}
fix             3 water temp/csvr 240 240 500.0 ${SEED}
fix             3 water temp/csvr 240 240 500.0 17969
fix             4 water press/berendsen z ${PRES} ${PRES} 1000.0 modulus 20000
fix             4 water press/berendsen z -500 ${PRES} 1000.0 modulus 20000
fix             4 water press/berendsen z -500 -500 1000.0 modulus 20000

# Run 0.5 ns equilibration

dump		    1 all atom 2000 ${DIR}/eq.${NAME}-${TEMP}.dump
dump		    1 all atom 2000 run_8/eq.${NAME}-${TEMP}.dump
dump		    1 all atom 2000 run_8/eq.het_freeze_8-${TEMP}.dump
dump		    1 all atom 2000 run_8/eq.het_freeze_8-240.dump

reset_timestep  0

run	            100000
Neighbor list info ...
  update every 1 steps, delay 0 steps, check yes
  max neighbors/atom: 2000, page size: 100000
  master list distance cutoff = 6.67472
  ghost atom cutoff = 6.67472
  binsize = 3.33736, bins = 15 15 8
  1 neighbor lists, perpetual/occasional/extra = 1 0 0
  (1) pair sw, perpetual
      attributes: full, newton on
      pair build: full/bin/atomonly
      stencil: full/bin/3d
      bin: standard
Per MPI rank memory allocation (min/avg/max) = 4.096 | 4.284 | 4.472 Mbytes
Step Temp Press Volume TotEng KinEng PotEng c_1[4] c_3 
       0    76.605821   -1210.2423    58500.543   -12658.119    925.72037   -13583.839            0          240 
      50    77.106864   -1166.6302    58537.075   -12637.082    931.77507   -13568.857   0.50340514    241.56973 
     100    78.489288    -1159.877     58582.67    -12617.49    948.48057   -13565.971   0.76986756    245.90075 
     150    78.101937   -1043.1801    58591.188   -12600.624    943.79974   -13544.424     0.903626    244.68721 
     200     80.17343   -1116.6596    58628.823   -12603.193    968.83208   -13572.025    1.0923139    251.17704 
     250    78.405707   -1005.9736    58662.697    -12632.17    947.47056    -13579.64     1.292202     245.6389 
     300    77.521921   -1229.9386    58680.261    -12633.43    936.79071   -13570.221    1.4265504    242.87007 
     350    77.602597    -1285.519    58683.703   -12629.782    937.76561   -13567.547    1.5611763    243.12282 
     400    77.171825   -1541.5958    58658.161   -12652.623    932.56007   -13585.183    1.7380281    241.77324 
     450     75.79138   -1247.5219    58569.923   -12647.255     915.8785   -13563.133    1.9817991    237.44842 
     500    76.433348    -660.3735    58570.934   -12617.613    923.63617   -13541.249    2.1320712    239.45966 
     550    76.466902   -1215.4271    58586.419   -12632.898    924.04164    -13556.94    2.2956763    239.56478 
     600    79.627294   -1095.1949    58601.111   -12623.159    962.23246   -13585.391      2.46798    249.46604 
     650    79.214842   -1216.5822    58575.118   -12614.186     957.2483   -13571.434    2.7286728    248.17385 
     700    77.964135   -798.93076    58587.345   -12637.276    942.13451   -13579.411    2.8628678    244.25549 
     750    79.068832   -1020.0293    58569.591    -12632.12    955.48389   -13587.604    2.9294935    247.71642 
     800    74.871174   -766.03589    58554.198   -12630.115    904.75854   -13534.873    3.1672252    234.56549 
     850    73.751549   -1006.0928    58507.926   -12647.047    891.22875   -13538.276    3.2758006    231.05779 
     900    76.537501   -654.03927    58517.194   -12652.776    924.89478   -13577.671    3.3826001    239.78596 
     950    80.380365   -1198.7589    58483.906   -12617.205    971.33272   -13588.538    3.5129607    251.82535 
    1000    77.136167   -396.54041    58502.393   -12651.432    932.12917   -13583.561    3.6398042    241.66153 
    1050    79.429217   -912.96739    58532.399    -12615.38    959.83886   -13575.219    3.9766121    248.84548 
    1100    78.952264    -772.4152     58553.07   -12586.209    954.07526   -13540.284    4.2493768    247.35122 
    1150    78.668287   -948.46388    58550.472   -12585.802    950.64362   -13536.446    4.4571569    246.46154 
    1200    77.282285   -524.79264    58543.515    -12605.08     933.8949   -13538.975    4.7022365    242.11931 
    1250    76.881257   -789.19434    58600.091   -12651.066    929.04879   -13580.115    4.8591076    240.86292 
    1300    76.868453   -1101.8693    58555.777   -12653.428    928.89407   -13582.322    5.0604274    240.82281 
    1350     75.61038   -1029.5567      58516.1   -12670.043    913.69125   -13583.734    5.3185442    236.88136 
    1400    76.235743    -872.7958    58496.694   -12655.525    921.24827   -13576.773    5.5724187    238.84057 
    1450    79.771025   -748.39242    58471.455   -12651.876    963.96934   -13615.846    5.7062769    249.91633 
    1500     75.90146   -729.88053    58526.177   -12683.817    917.20872   -13601.026     5.879019    237.79329 
    1550    76.829292   -1121.6182    58559.401    -12671.74    928.42083   -13600.161    6.1346352    240.70011 
    1600    75.897095   -727.47868    58549.566   -12665.815    917.15597   -13582.971    6.2222247    237.77962 
    1650    74.832623   -948.68369    58578.724   -12699.383    904.29267   -13603.676    6.3414395    234.44471 
    1700    76.956334   -1401.2611    58611.683   -12692.436    929.95604   -13622.392    6.3287386    241.09813 
    1750    75.503701   -1181.5156    58560.962   -12701.116    912.40212   -13613.518    6.4934595    236.54714 
    1800    76.805538    -741.8487    58569.115   -12694.457    928.13379   -13622.591    6.6154549     240.6257 
    1850     78.14619   -988.07589    58588.673   -12722.148     944.3345   -13666.482    6.7258937    244.82585 
    1900    75.295526   -1159.2816    58559.846   -12702.691    909.88649   -13612.578    6.8539873    235.89495 
    1950    77.394213   -829.12571     58535.18   -12694.716    935.24746   -13629.964    7.0667869    242.46997 
    2000    77.409573    -939.4372    58458.568   -12701.126    935.43306   -13636.559    7.2963442    242.51809 
    2050    74.642515   -1157.4697    58412.768   -12739.969    901.99538   -13641.964    7.3851134    233.84912 
    2100    74.783884   -1035.3806    58460.572   -12755.685    903.70371   -13659.388    7.6055935    234.29201 
    2150    74.642144   -1077.2972    58414.808   -12739.767    901.99089   -13641.758    7.8129194    233.84795 
    2200    72.877578   -927.26526    58393.121   -12724.057    880.66752   -13604.724    7.9908432    228.31971 
    2250    78.934863   -1235.4511    58369.307   -12700.425    953.86498    -13654.29    8.1477165     247.2967 
    2300    76.117138   -1120.4566    58386.404   -12690.882    919.81502   -13610.697     8.292297    238.46899 
    2350    75.329484   -885.10402     58346.18   -12683.097    910.29685   -13593.394    8.3653727    236.00134 
    2400    77.160668   -1305.3753    58358.732   -12714.123    932.42524   -13646.548    8.3888141    241.73829 
    2450    76.079647   -1135.9563    58323.083   -12708.127    919.36197   -13627.489    8.6850358    238.35154 
    2500    75.028926   -1255.5672     58272.74   -12734.733    906.66484   -13641.398    8.9346785    235.05971 
    2550    75.463426   -1013.5599    58276.525   -12723.324    911.91542   -13635.239    9.1585855    236.42096 
    2600    76.157322   -792.33036    58257.923   -12712.213    920.30061   -13632.514    9.2431025    238.59489 
    2650    76.154641   -784.59305     58292.25   -12712.931    920.26822   -13633.199    9.4500349    238.58649 
    2700    72.693127   -954.30695    58282.365   -12721.289    878.43857   -13599.727     9.607371    227.74184 
    2750    73.615474    -627.9369    58232.967   -12739.912    889.58441   -13629.496    9.9085618    230.63148 
    2800    74.246501   -874.85376    58240.405    -12721.31    897.20986   -13618.519    10.173386    232.60844 
    2850     74.70243   -1081.2106     58250.89   -12742.256    902.71939   -13644.975    10.245184    234.03682 
    2900    73.147352   -679.26394    58251.808   -12731.229    883.92752   -13615.156    10.427723    229.16489 
    2950    75.905413   -951.22074    58197.964   -12704.462    917.25649   -13621.719    10.546904    237.80568 
    3000    76.673132   -467.57073    58271.383   -12683.434    926.53376   -13609.967     10.76189    240.21088 
    3050    72.990617   -741.97615    58273.771   -12717.952     882.0335   -13599.985    10.825048    228.67385 
    3100    74.912173    -678.9489    58306.902   -12697.663    905.25398   -13602.917    11.023562    234.69393 
    3150    77.073465   -849.75186    58351.601    -12660.72    931.37147   -13592.092     11.14794    241.46509 
    3200    76.529707   -782.76252    58401.417   -12668.032    924.80059   -13592.833     11.46384    239.76154 
    3250    74.560242   -832.53284     58444.44   -12652.182    901.00116   -13553.183     11.71893    233.59136 
    3300     78.89609   -854.13656    58467.474   -12620.401    953.39644   -13573.798    11.857201    247.17523 
    3350    79.577703    -916.1585    58558.833   -12632.382     961.6332   -13594.015    12.104198    249.31067 
    3400    80.553522   -1172.8675    58526.027     -12613.5    973.42519   -13586.925    12.432138    252.36784 
    3450    78.999716   -682.28868     58553.92   -12602.341    954.64868    -13556.99    12.791806    247.49988 
    3500    78.638621   -515.43505    58530.093   -12639.947    950.28513   -13590.232    12.821513     246.3686 
    3550    75.388799   -1309.3148    58526.102   -12648.617    911.01362    -13559.63    13.004756    236.18717 
    3600    77.370416   -1069.8668    58586.725   -12647.128    934.95988   -13582.088    13.115018    242.39541 
    3650    77.110055   -1134.5045    58601.066    -12654.88    931.81362   -13586.693    13.319491    241.57972 
    3700    77.118834   -736.03147    58594.467   -12654.774    931.91972   -13586.694    13.542418    241.60723 
    3750    74.129605   -1097.5264    58597.358   -12659.856    895.79726   -13555.653    13.732221    232.24221 
    3800    77.976931   -888.43778    58580.021    -12656.52    942.28913   -13598.809    13.790865    244.29558 
    3850    77.176406   -872.63192    58601.743   -12634.162    932.61543   -13566.777    13.915774     241.7876 
    3900    79.265334   -1063.6694    58564.032   -12621.901    957.85846    -13579.76    13.915168    248.33204 
    3950    77.349313   -514.75043    58496.432    -12626.63    934.70487   -13561.335    14.214128     242.3293 
    4000    77.480664     -1188.18    58464.709   -12644.815    936.29215   -13581.107    14.272107    242.74081 
    4050    76.330029   -1083.7686    58367.555   -12662.784    922.38764   -13585.172    14.482263    239.13596 
    4100    77.898084   -1091.7941    58365.468   -12610.352    941.33633   -13551.688    14.764218    244.04856 
    4150    79.034994   -1141.0761    58387.614   -12633.326    955.07499   -13588.401    14.946701    247.61041 
    4200     77.12289   -918.25585    58401.011   -12634.223    931.96874   -13566.192    15.038014    241.61994 
    4250    76.880538   -1001.9317    58413.179   -12638.993     929.0401   -13568.033    15.313205    240.86067 
    4300    75.755733   -1050.5273    58444.118    -12652.72    915.44772   -13568.168    15.523528    237.33674 
    4350    75.124422   -1143.2223    58468.986    -12651.09    907.81883   -13558.908     15.74717    235.35889 
    4400    76.321792   -1120.5473    58485.144   -12637.318     922.2881   -13559.606    15.782057    239.11016 
    4450    79.772212   -1435.9221    58471.244   -12635.492    963.98368   -13599.475    15.846571    249.92005 
    4500    76.507134   -804.32694    58455.423   -12607.678    924.52781   -13532.206    16.122997    239.69082 
    4550    76.151063   -1105.7011    58495.353    -12610.42    920.22498   -13530.645    16.247138    238.57528 
    4600    78.726479   -915.76369    58464.177    -12617.27    951.34682   -13568.617    16.341854    246.64385 
    4650    78.295912   -1649.4061    58445.492    -12622.65    946.14377   -13568.794    16.525974    245.29492 
    4700    77.344366   -1085.4989    58490.537   -12659.565     934.6451    -13594.21    16.855158     242.3138 
    4750    75.917877   -1115.0462    58538.238   -12642.078    917.40711   -13559.485    17.161202    237.84472 
    4800    77.971935   -1166.1078    58541.387   -12640.075    942.22876   -13582.303     17.11098    244.27992 
    4850     79.42042   -1329.3839    58540.477   -12610.652    959.73255   -13570.385    17.188317    248.81791 
    4900    77.088501   -1240.1529    58545.231   -12621.189    931.55317   -13552.743    17.527012     241.5122 
    4950    75.741173   -1228.4804    58540.844   -12632.178    915.27178   -13547.449    17.884926    237.29112 
    5000    75.795212   -1073.5202    58502.943   -12645.585     915.9248    -13561.51    18.166066    237.46042 
    5050     79.34458   -1215.3298    58486.309   -12632.621    958.81609   -13591.437    18.388023    248.58031 
    5100    77.320042   -1054.2413     58478.28   -12632.929    934.35116    -13567.28    18.526237     242.2376 
    5150    78.762257   -1246.4977    58492.184   -12635.038    951.77918   -13586.818    18.475336    246.75594 
    5200    75.999419   -1076.3696    58491.393   -12633.751    918.39248   -13552.143    18.649883    238.10019 
    5250    79.247417   -970.95729    58459.103   -12632.997    957.64195   -13590.639    18.779878    248.27591 
    5300    76.952968   -647.12797    58424.206   -12631.589    929.91536   -13561.505    18.994291    241.08758 
    5350    75.006672   -1012.4675    58429.104   -12658.017    906.39592   -13564.413    19.125504    234.98999 
    5400    74.039477   -1125.8054     58465.89   -12659.187    894.70814   -13553.895      19.1439    231.95985 
    5450     78.34735   -1234.6489    58465.856   -12640.065    946.76536    -13586.83    19.342725    245.45607 
    5500    76.719578   -1194.3394    58498.719   -12678.427    927.09502   -13605.522    19.465802    240.35639 
    5550    78.201039   -1165.0194    58480.851   -12678.912    944.99731   -13623.909    19.579095    244.99769 
    5600    77.182606   -1102.5524      58429.3   -12698.539    932.69035   -13631.229    19.577182    241.80702 
    5650     75.68808   -984.04935    58407.529   -12726.602     914.6302   -13641.232    19.901769    237.12479 
    5700    73.669307   -527.69389    58434.551   -12738.982    890.23493   -13629.217    20.007004    230.80013 
    5750    75.863294   -1348.0734    58418.268   -12721.409    916.74752   -13638.157    20.456929    237.67372 
    5800    77.665624   -987.04226    58423.333   -12726.251    938.52724   -13664.778    20.729288    243.32028 
    5850    74.664342   -1104.3882    58428.304   -12732.587    902.25914   -13634.846    20.988765     233.9175 
    5900     73.36863   -912.13031    58491.844   -12698.579    886.60149    -13585.18    21.196497    229.85814 
    5950    77.555389   -1013.2857    58524.564   -12646.405    937.19514     -13583.6    21.380245    242.97492 
    6000    73.886215   -868.55278    58549.762   -12695.174    892.85609    -13588.03    21.279094    231.47969 
    6050    76.698809   -717.94032    58637.878    -12688.33    926.84405   -13615.174    21.490331    240.29132 
    6100    76.884928   -702.05757     58699.14   -12656.968    929.09315   -13586.061     22.02565    240.87442 
    6150    80.410895   -654.31572     58757.12   -12630.509    971.70165   -13602.211    22.266119    251.92099 
    6200    78.301619   -1383.0257    58732.492   -12655.329    946.21274   -13601.542    22.639961     245.3128 
    6250    78.047756   -715.79403    58782.612   -12663.823    943.14501   -13606.968    22.997193    244.51747 
    6300    76.342942   -997.50282     58836.08   -12713.321    922.54368   -13635.864    23.535333    239.17642 
    6350    76.762348   -1154.7821    58851.689   -12715.012    927.61187   -13642.624     24.01818    240.49039 
    6400     73.59709   -971.39124    58834.685   -12699.323    889.36224   -13588.685    24.270333    230.57388 
    6450    74.933513   -718.78003    58840.907   -12718.925    905.51185   -13624.437    24.391933    234.76079 
    6500    75.433055   -1060.5258    58840.249   -12752.755    911.54843   -13664.304    24.543601    236.32582 
    6550    74.625682   -1072.5167    58822.351    -12720.44    901.79196   -13622.232    24.637159    233.79638 
    6600    78.858785   -687.60505    58783.719   -12690.952    952.94564   -13643.897    24.876166    247.05836 
    6650    76.682784   -987.40859    58754.432   -12691.136     926.6504   -13617.786    24.786316    240.24112 
    6700    77.013936   -983.56687    58732.211   -12649.103     930.6521   -13579.756    24.922231    241.27859 
    6750    76.259269   -840.08389    58711.666   -12644.792    921.53255   -13566.324    25.229498    238.91428 
    6800    76.379452   -735.55914    58746.131   -12662.801    922.98488   -13585.785    25.390365     239.2908 
    6850    76.559973   -1137.2329    58784.796   -12673.122    925.16632   -13598.289     25.47524    239.85636 
    6900    78.642168   -818.25347    58752.363   -12676.595      950.328   -13626.923     25.51295    246.37971 
    6950    75.269164   -984.64796    58764.369   -12659.938    909.56793   -13569.506    25.753231    235.81236 
    7000    79.149081   -895.69537    58766.826   -12639.528    956.45363   -13595.982    25.851618    247.96783 
    7050    75.174636   -971.30696     58710.33   -12663.152    908.42563   -13571.578    26.183559    235.51621 
    7100    74.886104   -1091.9143     58694.15   -12693.695    904.93895   -13598.633    26.296035    234.61226 
    7150    74.928719   -1218.1001    58630.239   -12707.411    905.45392   -13612.865    26.231926    234.74577 
    7200    75.994802   -983.04767    58588.345   -12717.947    918.33668   -13636.284    26.283648    238.08572 
    7250    73.363359   -1204.4143    58551.876   -12729.144    886.53779   -13615.682    26.201441    229.84162 
    7300    72.417601   -769.31739    58543.818   -12727.026    875.10906   -13602.135    26.205571    226.87864 
    7350    76.601051   -724.63741    58526.037   -12697.331    925.66272   -13622.994    26.281578    239.98505 
    7400    76.558875   -1004.2183    58541.646    -12712.63    925.15306   -13637.783    26.583175    239.85292 
    7450    76.191921    -932.0429    58593.087    -12715.88    920.71871   -13636.599    26.769726    238.70328 
    7500    73.987129   -857.06204    58561.977   -12708.259    894.07556   -13602.334    26.909518    231.79584 
    7550    74.994571    -594.5949    58511.231   -12710.213    906.24969   -13616.463    27.237489    234.95208 
    7600    76.296735   -739.61671    58523.085   -12722.658    921.98531   -13644.643    27.399424    239.03166 
    7650    78.935963   -823.97629    58574.881   -12688.874    953.87828   -13642.752    27.421643    247.30015 
    7700    78.044225   -1015.0293    58659.642   -12714.655    943.10233   -13657.757    27.402029     244.5064 
    7750    77.445142   -638.40607    58664.928   -12720.859    935.86289   -13656.722    27.609505    242.62953 
    7800    76.461365   -1055.5379    58651.397   -12691.633    923.97473   -13615.607    27.743007    239.54743 
    7850    77.600966   -723.19911    58639.321   -12713.353     937.7459   -13651.099    28.040227    243.11771 
    7900    79.156216     -1439.09    58643.281   -12700.098    956.53986   -13656.638     27.97598    247.99019 
    7950     76.67627   -870.64945    58631.438   -12708.552    926.57168   -13635.124    28.220072    240.22071 
    8000    77.860521   -766.80017    58634.559     -12708.4    940.88241   -13649.283    28.630407    243.93087 
    8050     76.48095   -1186.7887    58613.894   -12734.481     924.2114   -13658.692    28.859428    239.60879 
    8100    77.593323   -839.29027    58605.439   -12734.809    937.65354   -13672.463     28.55004    243.09377 
    8150    76.430432    -1500.089    58590.444   -12744.448    923.60093   -13668.049    28.701284    239.45052 
    8200    78.110877   -1004.9052    58569.515   -12728.794    943.90776   -13672.702    28.907322    244.71522 
    8250    75.637461   -987.81374    58594.629    -12739.72    914.01851   -13653.739    29.068226     236.9662 
    8300    76.437275   -1072.8567    58608.153   -12711.379    923.68362   -13635.063     29.26952    239.47196 
    8350    78.543412   -1199.0023    58614.015   -12738.495    949.13461   -13687.629    29.414162    246.07032 
    8400    77.220653   -1384.1375    58629.014   -12738.907    933.15011   -13672.057    29.650664    241.92622 
    8450    74.735213   -1216.7071    58647.533   -12745.439    903.11556   -13648.555      29.9023    234.13953 
    8500    74.412076   -1064.3394    58673.663    -12751.64     899.2107    -13650.85    29.901314    233.12717 
    8550    77.984101   -875.51238    58673.599   -12754.548    942.37578   -13696.924    29.981819    244.31804 
    8600    78.371633   -944.45249    58706.601   -12722.756    947.05879   -13669.814    30.133238    245.53215 
    8650    77.783381   -1078.1711    58706.118   -12738.835    939.95024   -13678.785    30.214791     243.6892 
    8700    77.248131   -1124.5375    58708.389   -12744.502    933.48217   -13677.984    30.274656    242.01231 
    8750    76.567751   -1032.6028    58678.128   -12729.405    925.26032   -13654.665    30.542527    239.88073 
    8800    75.946961   -1194.4186    58670.998   -12730.463    917.75857   -13648.221    30.766339    237.93584 
    8850      76.4756    -912.4909    58648.927   -12703.804    924.14675   -13627.951    30.959706    239.59203 
    8900     75.87718   -1262.7627    58652.399   -12718.211    916.91532   -13635.126    31.093506    237.71722 
    8950    75.970846   -787.65086    58672.775   -12702.074    918.04719   -13620.121    31.073891    238.01067 
    9000    77.325898   -859.82064    58642.457   -12737.523    934.42192   -13671.945    31.409242    242.25594 
    9050    77.237698   -710.24849    58651.047   -12734.574    933.35609    -13667.93    31.580138    241.97962 
    9100    74.809267   -936.09335    58622.791   -12727.218    904.01044   -13631.228     31.63128    234.37154 
    9150    73.849673   -799.78626    58572.308   -12737.348    892.41451   -13629.762    31.559503     231.3652 
    9200    77.918853   -1314.6988    58555.293   -12738.484    941.58731   -13680.072     31.68282    244.11363 
    9250    76.674697   -928.62716    58501.428   -12687.292    926.55268   -13613.845    31.824584    240.21578 
    9300    78.376739   -1335.3835    58480.112   -12688.033     947.1205   -13635.153    32.026793    245.54815 
    9350    76.724775   -1418.3348    58431.187   -12700.221    927.15783   -13627.379    32.060911    240.37267 
    9400    74.704917   -1475.0819    58361.866   -12713.506    902.74945   -13616.255    32.200844    234.04462 
    9450    75.527833   -841.32921    58339.083   -12687.203    912.69373   -13599.897    32.439677    236.62275 
    9500    76.465212   -1123.2217    58354.301   -12716.543    924.02122   -13640.565    32.479542    239.55948 
    9550    76.504836   -746.57995    58352.084   -12701.092    924.50004   -13625.592    32.306223    239.68362 
    9600    76.371173   -962.05715    58387.785   -12726.549    922.88483   -13649.434    32.387039    239.26487 
    9650    76.978191   -930.06858    58381.859   -12722.738    930.22016   -13652.958    32.362157     241.1666 
    9700    79.685773   -1307.0997    58357.632   -12720.565    962.93913   -13683.504    32.482393    249.64924 
    9750    75.640111   -750.30268    58337.544   -12754.542    914.05053   -13668.593    32.721578    236.97451 
    9800    74.167014   -943.68562    58410.687   -12755.728    896.24932   -13651.978    33.277645    232.35941 
    9850    74.116552   -718.34731    58467.777   -12771.016    895.63953   -13666.656    33.644914    232.20132 
    9900    76.678675   -749.44432    58487.243   -12726.556    926.60075   -13653.157     33.48101    240.22824 
    9950    76.631623   -421.12841    58492.956   -12711.234    926.03216   -13637.266    33.823274    240.08083 
   10000    77.166315   -757.98404    58504.788   -12750.958    932.49349   -13683.452    33.844285    241.75598 
   10050    77.122963   -727.00256    58483.699   -12753.772    931.96962   -13685.742     33.71098    241.62017 
   10100    74.975083   -807.35965    58526.573   -12742.691    906.01419   -13648.706     33.89267    234.89102 
   10150    73.231519    -992.5799     58589.22   -12773.884    884.94462   -13658.829    33.990819    229.42858 
   10200    75.758485   -948.34483    58602.749   -12737.872    915.48098   -13653.353     34.11047    237.34536 
   10250    76.851796   -933.96235     58608.85   -12721.768    928.69278    -13650.46    34.120875    240.77062 
   10300    75.886433    -966.5556    58628.624    -12745.34    917.02713   -13662.367    34.242323    237.74621 
   10350     75.92337   -1125.1804    58658.568   -12748.542    917.47349   -13666.015    34.553953    237.86193 
   10400    75.622238   -878.60279    58651.427   -12765.197    913.83455   -13679.031    34.719965    236.91851 
   10450    74.730635   -1038.6276    58604.161   -12755.129    903.06024   -13658.189    34.696109    234.12519 
   10500    72.299842   -867.42007    58586.218   -12751.105    873.68604   -13624.791    34.721566    226.50971 
   10550    77.497093   -838.56462    58573.424    -12735.99    936.49068    -13672.48    34.860075    242.79228 
   10600    76.389031   -940.60039    58604.167   -12755.138    923.10062   -13678.239    35.016898    239.32081 
   10650    74.251769   -591.75876    58630.203   -12772.212    897.27352   -13669.486    35.185101    232.62494 
   10700    75.897016   -1109.9713    58687.551   -12768.106    917.15502   -13685.261    35.417896    237.77937 
   10750    76.258811    -1027.751    58686.391   -12759.225    921.52703   -13680.752    35.203345    238.91285 
   10800    76.824114    -879.4831    58702.899   -12742.561    928.35827    -13670.92     35.02362    240.68389 
   10850    75.819763   -756.86979    58722.705    -12730.95    916.22148   -13647.171    34.769463    237.53734 
   10900    75.292566   -991.78553    58693.071    -12743.62    909.85072   -13653.471    34.776395    235.88567 
   10950    75.805104   -1162.8858    58670.307   -12783.114    916.04433   -13699.158    34.748612    237.49141 
   11000    75.459904   -1160.6761    58616.326   -12787.883    911.87287   -13699.756     34.86669    236.40993 
   11050    74.133595   -959.41985    58591.106   -12794.843    895.84548   -13690.688    34.974254    232.25471 
   11100    76.022825   -1040.2651    58557.259   -12775.971    918.67532   -13694.646    35.117261    238.17352 
   11150    75.107288   -949.51716    58595.518   -12782.811    907.61179   -13690.423     35.13294    235.30521 
   11200    74.516456   -854.08089    58598.158   -12794.431    900.47205   -13694.903     35.46467    233.45418 
   11250    74.620889   -728.21505    58609.437   -12785.221    901.73404   -13686.955    35.840743    233.78136 
   11300    76.047929   -787.03269    58652.192   -12776.625    918.97869   -13695.603    36.271095    238.25217 
   11350    77.887907   -681.70095    58641.393   -12758.775    941.21336   -13699.988    36.249625    244.01667 
   11400    75.101927   -1093.1221    58668.548   -12773.176    907.54701   -13680.723    36.767019    235.28842 
   11450     76.23653   -1049.4534    58691.354    -12776.05    921.25777   -13697.308    36.861724    238.84304 
   11500    77.941392   -1058.2289    58651.086    -12747.18    941.85967    -13689.04    36.858881    244.18424 
   11550    77.084969   -823.48272    58681.897   -12743.411    931.51049   -13674.921    36.954436    241.50113 
   11600    73.793588   -1147.5885    58702.587   -12763.104    891.73677    -13654.84    36.963528     231.1895 
   11650    74.377178   -1040.9829    58748.484   -12766.092    898.78899   -13664.881    36.828207    233.01784 
   11700    78.581075   -596.25844     58782.43   -12732.698    949.58973   -13682.287    36.885644    246.18831 
   11750    76.718562   -1084.3246    58856.472   -12727.134    927.08275   -13654.217     37.04279    240.35321 
   11800    78.647048   -1257.6026    58836.999   -12699.975    950.38697   -13650.362    37.169098      246.395 
   11850    79.179844   -1248.2162    58826.122   -12724.793    956.82538   -13681.619    37.273529    248.06421 
   11900    77.817227    -1015.438    58768.586   -12697.944    940.35924   -13638.303    37.536409    243.79524 
   11950    76.009047   -1226.1753    58731.002   -12726.147    918.50883   -13644.656    37.564574    238.13035 
   12000    76.321059   -1215.7368    58695.832   -12740.431    922.27925    -13662.71    37.506363    239.10786 
   12050    78.043852   -1090.7073    58751.411   -12741.979    943.09782   -13685.076    37.192411    244.50524 
   12100    77.951418   -1132.2575    58769.834   -12719.735    941.98083   -13661.715    37.051072    244.21565 
   12150    80.823766   -1223.7306     58686.84   -12701.466    976.69087   -13678.157    36.957217    253.21449 
   12200    76.784482    -919.4274    58678.601   -12740.117    927.87934   -13667.996    36.983773    240.55973 
   12250    78.029276   -943.97973    58673.299   -12708.626    942.92169   -13651.548    37.084648    244.45957 
   12300    77.353208   -1104.7425    58667.423    -12730.23    934.75194   -13664.982    37.289914     242.3415 
   12350    78.930858   -1396.9346    58655.839    -12715.94    953.81659   -13669.757    37.359121    247.28416 
   12400    78.513572   -1249.9014    58671.055   -12714.359    948.77401   -13663.133     37.55351    245.97683 
   12450    78.401878   -911.49898    58668.065   -12713.102    947.42429   -13660.526    37.686419     245.6269 
   12500    77.629188   -1081.7181    58649.986   -12662.285    938.08694   -13600.372    37.919205    243.20613 
   12550    76.785352   -1381.0182    58636.452   -12670.978    927.88986   -13598.868    38.157319    240.56246 
   12600    75.768993   -1060.3063    58641.869   -12675.254    915.60797   -13590.862    38.283886    237.37828 
   12650    77.451377   -894.04066    58652.659   -12688.452    935.93823    -13624.39    38.591547    242.64906 
   12700    74.948692   -1187.7642    58679.728   -12703.963    905.69529   -13609.659    38.551864    234.80835 
   12750    78.336497   -1018.0675    58678.264   -12699.096     946.6342   -13645.731    38.509965    245.42207 
   12800    80.373816   -1093.7342    58685.356   -12694.397    971.25358    -13665.65    38.659769    251.80483 
   12850    77.910379    -958.8319    58695.306    -12705.41    941.48491   -13646.895    38.524764    244.08708 
   12900    76.385932   -1040.0998    58677.208   -12708.054    923.06318   -13631.117    38.716895     239.3111 
   12950    78.539155   -1466.5754    58665.198   -12700.235    949.08317   -13649.318    38.691942    246.05698 
   13000    77.822174   -971.90188    58638.674   -12694.089    940.41902   -13634.508    38.723322    243.81074 
   13050    76.771347   -1115.2142    58618.201   -12703.576    927.72061   -13631.296    39.024962    240.51858 
   13100    81.837341   -1570.8297    58584.414   -12691.895    988.93912   -13680.834    38.878728    256.38994 
   13150    78.011249   -1301.4142     58526.32   -12661.339    942.70385   -13604.043    38.812775     244.4031 
   13200    79.687749   -980.65804     58545.12   -12669.289    962.96301   -13632.252    39.198344    249.65544 
   13250     78.11914   -1369.0252    58500.445   -12663.293    944.00762     -13607.3    39.379329    244.74111 
   13300    78.933309   -1114.2436    58523.974   -12680.556    953.84621   -13634.402    39.497783    247.29184 
   13350    76.748536   -1165.2132    58537.485   -12711.673    927.44496   -13639.118    39.654532    240.44711 
   13400    76.127227   -1201.1985    58521.892   -12696.622    919.93694   -13616.559    39.733257     238.5006 
   13450    76.994307    -959.8714    58510.958    -12714.05    930.41491   -13644.465    39.691478    241.21709 
   13500    76.297761   -1308.3803    58516.494   -12729.014    921.99771   -13651.012    39.662485    239.03487 
   13550    76.689913   -1033.6039    58530.527   -12694.508    926.73655   -13621.245    39.717153    240.26345 
   13600    75.786638   -1213.6181    58506.518   -12670.865    915.82118   -13586.686    40.013262    237.43356 
   13650    76.425832   -1255.6445    58489.648   -12688.631    923.54534   -13612.177    40.215042    239.43611 
   13700    77.177094   -1294.8637     58447.53   -12672.001    932.62375   -13604.625    40.230248    241.78975 
   13750    78.688012   -1381.8938    58475.801   -12637.093    950.88198   -13587.975    40.663363    246.52334 
   13800    81.248793   -719.14884    58489.214   -12625.102    981.82699   -13606.929     40.99933    254.54607 
   13850    77.770635   -660.75965    58493.511   -12655.631    939.79621   -13595.428    41.409675    243.64927 
   13900    75.009433   -854.85583    58468.096   -12689.017    906.42928   -13595.447     41.58013    234.99864 
   13950    72.185695   -1159.3292    58471.359   -12712.649    872.30666   -13584.955    41.390363    226.15209 
   14000    74.748952   -1232.2106    58475.133   -12715.272    903.28159   -13618.553    41.243593    234.18258 
   14050    76.078558   -1171.0868     58464.14   -12724.399    919.34881   -13643.748    41.583825    238.34813 
   14100    75.404451    -671.5935    58523.058   -12711.403    911.20276   -13622.606    41.955907     236.2362 
   14150     77.14544   -1068.4186    58513.575   -12700.815    932.24123   -13633.057    41.999111    241.69058 
   14200    77.343467   -943.45515    58473.471   -12691.337    934.63423   -13625.971    42.454941    242.31099 
   14250    74.124427   -1035.8378    58436.493   -12728.212     895.7347   -13623.947    42.860162    232.22599 
   14300    74.316807   -1150.7629    58355.546   -12727.274    898.05945   -13625.334    43.474431     232.8287 
   14350    76.139405   -1254.6349    58386.566   -12716.106     920.0841    -13636.19    43.689282    238.53875 
   14400    77.371653   -675.13023    58440.184   -12700.254    934.97484   -13635.229    43.665296    242.39929 
   14450    76.358977   -870.02215    58441.658   -12697.084    922.73745   -13619.821    43.449028    239.22666 
   14500    77.185456   -1290.1562    58422.918   -12683.366    932.72479    -13616.09    43.715173    241.81595 
   14550    78.197938   -704.07065    58438.011   -12657.823    944.95983   -13602.782    43.947103    244.98798 
   14600    79.864876   -329.06155    58486.724   -12636.555    965.10345   -13601.659    44.005178    250.21036 
   14650    79.714766   -894.64681    58593.594   -12670.438    963.28949   -13633.727    44.204486    249.74008 
   14700    80.051737   -1036.7458    58645.064   -12668.209    967.36152    -13635.57    44.413324    250.79578 
   14750    77.615894   -1104.0794    58642.612   -12698.282     937.9263   -13636.209    44.919345    243.16448 
   14800    77.523713   -1002.2684    58645.102   -12697.386    936.81236   -13634.199    45.462303    242.87568 
   14850    76.201316   -1004.5417    58675.381    -12698.36    920.83225   -13619.193    45.472092    238.73272 
   14900    76.988538   -925.88097    58641.961   -12725.253    930.34519   -13655.598    45.589123    241.19902 
   14950    76.118468   -1172.2666    58635.344    -12730.76     919.8311   -13650.592    45.663251    238.47316 
   15000    76.772485   -852.26566    58718.956   -12721.099    927.73436   -13648.834    45.589862    240.52214 
   15050    79.403991   -1225.3376    58747.112   -12718.443    959.53403   -13677.977    45.819539    248.76645 
   15100    75.872398   -868.84548    58760.078   -12712.746    916.85754   -13629.603     45.85942    237.70224 
   15150     75.07837   -880.87839    58800.306   -12742.705    907.26233   -13649.968    45.985932    235.21461 
   15200    76.237113   -1285.6905    58780.082   -12729.647    921.26482   -13650.911    46.172531    238.84487 
   15250    74.423133   -1264.2684    58768.343   -12726.864    899.34431   -13626.208    46.334065    233.16181 
   15300    76.851704   -984.87893    58779.438   -12706.104    928.69166   -13634.796     46.14982    240.77033 
   15350     74.97299   -1097.4678    58793.455   -12732.045     905.9889   -13638.034    46.094219    234.88447 
   15400    75.666036   -1357.8236    58777.683   -12732.919    914.36381   -13647.283    46.091852    237.05573 
   15450    77.264603   -938.16107    58743.971   -12723.015    933.68122   -13656.696    46.222536    242.06391 
   15500    78.270394   -1390.7303    58755.257   -12737.708     945.8354   -13683.544    46.178046    245.21497 
   15550     76.70208   -1221.8736    58739.622    -12768.58    926.88358   -13695.464    46.206604    240.30157 
   15600    75.361183   -964.97812    58736.512   -12759.573    910.67991   -13670.253    46.362499    236.10065 
   15650     77.81601   -879.73264    58744.839   -12713.081    940.34454   -13653.425    46.680695    243.79143 
   15700    77.391287   -1207.4925    58722.021   -12730.801     935.2121   -13666.013    46.825122     242.4608 
   15750    74.268157   -793.42152    58699.494   -12747.514    897.47156   -13644.986    47.023416    232.67628 
   15800    76.085252   -916.81207    58740.547   -12737.778    919.42971   -13657.208    47.370253     238.3691 
   15850    75.208321   -952.95792    58814.765   -12733.882    908.83269   -13642.714    47.134195    235.62174 
   15900    74.892417   -1255.0726    58867.215   -12725.901    905.01524   -13630.917    47.306573    234.63204 
   15950    76.461737   -1163.6859    58887.904   -12699.411    923.97922    -13623.39     47.44375    239.54859 
   16000    79.067267   -1108.9649    58848.932   -12714.242    955.46498   -13669.707     47.48918    247.71152 
   16050    77.595349   -1384.9341    58801.489    -12708.73    937.67802   -13646.408    47.417782    243.10011 
   16100    78.399402    -1033.197    58762.426   -12707.491    947.39437   -13654.885    47.581288    245.61915 
   16150    75.296018   -1292.1335    58753.961   -12727.172    909.89243   -13637.064    47.806042    235.89649 
   16200    74.871538    -986.1938    58734.065   -12720.921    904.76294   -13625.684     48.03891    234.56663 
   16250    75.675173   -770.19689    58728.755   -12695.944    914.47422   -13610.418    48.277861    237.08435 
   16300    76.555991   -1222.0961     58704.26   -12698.649    925.11821   -13623.767     48.17102    239.84389 
   16350    76.474717   -1191.6874    58645.613   -12702.428    924.13607   -13626.564    48.388637    239.58926 
   16400    77.101724   -1205.0725     58652.45   -12708.102    931.71296   -13639.815    48.652202    241.55362 
   16450    75.922287   -872.61514    58673.265   -12724.802     917.4604   -13642.262    48.652064    237.85854 
   16500    77.345705   -1110.2631    58675.424   -12703.252    934.66128   -13637.913    48.530611      242.318 
   16550     75.50945   -1139.0459    58656.596   -12698.806    912.47159   -13611.278    48.636809    236.56516 
   16600    80.019895   -1581.2808    58699.547    -12675.81    966.97673   -13642.787    49.172955    250.69602 
   16650    76.147577   -1315.2477    58715.966   -12671.354    920.18285   -13591.537    49.434856    238.56436 
   16700    77.132029   -1492.8697    58733.132   -12671.257    932.07917   -13603.336    49.744287    241.64857 
   16750    77.752891   -1243.0201    58670.167    -12702.42     939.5818   -13642.002    49.695646    243.59368 
   16800    75.600765   -1339.1541    58649.202   -12703.801    913.57507   -13617.376    49.838254    236.85124 
   16850    73.932039   -1104.4008     58671.86   -12745.598    893.40983   -13639.008    50.049591    231.62325 
   16900    75.284119   -891.69912     58676.79    -12754.55    909.74865   -13664.299     50.05511    235.85921 
   16950    76.609747   -1031.7058    58702.027   -12749.888     925.7678   -13675.656    50.283523     240.0123 
   17000    75.250471    -908.3135    58725.107   -12746.075    909.34204   -13655.417    50.234036    235.75379 
   17050    81.135643   -676.64603    58708.588   -12728.382    980.45966   -13708.841    50.490886    254.19158 
   17100    76.060931   -1004.2673    58672.623   -12706.568     919.1358   -13625.704    50.783154     238.2929 
   17150    77.748104   -1369.6696    58677.705   -12711.874    939.52394   -13651.398     50.98528    243.57868 
   17200    77.962708   -967.26737    58627.842   -12710.808    942.11727   -13652.926    50.972778    244.25102 
   17250    76.509016   -1042.9899    58615.009   -12722.002    924.55056   -13646.552    51.324882    239.69672 
   17300    75.725045   -679.48741    58669.979   -12712.605    915.07688   -13627.682     51.37837     237.2406 
   17350    76.638638   -749.65942    58668.705   -12712.433    926.11693    -13638.55    51.846514    240.10281 
   17400    74.036547   -1233.7997    58635.938   -12724.214    894.67273   -13618.886     51.97734    231.95066 
   17450    77.695554   -886.77821    58597.698   -12725.211    938.88892     -13664.1    52.039722    243.41405 
   17500    76.396835   -1061.1454    58624.791   -12732.913    923.19493   -13656.108    52.090781    239.34526 
   17550    76.374052   -803.90118    58647.811   -12715.763    922.91962   -13638.682    52.156165    239.27389 
   17600    77.336288   -1203.2913    58624.326   -12739.277    934.54747   -13673.824    52.160561    242.28849 
   17650     76.86533    -1063.508    58567.913   -12734.104    928.85632   -13662.961    52.350412    240.81302 
   17700    76.048848   -934.95049     58585.99   -12711.855    918.98979   -13630.845    52.349162    238.25505 
   17750    77.211175   -946.14115    58645.266   -12690.674    933.03559    -13623.71    52.558817    241.89653 
   17800    76.232713    -997.4636    58656.484   -12724.951    921.21165   -13646.163    52.817247    238.83108 
   17850    76.306267   -759.56612    58682.876   -12708.664    922.10049   -13630.764    53.060002    239.06152 
   17900    76.028406   -1087.3542     58757.71   -12735.271    918.74276   -13654.014    53.182826      238.191 
   17950    74.213483   -1118.3648     58709.58   -12731.167    896.81086   -13627.978    52.923534    232.50499 
   18000     76.48834   -1191.7027    58704.812    -12725.21     924.3007    -13649.51    52.896829    239.63194 
   18050    76.945229   -883.59641    58727.283   -12743.496    929.82184   -13673.318    52.959525    241.06334 
   18100    77.436455   -984.59766    58672.149   -12747.649    935.75791   -13683.406    53.050357    242.60231 
   18150    75.303101   -768.72657    58716.825   -12731.304    909.97803   -13641.282    53.097304    235.91868 
   18200    78.330998   -1064.0883    58733.194   -12720.137    946.56775   -13666.705    53.376743    245.40484 
   18250    74.318071   -893.32119    58735.059   -12752.917    898.07473   -13650.992    53.078708    232.83266 
   18300     76.37512   -949.08286    58684.885   -12727.784    922.93252   -13650.717    52.949177    239.27723 
   18350    78.880702   -983.30396     58692.24   -12694.392     953.2105   -13647.602    53.358782    247.12702 
   18400     77.58601   -1371.8137     58695.86   -12720.719    937.56517   -13658.284     53.67303    243.07085 
   18450    75.704918   -1177.2389    58719.993   -12715.646    914.83366   -13630.479    54.054634    237.17754 
   18500    78.636183   -818.23503    58720.489    -12694.94    950.25568   -13645.196    54.165784    246.36096 
   18550    76.479261   -837.05833    58760.439   -12724.021    924.19099   -13648.212    54.173972     239.6035 
   18600    78.040388   -790.87022    58815.329   -12714.244    943.05597     -13657.3    54.603798    244.49439 
   18650    76.884255   -839.34394    58855.116   -12704.864    929.08502   -13633.949    54.965865    240.87231 
   18700    77.577176   -1138.5157     58869.01   -12680.932    937.45841    -13618.39    55.227179    243.04318 
   18750    77.724455   -1357.6871    58837.815   -12679.211    939.23816    -13618.45    55.304155    243.50459 
   18800    80.039156    -1017.506    58753.806   -12686.332    967.20949   -13653.542    55.246943    250.75637 
   18850    80.872032    -790.9612    58750.067   -12667.303    977.27413   -13644.577    55.361873     253.3657 
   18900    78.148437   -1006.5039    58825.094   -12649.522    944.36165   -13593.884    55.539069    244.83289 
   18950    81.784207   -1209.1193    58822.922   -12668.888    988.29704   -13657.185    55.747754    256.22347 
   19000    77.062681   -1014.5354    58826.442   -12686.539    931.24115    -13617.78    55.647835    241.43131 
   19050    77.294226   -780.21153    58821.068   -12699.188    934.03918   -13633.227    55.705089    242.15672 
   19100    78.016719   -1049.5893    58830.164    -12702.26    942.76995   -13645.029    55.894182    244.42023 
   19150    76.379438   -709.88058    58851.221   -12701.189    922.98471   -13624.173    56.145032    239.29076 
   19200    80.990472   -1083.4299    58876.119    -12687.37    978.70538   -13666.075    56.374052    253.73676 
   19250    79.709104   -798.25724     58873.12   -12710.649    963.22107    -13673.87    56.406355    249.72234 
   19300    76.379571   -1247.0179    58825.711   -12749.417    922.98631   -13672.404     56.52102    239.29118 
   19350    76.388356    -1267.627     58816.25   -12727.071    923.09247   -13650.164    56.873857     239.3187 
   19400    76.911332   -999.31883    58772.402   -12713.585    929.41222   -13642.997    57.108993    240.95714 
   19450    75.297766   -1114.5134    58709.323   -12740.742    909.91356   -13650.655    57.053444    235.90196 
   19500    75.372534   -1048.6329    58739.049   -12740.447    910.81707   -13651.265      57.4316    236.13621 
   19550    77.759566   -853.19548    58817.263   -12764.443    939.66246   -13704.105    57.533669    243.61459 
   19600    76.076785   -1027.7353    58833.032    -12797.92    919.32739   -13717.248    57.580258    238.34257 
   19650    73.801027    -1465.678    58852.919   -12800.873    891.82666   -13692.699    57.812376     231.2128 
   19700    75.235021    -1084.632    58854.835   -12778.502    909.15534   -13687.658    57.584585    235.70539 
   19750    74.236738    -1037.825    58882.038   -12808.421    897.09188   -13705.513    57.588916    232.57785 
   19800    74.759453   -1063.4194    58923.724   -12814.546    903.40847   -13717.955    57.734697    234.21547 
   19850    73.168592   -1156.6691    58933.991   -12807.182    884.18419   -13691.366     57.97719    229.23143 
   19900    73.731799   -819.23277    58908.715   -12784.185     890.9901   -13675.175    58.209613    230.99591 
   19950    74.485466   -1245.8539    58909.323   -12805.506    900.09756   -13705.603    58.244834    233.35709 
   20000    74.628366    -983.9171    58910.883   -12797.291    901.82439   -13699.116    58.330653    233.80479 
   20050    76.889137   -1199.2042    58922.938   -12809.274    929.14401   -13738.418    58.477751     240.8876 
   20100    76.278722   -888.20289    58957.346   -12814.187    921.76763   -13735.954    58.712137    238.97522 
   20150    75.231833    -1264.358     58948.89   -12812.423    909.11681    -13721.54    58.808073     235.6954 
   20200    74.974668   -1083.6042    58893.444   -12811.611    906.00918    -13717.62    58.663313    234.88972 
   20250    77.612793   -1289.8382    58950.426   -12803.697    937.88881   -13741.586    58.951609    243.15476 
   20300    75.496799   -1034.1446    58936.463   -12788.737    912.31872   -13701.055    58.687327    236.52552 
   20350    74.687341   -822.73075    59024.464   -12825.764    902.53706   -13728.301     58.66293    233.98955 
   20400     74.76467   -1128.0569    59032.392   -12835.774    903.47153   -13739.246     58.75787    234.23182 
   20450    74.687891   -1146.9565    59006.001   -12837.922    902.54371   -13740.466    58.957526    233.99128 
   20500    77.302242   -1416.1671    59018.577   -12796.324    934.13605    -13730.46    58.964245    242.18183 
   20550     78.90345   -1003.1656    59040.631   -12784.557    953.48539   -13738.042    58.976714    247.19829 
   20600    77.764267   -1146.9784    59039.083   -12770.196    939.71927   -13709.915     59.16675    243.62932 
   20650    77.208526   -1297.5236    58960.633   -12773.664    933.00357   -13706.668    59.035319    241.88822 
   20700     78.63624   -1113.8435    58942.651    -12778.26    950.25636   -13728.516    59.211261    246.36114 
   20750    75.535859   -1013.1503    58924.689   -12812.539    912.79073    -13725.33    59.090695    236.64789 
   20800    73.612934   -953.27147    58947.677   -12812.018     889.5537   -13701.572    59.029057    230.62352 
   20850    76.652434   -1097.1481    58973.366   -12799.976    926.28365    -13726.26    58.805445    240.14603 
   20900    74.890113   -1436.2909    58955.527   -12779.235     904.9874   -13684.222    59.264006    234.62482 
   20950     78.09722   -1009.0665    58959.944     -12763.6    943.74274   -13707.343    59.698653    244.67243 
   21000    79.444101    -1583.738    58920.975     -12785.6    960.01872   -13745.619    60.111433    248.89211 
   21050    78.438759   -1165.2849      58895.9   -12799.929    947.86996   -13747.799    59.786104    245.74245 
   21100    77.501884   -1169.7739    58911.251   -12796.297    936.54858   -13732.846    60.362246    242.80729 
   21150    76.077931   -1344.3417    58932.133   -12798.983    919.34123   -13718.324    60.453354    238.34616 
   21200    77.219419   -1161.1686    58946.841   -12778.806    933.13521   -13711.941    60.332597    241.92235 
   21250    77.179672   -1177.0317    58927.049    -12750.32    932.65489   -13682.975    60.270984    241.79783 
   21300    78.943334   -1157.0354    58882.979   -12783.087    953.96735   -13737.055     60.36349    247.32324 
   21350    76.924615   -875.18464    58922.648   -12785.452    929.57273   -13715.025    60.509234    240.99875 
   21400    77.267194   -1136.2338    59022.498   -12774.566    933.71253   -13708.278    60.565393    242.07203 
   21450    79.327543   -1009.3369    58983.878   -12752.121    958.61021   -13710.731    60.358782    248.52694 
   21500    73.863051   -1092.1939    58999.426   -12766.496    892.57617   -13659.072    60.655119    231.40712 
   21550    78.009555   -579.66045    59029.631    -12771.95    942.68337   -13714.633    60.936226    244.39779 
   21600    75.272768   -1311.2475    59044.087    -12805.07    909.61148   -13714.682    61.307149    235.82365 
   21650    75.065051   -1128.7204    59003.069   -12756.942    907.10138   -13664.043    61.140148    235.17289 
   21700    74.328007   -1219.1078    58964.807    -12744.04     898.1948   -13642.234    61.057852    232.86379 
   21750     75.51719   -1133.1042    58962.507   -12746.138    912.56512   -13658.704    61.308985     236.5894 
   21800    78.179115   -969.30073    58982.265    -12749.94    944.73237   -13694.672    61.268486    244.92901 
   21850    78.730341    -578.8089    59064.123   -12737.243     951.3935   -13688.636    61.384945    246.65595 
   21900    77.415065   -978.78348    59097.782   -12748.071    935.49944    -13683.57    61.793417     242.5353 
   21950    76.666045   -1066.2365    59107.965   -12765.628    926.44812   -13692.076    61.900436    240.18867 
   22000    78.196375   -1373.7102     59057.24   -12784.887    944.94094   -13729.828    61.999447    244.98308 
   22050    74.370847   -1717.0006     58965.46   -12797.132    898.71248   -13695.845    62.405222      232.998 
   22100    73.131598    -1050.914    58921.447   -12826.031    883.73715   -13709.768    62.210429    229.11553 
   22150    76.002547   -846.62677    58918.043   -12802.887    918.43027   -13721.318    62.568115    238.10999 
   22200    76.313065    -1018.623     58984.23   -12827.313    922.18264   -13749.495    62.728066    239.08282 
   22250    77.593601   -910.91581    59020.906   -12824.019     937.6569   -13761.676    63.129509    243.09464 
   22300    73.832136   -1093.4291    59038.108   -12825.386    892.20259   -13717.588    63.276583    231.31026 
   22350     76.82828   -1018.1999    59056.305   -12787.206    928.40861   -13715.614    63.200966    240.69695 
   22400    74.706876     -1535.95    59036.694    -12816.41    902.77313   -13719.184    63.363148    234.05076 
   22450    76.262193   -1476.1486     59031.35   -12782.765     921.5679   -13704.333    63.541857    238.92344 
   22500    77.399756     -1039.41    58983.619     -12756.4    935.31443   -13691.714    63.350814    242.48733 
   22550    77.539352   -1196.2586    58980.424   -12787.037    937.00134   -13724.039    63.409536    242.92468 
   22600    76.273853   -1056.0793      58958.2   -12783.341     921.7088    -13705.05    63.405768    238.95997 
   22650    74.355822   -1246.4041    58882.014   -12808.121    898.53092   -13706.652    63.271162    232.95093 
   22700    74.361189   -1216.2561    58826.361    -12830.27    898.59578   -13728.866    63.193136    232.96774 
   22750    76.997227   -842.29489    58867.806   -12817.209     930.4502   -13747.659    63.512414    241.22624 
   22800    76.578178   -1025.2566    58840.024   -12802.957    925.38632   -13728.344    63.687438     239.9134 
   22850     77.70531    -839.8077    58860.654   -12780.947    939.00681   -13719.954    63.589627    243.44461 
   22900    75.338215    -1339.159    58883.536   -12771.682    910.40236   -13682.085    63.884438    236.02869 
   22950     76.98116   -873.98107    58885.772   -12789.277    930.25603   -13719.533     64.26986     241.1759 
   23000     76.91164   -661.82594    58860.712   -12779.496    929.41595   -13708.912     64.66474    240.95811 
   23050     78.24241   -1109.3696    58882.009   -12787.058    945.49724   -13732.555    64.774127     245.1273 
   23100    73.239831   -1167.7361    58867.774   -12833.073    885.04506   -13718.118    64.760765    229.45462 
   23150    74.187106   -1012.6635     58834.83   -12823.621    896.49212   -13720.113    65.026827    232.42235 
   23200    76.262867   -1100.1044    58850.922   -12795.629    921.57604   -13717.205    65.582827    238.92555 
   23250    75.757444   -1017.4428    58879.936   -12791.233    915.46841   -13706.702    65.867759     237.3421 
   23300    74.286904   -1324.2998    58902.883   -12786.641     897.6981   -13684.339    66.013771    232.73502 
   23350    76.256323   -630.00545     58909.91   -12798.927    921.49696   -13720.424    66.077723    238.90505 
   23400    72.587993   -608.83465    58934.255   -12834.038    877.16811   -13711.206    65.864092    227.41246 
   23450    74.520825   -905.65539    58994.518   -12814.989    900.52485   -13715.513    66.164057    233.46787 
   23500    76.724684   -961.44948    59020.542   -12785.164    927.15673   -13712.321    66.320031    240.37239 
   23550    76.883574   -1149.5219    59001.842   -12775.985    929.07679   -13705.061    66.632556    240.87018 
   23600    78.118762    -1190.164    58964.948   -12792.326    944.00305   -13736.329    66.582879    244.73992 
   23650    77.530848   -947.47152    58950.921   -12797.949    936.89858   -13734.848    66.925673    242.89804 
   23700    74.563007   -1107.9976    58937.484   -12807.878    901.03458   -13708.913    66.874365    233.60002 
   23750    75.716834   -1304.9699    58924.795   -12825.948    914.97766   -13740.926    67.023523    237.21487 
   23800    76.069763   -867.53972    58912.901   -12819.197    919.24252   -13738.439    67.092646    238.32057 
   23850    77.533679   -630.62371    58974.033   -12797.258    936.93279   -13734.191    67.575849     242.9069 
   23900    77.904136   -958.00259    59045.899   -12812.437    941.40947   -13753.847    67.697892    244.06752 
   23950    77.077777   -941.80877    59027.476   -12794.513    931.42358   -13725.937    67.453438     241.4786 
   24000    76.491612   -1016.4013    59023.302   -12825.764    924.34023   -13750.104    67.453395    239.64219 
   24050    77.138888     -1158.49    58967.136   -12818.304    932.16205   -13750.466    67.611533    241.67006 
   24100     74.41668   -777.29662    58932.218   -12830.417    899.26634   -13729.683    67.535668    233.14159 
   24150    74.887253   -931.07578    58858.407   -12831.072    904.95284   -13736.025    67.341828    234.61586 
   24200    77.285207   -948.55982    58862.563   -12799.798     933.9302   -13733.728    67.224926    242.12846 
   24250    76.849594   -850.98752    58877.183   -12778.172    928.66617   -13706.839    67.267688    240.76372 
   24300     76.36713   -1154.3798      58837.6   -12793.518    922.83597   -13716.354    67.725072     239.2522 
   24350    76.647398   -1169.3227    58797.862   -12808.845    926.22279   -13735.068    67.633226    240.13026 
   24400    74.986796   -1092.0702    58711.271   -12820.443    906.15574   -13726.599    67.972012    234.92772 
   24450    77.676863   -1283.3367    58711.232    -12786.82    938.66305   -13725.483    68.555103    243.35549 
   24500    76.624147   -1003.9936    58678.961   -12815.506    925.94182   -13741.448    68.498234    240.05741 
   24550    75.844349   -952.39504    58667.296   -12795.647    916.51858   -13712.166     68.57733    237.61437 
   24600    76.485122   -1221.7807    58644.729   -12793.655    924.26181   -13717.917    68.373381    239.62186 
   24650    77.176107   -1035.4489    58672.167   -12767.878    932.61182    -13700.49    68.454932    241.78666 
   24700    79.344855   -1083.5204    58742.304    -12754.49    958.81941    -13713.31    68.692151    248.58118 
   24750    78.528029   -1205.3416    58703.856   -12760.884    948.94872   -13709.833    68.827542    246.02212 
   24800    75.361057   -901.56516    58670.474   -12793.175    910.67839   -13703.853    69.032183    236.10025 
   24850    78.577973   -1151.3969     58656.06   -12804.914    949.55225   -13754.466    69.563008     246.1786 
   24900    74.523241   -1233.1063    58581.601   -12805.833    900.55404   -13706.387    69.648416    233.47544 
   24950    78.563254   -902.07071    58611.925   -12793.514    949.37439   -13742.888    69.704354    246.13248 
   25000    77.045798   -1107.8357    58626.059   -12791.546    931.03713   -13722.583    69.736176    241.37841 
   25050     77.79339   -973.09447    58621.155   -12797.061    940.07119   -13737.132    69.874587    243.72056 
   25100    79.467175   -1046.0214    58600.346   -12789.492    960.29755    -13749.79    70.222991     248.9644 
   25150    78.819812   -1171.4982    58581.452   -12798.378    952.47468   -13750.853    70.323909    246.93626 
   25200    75.300951   -900.13983    58588.448   -12793.049    909.95205   -13703.001    70.660384    235.91194 
   25250    74.682525   -1077.3288    58612.782   -12788.593    902.47886   -13691.072    70.369616    233.97446 
   25300     75.96148   -1103.3614    58548.696   -12791.325    917.93401   -13709.259    70.404983    237.98133 
   25350    75.601008   -919.04419    58549.502   -12779.045      913.578   -13692.623    70.437802      236.852 
   25400    78.391448    -891.0168    58559.914   -12770.655    947.29824   -13717.953    70.135581    245.59423 
   25450     76.60751   -1010.5458    58611.449   -12799.451    925.74077   -13725.192    70.027088    240.00529 
   25500    78.189765   -587.75432    58671.677   -12809.537    944.86106   -13754.398    70.243812    244.96237 
   25550    78.574633   -876.03593    58760.608   -12782.513    949.51189   -13732.025    70.073586    246.16813 
   25600    79.279107   -512.98033    58776.083   -12786.323     958.0249   -13744.348    69.846815    248.37519 
   25650    76.694173   -790.22596    58779.835   -12830.756    926.78803   -13757.544    70.174243     240.2768 
   25700    77.995266   -1034.4322     58759.09   -12816.902     942.5107   -13759.413    70.218007    244.35302 
   25750    75.809425   -929.60649    58767.167   -12825.068    916.09655   -13741.165    70.298754    237.50495 
   25800    76.834702   -866.37529    58797.024   -12843.775    928.48621   -13772.262    70.308493    240.71706 
   25850    77.380215   -871.90421    58785.032   -12847.832     935.0783    -13782.91    70.836275    242.42611 
   25900    74.846897    -957.1442    58795.887   -12844.957    904.46517   -13749.422    70.992969    234.48943 
   25950    73.888657   -1024.2594    58752.244   -12878.612     892.8856   -13771.498    70.787774    231.48734 
   26000    76.523805   -1326.2098    58701.554   -12866.293    924.72926   -13791.022    70.881334    239.74305 
   26050    76.509912   -1026.0897    58628.232   -12871.532    924.56138   -13796.093    70.999137    239.69952 
   26100    76.837158   -1482.9129    58633.476   -12856.524    928.51589    -13785.04    71.577762    240.72476 
   26150     76.60821   -753.26133    58622.395   -12844.379    925.74923   -13770.128    71.641761    240.00748 
   26200    76.265613   -842.24808    58615.505   -12848.658    921.60923   -13770.267      71.6734    238.93415 
   26250    78.477426   -1013.5186    58615.467   -12869.379    948.33723   -13817.716    71.867172    245.86359 
   26300    75.527577    -945.9219    58645.191     -12870.2    912.69064   -13782.891    71.976547    236.62195 
   26350    76.794403   -923.11396    58636.011   -12861.612    927.99922   -13789.611    71.960892    240.59081 
   26400    76.282401   -1231.1422    58616.875   -12852.708    921.81209    -13774.52    72.406931    238.98675 
   26450    76.354643   -1015.8636    58578.621    -12843.01    922.68508   -13765.696    72.860779    239.21308 
   26500    76.723528   -1100.8911    58569.206   -12829.331    927.14275   -13756.474    72.944735    240.36876 
   26550    74.810675   -937.08364    58565.563   -12832.727    904.02745   -13736.755     73.13989    234.37595 
   26600    77.636507    -1005.865    58562.815   -12828.362    938.17539   -13766.537    73.112352    243.22906 
   26650    76.873167   -1272.6575    58592.266   -12818.143    928.95103   -13747.094    73.429898    240.83757 
   26700    75.769577   -798.63012    58631.078   -12792.139    915.61502   -13707.754    73.570437    237.38011 
   26750    76.455282   -1061.7926    58647.037   -12811.866    923.90122   -13735.767    73.626626    239.52837 
   26800    75.853039   -1245.4873    58692.844   -12803.187     916.6236    -13719.81    74.014498    237.64159 
   26850    77.291604   -1103.6663    58708.516   -12812.392    934.00751     -13746.4    73.906517     242.1485 
   26900    79.465477   -1193.1376    58713.245   -12842.681    960.27703   -13802.958    74.016821    248.95908 
   26950    75.924378   -790.25292    58754.135    -12858.65    917.48567   -13776.136     74.21495    237.86509 
   27000    78.080205   -981.50984    58781.926   -12804.247    943.53712   -13747.784    74.125275    244.61913 
   27050    77.002933     -1197.14    58861.823   -12795.824    930.51915   -13726.343    74.088596    241.24412 
   27100     77.01847   -1149.4319    58875.603   -12818.052     930.7069   -13748.759    73.914269    241.29279 
   27150    79.382949    -908.3465    58922.606   -12797.455    959.27975   -13756.734    74.357405    248.70052 
   27200      78.8325    -1258.804    58936.751   -12769.575      952.628   -13722.203    74.497927    246.97601 
   27250    77.049342   -1016.7796    58926.537    -12777.37    931.07997    -13708.45    74.781373    241.38952 
   27300    79.007419   -948.83278    58904.349   -12799.443    954.74177   -13754.185    75.180028    247.52402 
   27350     76.17057   -1086.6525    58957.586   -12817.432     920.4607   -13737.893    75.386503    238.63639 
   27400    77.762706   -1200.7649    58942.573   -12791.374     939.7004   -13731.074     75.36702    243.62443 
   27450    74.069131     -842.606    58930.103    -12803.09    895.06648   -13698.157    75.349327    232.05275 
   27500    76.072694   -1160.6003    58864.397   -12805.975    919.27795   -13725.253    75.502076    238.32975 
   27550    76.928177   -858.15628    58914.831   -12799.609    929.61578   -13729.225    75.554458    241.00992 
   27600    77.121162   -675.60664    58980.571   -12777.514    931.94786   -13709.462    75.812563    241.61452 
   27650    76.693552   -1459.7025    58954.234   -12821.945    926.78053   -13748.726    75.870302    240.27485 
   27700    74.294761   -1146.8912    58848.886   -12857.671    897.79304   -13755.464    75.895658    232.75963 
   27750    76.127686   -1188.6535    58766.707   -12858.303    919.94248   -13778.245    76.216672    238.50204 
   27800     75.54465   -903.48152      58775.8   -12829.988    912.89696   -13742.885    76.517801    236.67543 
   27850    76.208923   -1185.8605    58790.056   -12839.163    920.92417   -13760.087    76.369916    238.75655 
   27900    76.697737   -1076.4888    58801.903   -12843.249     926.8311    -13770.08    76.350277    240.28796 
   27950    75.380227   -939.08319    58771.901   -12831.275    910.91004   -13742.185    76.294512    236.16031 
   28000    78.395765   -1018.6295    58767.948   -12824.016    947.35041   -13771.366    76.721394    245.60775 
   28050    76.619464   -1285.4095    58780.142   -12818.048    925.88523   -13743.934    76.514708    240.04274 
   28100    74.783044   -1299.3068    58759.843   -12829.502    903.69356   -13733.196    76.519837    234.28938 
   28150    81.184415   -1155.1242     58754.85   -12814.842    981.04903   -13795.891    76.876004    254.34437 
   28200    79.990029   -1045.1271    58769.515   -12779.372    966.61582   -13745.988    77.317228    250.60245 
   28250    80.381217    -1256.619    58713.036   -12796.312    971.34302   -13767.655    77.604841    251.82802 
   28300    75.037146   -1086.5685    58718.307   -12796.125    906.76418   -13702.889     77.66189    235.08546 
   28350    78.227683   -893.83103    58700.326   -12821.493    945.31927   -13766.813    77.515234    245.08116 
   28400    76.422676   -1108.8871    58695.813   -12844.422     923.5072   -13767.929    77.693151    239.42622 
   28450    78.415059   -1011.1301    58721.329   -12874.762    947.58356   -13822.345    77.990047     245.6682 
   28500    75.991076   -1129.6702    58775.877   -12867.283    918.29166   -13785.575    78.110524    238.07405 
   28550    77.643555    -958.7404    58857.292   -12849.222    938.26056   -13787.482    78.418337    243.25114 
   28600    77.037703   -1008.6839    58889.758   -12866.441    930.93932   -13797.381    78.216594    241.35305 
   28650    76.740334   -954.91253    58915.548   -12880.089    927.34585   -13807.434    78.393577    240.42142 
   28700    78.265576   -1058.5758    58916.329   -12846.761    945.77719   -13792.538    78.399693    245.19988 
   28750    78.296721   -1098.8648    58963.296   -12851.967    946.15355   -13798.121    78.655691    245.29746 
   28800    79.808568   -944.86699    58983.934   -12871.366    964.42301   -13835.789    78.918286    250.03395 
   28850    77.076333   -1011.5796    59025.562   -12880.151    931.40612   -13811.557    78.651534    241.47407 
   28900    78.020415   -831.70025    59069.055   -12889.797    942.81461   -13832.611    78.588694    244.43181 
   28950    76.486299   -915.42426    59117.979   -12857.449    924.27603   -13781.726     78.63277    239.62555 
   29000    78.208984   -1205.0391    59143.374   -12854.428    945.09332   -13799.521    79.124406    245.02258 
   29050    77.940385   -1207.1608    59136.228   -12867.304    941.84751   -13809.152    79.309136    244.18108 
   29100    77.117649   -712.39184     59112.29   -12873.188     931.9054   -13805.094    79.836724    241.60352 
   29150    75.854859   -1212.4851    59114.727   -12901.911    916.64559   -13818.557    80.081964    237.64729 
   29200    75.276119    -1011.145    59084.545   -12880.921    909.65197   -13790.573    80.111021    235.83415 
   29250    78.118187   -1359.7904     59068.19   -12836.316    943.99611   -13780.312    80.269021    244.73812 
   29300    76.492506   -1293.7843    58982.755   -12865.326    924.35104   -13789.677    80.407712    239.64499 
   29350    80.057829   -997.07674    58971.068   -12870.533    967.43513   -13837.968    79.945808    250.81487 
   29400    75.403597    -946.4753    58994.927   -12927.579    911.19244   -13838.771    80.030264    236.23352 
   29450    74.559015   -1072.7794    58951.916   -12917.057    900.98634   -13818.043    80.283274    233.58752 
   29500    76.125155   -1194.3192    58953.437   -12885.366     919.9119   -13805.278    79.837353    238.49411 
   29550     77.45049   -812.08474    58935.998   -12882.921    935.92751   -13818.849     79.90186    242.64628 
   29600    72.126077   -939.27979    58962.327   -12885.225    871.58623   -13756.811    80.268147    225.96531 
   29650    79.599989   -1257.3491    58956.541   -12830.668     961.9025   -13792.571    80.309934    249.38049 
   29700    78.338736   -1434.2329    58952.878   -12855.168    946.66126   -13801.829    80.527892    245.42908 
   29750    77.328394   -891.52042     58959.19   -12839.415    934.45209   -13773.868    80.863126    242.26376 
   29800    78.472106   -1093.4353    58995.321    -12830.42    948.27293   -13778.693    81.394455    245.84692 
   29850    78.595119   -932.27049    59012.979   -12866.417    949.75944   -13816.176    81.226411    246.23231 
   29900    78.715182   -1283.1416    58969.788   -12838.493    951.21032   -13789.703     81.28843    246.60846 
   29950    80.463903   -1274.1134    58983.101   -12828.361    972.34222   -13800.703    81.547279    252.08707 
   30000    80.176355   -1088.3899     58980.93   -12817.445    968.86742   -13786.313    81.535927     251.1862 
   30050    76.577001    -1268.249    58935.474   -12844.312    925.37209   -13769.684    81.850207    239.90971 
   30100    76.608173   -787.70868    58911.439   -12868.791    925.74879    -13794.54    81.801884    240.00737 
   30150    74.401944   -927.53532    58920.561   -12847.505    899.08827   -13746.594    81.755765    233.09543 
   30200    78.076248    -702.1984    58927.799   -12887.974    943.48931   -13831.463    81.839635    244.60673 
   30250    76.817262   -1002.8522    58922.111   -12911.273    928.27546   -13839.548    81.643022    240.66243 
   30300    74.030238   -1256.9934    58899.069   -12906.769    894.59649   -13801.365    81.940823     231.9309 
   30350    76.807561   -961.34764    58920.962   -12924.815    928.15823   -13852.973    82.039245    240.63203 
   30400    73.020345   -1129.8176    58992.506   -12954.099    882.39274   -13836.492    82.566897    228.76698 
   30450    73.235123   -703.03531    58998.932   -12987.388    884.98816   -13872.376    82.497847    229.43987 
   30500     73.87028   -1242.0865    59011.995   -12968.475    892.66353   -13861.139    82.821485    231.42977 
   30550     74.65025   -1073.9356    59041.055   -12958.859    902.08885   -13860.948    82.723348    233.87335 
   30600    75.229188     -1158.01    59046.267   -12935.256    909.08485   -13844.341    82.594046    235.68712 
   30650    76.560394    -909.1187     59080.03   -12914.159    925.17141    -13839.33    82.338276    239.85768 
   30700    77.529869   -835.62487    59047.163   -12889.826    936.88675   -13826.712     82.03222    242.89497 
   30750    77.385838   -1107.3083    59035.472   -12865.529    935.14625   -13800.675    82.274472    242.44373 
   30800    77.143199   -1087.5746    58988.199   -12861.271    932.21415   -13793.485    82.243114    241.68356 
   30850    76.926806   -1018.5558     58931.95   -12854.318    929.59922   -13783.917    82.898388    241.00562 
   30900    76.533439   -780.76774      58913.1   -12897.263    924.84568   -13822.109    83.190017    239.77323 
   30950    75.887653   -860.51659    58912.262   -12882.439    917.04187   -13799.481    83.590968    237.75003 
   31000    75.819238   -849.57383    58920.302   -12866.095    916.21514    -13782.31    83.349515     237.5357 
   31050    78.056713   -674.20097    58943.209   -12844.814    943.25323   -13788.067    83.229307    244.54553 
   31100    76.843772   -1107.2168     59010.06    -12870.15    928.59581   -13798.746     83.05109    240.74548 
   31150     76.93415   -677.68668    59064.076   -12885.443    929.68795   -13815.131    82.914677    241.02863 
   31200    76.956255   -977.94982    59110.746   -12891.411    929.95507   -13821.366    83.077079    241.09788 
   31250      77.9015   -1023.7416    59066.602   -12873.738    941.37761   -13815.116    82.663753    244.05926 
   31300    76.805892    -882.3975    59015.445   -12886.087    928.13806   -13814.225    83.100354     240.6268 
   31350    77.746072   -764.69197     59028.02   -12862.002    939.49939   -13801.501    83.128516    243.57232 
   31400    77.970124   -823.77846     59132.39   -12891.861    942.20688   -13834.068    83.114597    244.27425 
   31450    77.410534   -983.24945    59168.416   -12881.745    935.44468    -13817.19    83.238483     242.5211 
   31500    76.077673   -874.49257    59086.894   -12863.666    919.33812   -13783.004     83.26768    238.34535 
   31550    76.453113   -1250.2726    59003.181   -12913.456    923.87501   -13837.331    83.706051    239.52158 
   31600    75.863236   -1151.7356    58928.446   -12897.111    916.74681   -13813.858    84.121754    237.67354 
   31650    76.098077   -1195.3674    58960.196   -12890.058    919.58468   -13809.642    84.349652    238.40928 
   31700    77.636871   -1035.6801    58922.246   -12883.463    938.17978   -13821.643    84.510762     243.2302 
   31750    76.247172   -1227.3269    58873.991   -12886.685    921.38637   -13808.072    84.760281    238.87638 
   31800    75.939049   -691.28244    58852.039   -12906.681    917.66296   -13824.344    85.070654    237.91106 
   31850    76.477535   -939.87331    58909.251   -12922.202    924.17013   -13846.372    85.154828    239.59809 
   31900    74.946728    -1190.325     58937.61   -12913.029    905.67154   -13818.701    84.907779    234.80219 
   31950    74.444661   -1259.9512    58931.992   -12920.034    899.60446   -13819.639    85.106175    233.22925 
   32000    75.707133   -1389.3835    58948.856   -12901.568    914.86043   -13816.429    85.112143    237.18448 
   32050    76.007495   -905.81341    58968.306   -12912.754    918.49007   -13831.244    84.893462    238.12549 
   32100     75.81545   -922.88222    58971.266   -12926.539    916.16936   -13842.708    85.320787    237.52383 
   32150    77.650178    -856.1978    59009.384   -12882.238    938.34059   -13820.579    85.171008    243.27189 
   32200    77.512672   -1414.2274    59011.975   -12876.252    936.67894   -13812.931     85.40746    242.84109 
   32250    73.843009   -1418.4488    59027.288   -12884.994    892.33398   -13777.328    85.279181    231.34433 
   32300    75.653273   -1081.8506    59001.269   -12937.866    914.20958   -13852.076    85.470458    237.01574 
   32350     73.26625   -1132.5572    59005.049    -12968.46    885.36431   -13853.824    85.329726    229.53739 
   32400    74.090963   -1119.0163    58977.331   -12973.512     895.3303   -13868.842    85.342244    232.12115 
   32450    74.302554   -1239.8193    58971.539   -12945.156    897.88721   -13843.043    85.090866    232.78404 
   32500    74.885022   -1155.8181    58952.354   -12935.476    904.92588   -13840.402    85.604897    234.60887 
   32550    75.216052   -973.79428    58948.415   -12882.452    908.92611   -13791.378    85.659131    235.64596 
   32600    76.651438   -755.69657    58974.993   -12881.327    926.27161   -13807.599    85.442526    240.14291 
   32650    80.151835   -743.50777    59056.087   -12852.129    968.57112   -13820.701     85.86719    251.10938 
   32700    75.534807   -857.22376    59064.545   -12868.557    912.77801   -13781.335    85.365781     236.6446 
   32750    77.692491   -1291.8287    59054.574   -12860.363     938.8519   -13799.215    85.599861    243.40445 
   32800    77.681108   -795.13719    59029.634   -12859.892    938.71435   -13798.607    85.933834    243.36879 
   32850    77.101646   -1432.8471     59026.97   -12848.781    931.71202   -13780.493    85.980636    241.55338 
   32900    80.066607   -716.35301    59046.199   -12811.413     967.5412   -13778.955    86.070539    250.84237 
   32950    79.669963   -833.82905    59075.118   -12809.927    962.74809   -13772.675     86.38162    249.59972 
   33000    76.835331   -1081.7872    59048.028   -12858.953    928.49381   -13787.447    86.073862    240.71904 
   33050    75.542788   -808.53161    59035.411   -12875.923    912.87446   -13788.797    86.103952     236.6696 
   33100    75.254466   -826.20015    59030.873   -12891.908    909.39032   -13801.298    86.673924    235.76631 
   33150    75.772104   -832.97911    59029.567   -12902.952    915.64556   -13818.598     87.01773    237.38803 
   33200     73.66826   -899.39665    59041.932   -12916.016    890.22228   -13806.238    87.111216    230.79685 
   33250    76.033922   -620.36928    59045.067   -12945.383    918.80942   -13864.192    86.980996    238.20828 
   33300    76.052428   -1064.2442    59055.135    -12924.35    919.03305   -13843.383     87.26558    238.26626 
   33350    76.144045   -981.27708    59114.272   -12880.925    920.14016   -13801.065     87.49703    238.55329 
   33400    77.551114   -809.16691    59099.296   -12856.741    937.14348   -13793.885    87.523981    242.96153 
   33450    78.455849   -1166.5048    59087.434   -12865.474    948.07648    -13813.55    87.297599    245.79599 
   33500    77.565389     -1129.38    59026.143   -12872.679    937.31598   -13809.995    87.685075    243.00625 
   33550    76.096075   -1446.9905    59050.459   -12872.053    919.56049   -13791.613    87.707797      238.403 
   33600    78.387654   -1429.9987    58987.876   -12842.029     947.2524   -13789.281    87.921111    245.58234 
   33650    77.583947   -1049.8014    58963.906   -12877.102    937.54024   -13814.642    87.987426    243.06439 
   33700    77.936308   -1008.7457    58949.291   -12874.283    941.79824   -13816.081    87.944293    244.16831 
   33750    77.409283   -771.10913    58951.773   -12852.892    935.42957   -13788.321    88.040276    242.51718 
   33800      77.9599   -1027.1668    58937.312   -12866.089    942.08333   -13808.172     88.16358    244.24222 
   33850    79.573516   -1095.9591    58924.763   -12869.978    961.58259    -13831.56    87.974915    249.29755 
   33900    77.918659   -898.78969    58904.086   -12884.939    941.58497   -13826.524    88.088379    244.11302 
   33950    76.260188   -978.06655    58893.654   -12886.482    921.54366   -13808.026    88.167317    238.91716 
[...]
   92000    77.102813   -1667.8854    61729.446   -13585.904    931.72612    -14517.63    113.57362    241.55704 
   92050    78.441438   -1607.9778    61729.472   -13561.756    947.90234   -14509.659    113.41227    245.75084 
   92100    77.612389   -1657.1667    61742.489   -13559.783    937.88393   -14497.667    113.26309     243.1535 
   92150     79.16655   -1639.4588    61727.955   -13584.393    956.66474   -14541.058    113.23977    248.02256 
   92200    78.051682   -1602.3597    61721.455   -13611.031    943.19244   -14554.224    113.34534    244.52977 
   92250    77.310874   -1419.9751    61702.313   -13606.129    934.24037   -14540.369    113.22249    242.20887 
   92300    79.415948   -1510.6909    61711.035   -13612.971    959.67851    -14572.65    113.37277     248.8039 
   92350    75.115415   -1547.1474    61693.167   -13682.956    907.70999   -14590.666    113.58646    235.33067 
   92400    73.887873   -1601.0142    61686.701    -13692.09    892.87613   -14584.966    113.89613    231.48488 
   92450    72.318626   -1567.9425    61649.917     -13695.9    873.91302   -14569.814     113.7695    226.56855 
   92500    75.093913    -1625.657    61628.511   -13688.273    907.45016   -14595.724    113.38606    235.26331 
   92550    73.887636    -1585.545    61632.528   -13710.329    892.87326   -14603.202    113.32838    231.48414 
   92600    75.315809   -1615.7215    61650.123   -13689.879    910.13159   -14600.011    112.97593    235.95849 
   92650    73.644905   -1644.0265    61672.034   -13680.156    889.94005   -14570.096    113.05352    230.72368 
   92700    75.550666    -1513.399    61642.564   -13678.747    912.96966   -14591.717     113.2035    236.69428 
   92750    74.031204   -1558.0129    61611.994   -13702.226    894.60817   -14596.834    113.18633    231.93393 
   92800    76.960378    -1354.707    61603.379   -13655.615    930.00491    -14585.62    113.31082     241.1108 
   92850      74.1408   -1538.6635    61663.249   -13669.042    895.93255   -14564.975    113.28385    232.27728 
   92900    75.607094   -1496.2192    61682.982   -13648.499    913.65154    -14562.15    113.57707    236.87106 
   92950    77.687925   -1667.2213    61679.358   -13646.667    938.79673   -14585.464    113.37328    243.39014 
   93000    72.422867   -1489.8336    61635.279   -13688.967    875.17269    -14564.14    113.49634    226.89513 
   93050    74.082674   -1586.4547    61623.969   -13682.877    895.23014   -14578.107     112.9736    232.09518 
   93100    75.221303   -1680.1791    61649.789   -13692.563    908.98956   -14601.553    113.25377    235.66241 
   93150    77.257406   -1492.0012    61620.153   -13628.891    933.59425   -14562.485    113.07239    242.04136 
   93200    76.151317   -1374.6836    61623.834    -13611.64    920.22805   -14531.868    113.11379    238.57607 
   93250     76.38961   -1448.7521    61628.411   -13595.629    923.10763   -14518.737    113.37662    239.32263 
   93300    77.128611   -1455.4575    61608.041   -13609.587    932.03786   -14541.625    113.32625    241.63786 
   93350    75.235601   -1564.9507     61591.13   -13627.354    909.16234   -14536.516    113.15861    235.70721 
   93400    77.426713   -1490.4323    61557.996   -13620.394    935.64019   -14556.035    113.05409    242.57179 
   93450    75.802803   -1501.9506    61536.305   -13655.709    916.01654   -14571.726    113.18493    237.48421 
   93500    74.170408   -1436.4901    61518.915   -13650.132    896.29033   -14546.422    113.15078    232.37004 
   93550    77.019264   -1470.1691    61528.907    -13616.26    930.71649   -14546.977    113.17611    241.29528 
   93600    75.620144     -1437.91    61521.887   -13654.761    913.80924    -14568.57    113.38869    236.91195 
   93650    74.815814   -1577.5753    61549.571   -13625.286    904.08956   -14529.375    113.12772    234.39205 
   93700    74.515343   -1512.0661    61517.773   -13638.037     900.4586   -14538.496    112.84415     233.4507 
   93750    78.395283   -1315.8613    61527.125   -13628.484    947.34459   -14575.829    113.06253    245.60624 
   93800    78.478113   -1662.0254    61550.372   -13603.759    948.34552   -14552.105    113.13706    245.86574 
   93850    76.955154   -1446.8475    61584.789   -13585.308    929.94178    -14515.25    112.99512    241.09443 
   93900    77.046173   -1549.0332    61574.893   -13587.009    931.04166   -14518.051    113.22707    241.37959 
   93950    75.846102   -1313.9434    61560.257   -13615.117    916.53977   -14531.657    113.19871    237.61986 
   94000    76.865728   -1496.2467    61585.478    -13642.34    928.86114   -14571.202    113.04035    240.81427 
   94050    74.370376   -1481.8331    61608.216   -13654.934    898.70679   -14553.641    113.55669    232.99653 
   94100    77.417445   -1545.8172    61670.883   -13652.767    935.52819   -14588.295    113.13186    242.54275 
   94150    74.683008   -1613.2186    61728.432   -13658.839    902.48471   -14561.324    112.98849    233.97598 
   94200     75.63192   -1692.6829    61747.574   -13659.212    913.95155   -14573.164    113.19169    236.94884 
   94250    76.167692   -1595.2095    61754.091   -13650.243    920.42593   -14570.669     113.0347    238.62738 
   94300    75.079859   -1561.9539    61742.807   -13667.881    907.28033   -14575.162     113.7233    235.21928 
   94350    75.453852   -1641.6564    61691.465   -13678.785    911.79974   -14590.585    113.61814    236.39097 
   94400    76.446655   -1494.8184    61656.107   -13646.395    923.79698   -14570.192    113.15313    239.50135 
   94450    76.335966   -1558.2697    61623.134   -13628.063    922.45938   -14550.522    113.55297    239.15456 
   94500     76.18679   -1463.2481    61590.527   -13617.906    920.65671   -14538.563    113.15199    238.68721 
   94550     76.41209   -1580.6775    61582.019    -13637.78    923.37928   -14561.159     113.3222    239.39305 
   94600    76.532296   -1383.8039    61562.057   -13632.927    924.83187   -14557.759    113.02695    239.76965 
   94650    75.920119   -1483.3783    61505.933   -13614.665     917.4342   -14532.099    113.00518    237.85175 
   94700    77.425487   -1417.0403    61501.625   -13578.714    935.62537   -14514.339    112.82537    242.56795 
   94750     78.56459   -1513.3664    61555.776   -13584.503    949.39053   -14533.894    113.12693    246.13667 
   94800    79.564508    -1336.331    61545.596   -13572.862    961.47374   -14534.336    113.36364    249.26933 
   94850    80.458778   -1378.5928     61562.34   -13550.999    972.28028   -14523.279    113.82464    252.07101 
   94900    78.826929    -1492.863    61629.046   -13565.503    952.56069   -14518.064    113.54477    246.95855 
   94950    78.527448   -1526.8214    61630.946    -13569.87    948.94169   -14518.812    113.39981     246.0203 
   95000    75.731813   -1534.1876    61599.522   -13590.468    915.15868   -14505.627    113.30323     237.2618 
   95050    79.665029   -1616.8763    61597.857   -13602.988    962.68846   -14565.676    113.17666    249.58426 
   95100    77.468424   -1604.7309    61607.652   -13614.688    936.14424   -14550.832    113.21512    242.70247 
   95150    77.470351    -1541.299    61603.833    -13583.02    936.16752   -14519.188    113.02071     242.7085 
   95200    78.916265    -1479.456    61583.513   -13581.216    953.64024   -14534.857    113.03999    247.23844 
   95250    76.977952    -1562.861    61549.646   -13610.016    930.21727   -14540.233    113.24314    241.16586 
   95300    77.102929   -1368.4348    61496.466   -13611.489    931.72751   -14543.217    113.11555     241.5574 
   95350    75.954942   -1485.1322    61514.188   -13621.323    917.85501   -14539.178    112.91079    237.96085 
   95400    78.266251   -1618.2677    61502.874   -13608.725    945.78534   -14554.511     113.4257    245.20199 
   95450    75.877896    -1349.409    61497.168   -13591.729    916.92397   -14508.653    113.31579    237.71947 
   95500    79.777739   -1575.2238    61497.224   -13568.965    964.05047   -14533.016    113.35238    249.93737 
   95550     76.66877   -1360.3826     61485.43   -13594.982    926.48105   -14521.463    113.11506    240.19721 
   95600    77.273787   -1438.9553    61489.171   -13607.906     933.7922   -14541.698    113.09891    242.09268 
   95650     77.73197   -1239.5978    61501.827   -13614.424    939.32897   -14553.753    112.84228    243.52813 
   95700    77.431406   -1645.6568    61477.936   -13619.791    935.69691   -14555.488    112.73457    242.58649 
   95750    75.556952   -1421.4066    61489.214   -13654.318    913.04561   -14567.363    112.89708    236.71397 
   95800     78.43374   -1475.5259    61505.377   -13644.398    947.80931   -14592.207    113.32567    245.72672 
   95850    75.819747   -1428.6672    61484.363   -13670.399    916.22129   -14586.621    113.31728    237.53729 
   95900     75.91235   -1466.5991    61533.547   -13669.383    917.34032   -14586.723    113.84239    237.82741 
   95950    75.875499   -1475.8299    61567.679   -13643.215      916.895    -14560.11    113.53134    237.71196 
   96000    76.128638   -1584.9093    61617.071   -13630.064    919.95399   -14550.018    113.39758    238.50502 
   96050    72.180561   -1545.7555    61628.892   -13663.347    872.24462   -14535.592    113.30394    226.13601 
   96100    75.433459   -1536.9047    61648.294   -13666.466     911.5533   -14578.019    113.37193    236.32708 
   96150     77.00887   -1607.8346    61668.896   -13651.025     930.5909   -14581.616    113.09987    241.26272 
   96200     75.70016   -1558.5202    61650.296   -13698.724    914.77617     -14613.5    112.87798    237.16263 
   96250    75.346152   -1641.7428    61632.116   -13676.505    910.49827   -14587.003    112.85774    236.05355 
   96300     77.17625   -1583.3026    61603.553   -13676.921    932.61355   -14609.535    112.98155    241.78711 
   96350    76.555141   -1507.7038    61601.243   -13682.062    925.10793    -14607.17     113.3235    239.84122 
   96400    76.632132   -1385.5916      61635.1   -13667.945    926.03831   -14593.984    113.49564    240.08243 
   96450    76.086563   -1440.8253    61633.031    -13668.22    919.44555   -14587.665    113.96247    238.37321 
   96500     78.57608   -1630.4012    61698.881    -13647.46    949.52938   -14596.989    113.88717    246.17266 
   96550    77.396389   -1546.6927    61688.871   -13629.985    935.27375   -14565.258    113.73509    242.47679 
   96600     78.06007   -1475.6356    61678.827   -13623.121     943.2938   -14566.415     113.5839    244.55604 
   96650    77.483407    -1526.927    61703.553   -13646.613    936.32529   -14582.938    113.28022    242.74941 
   96700    77.659173   -1499.8093    61690.787   -13652.504    938.44929   -14590.954     113.1789    243.30007 
   96750    75.420115   -1523.9729    61718.522   -13669.578    911.39205    -14580.97    112.78124    236.28527 
   96800    75.748049   -1577.6775    61716.294    -13665.15    915.35487   -14580.505      113.112    237.31267 
   96850    75.350855   -1521.3945    61738.008   -13668.002     910.5551   -14578.557    113.31047    236.06829 
   96900     74.75107   -1642.7024     61736.95   -13640.288    903.30717   -14543.595    113.76552    234.18921 
   96950    81.887227   -1606.9949    61721.446   -13612.325    989.54195   -14601.867    113.89448    256.54623 
   97000    73.107213    -1650.351    61696.826   -13608.631    883.44247   -14492.074    113.68803    229.03914 
   97050    78.754355   -1539.3245    61654.431   -13586.299    951.68369   -14537.983    113.59142    246.73119 
   97100    77.898046   -1498.0898    61578.709   -13622.386    941.33587   -14563.722    113.05569    244.04844 
   97150    76.521544   -1531.3037    61572.139   -13646.919    924.70195   -14571.621     113.0027    239.73597 
   97200    78.339492   -1568.8061    61578.852    -13640.77    946.67039    -14587.44    113.21661    245.43145 
   97250    76.031787   -1552.0953    61611.599   -13647.106    918.78362    -14565.89    113.10302    238.20159 
   97300    76.504521   -1598.1897      61630.8   -13619.706    924.49623   -14544.203    113.22219    239.68263 
   97350     78.93697   -1584.8164    61629.867   -13606.956    953.89044   -14560.847    113.35697     247.3033 
   97400    75.487882   -1472.1184    61626.232   -13616.022    912.21096   -14528.233    113.44402    236.49758 
   97450    78.947585   -1566.9818    61614.966   -13637.528    954.01872   -14591.547    113.81002    247.33656 
   97500    76.059904   -1670.8708    61641.799   -13631.511    919.12339   -14550.634    113.81838    238.28968 
   97550    76.088482   -1518.0301    61645.618    -13615.05    919.46874   -14534.519    113.90744    238.37922 
   97600    77.411885   -1600.5557     61599.94   -13638.375      935.461   -14573.836    113.54567    242.52533 
   97650    78.211902   -1356.3083    61651.269   -13618.691    945.12857    -14563.82    113.50871    245.03172 
   97700    75.888496   -1515.1582    61661.517   -13595.144    917.05206   -14512.196    113.47354    237.75268 
   97750     79.83168   -1446.0617     61673.07   -13604.562     964.7023   -14569.264    113.76531    250.10636 
   97800    77.593547   -1506.3954    61711.295   -13608.248    937.65625   -14545.905     113.0379    243.09447 
   97850    78.986494   -1601.6584    61739.818   -13616.708     954.4889   -14571.197    113.39735    247.45846 
   97900    76.441755   -1579.1656    61753.203   -13631.077    923.73776   -14554.814    113.38196    239.48599 
   97950    78.271301   -1693.7934    61810.616   -13615.872    945.84636   -14561.719    113.85048    245.21782 
   98000    76.999285   -1722.5818    61804.028   -13605.414    930.47507   -14535.889    113.91095    241.23269 
   98050    77.709912   -1748.6243    61753.123   -13598.993    939.06243   -14538.055    114.29923    243.45903 
   98100    78.021366   -1642.5376     61738.19   -13621.239     942.8261   -14564.066    113.71739    244.43479 
   98150    78.429281   -1641.3554    61738.555   -13630.563    947.75543   -14578.319    113.45515    245.71276 
   98200    75.255031   -1814.1278    61721.957   -13669.061    909.39714   -14578.458    113.56733    235.76808 
   98250    78.139302   -1739.0358    61706.919   -13655.694    944.25126   -14599.945    113.41434    244.80427 
   98300    76.142476   -1788.2249    61734.251   -13642.284    920.12121   -14562.406    112.94888    238.54838 
   98350    75.871229   -1741.6481    61733.064     -13631.4     916.8434   -14548.243    112.79349    237.69858 
   98400    76.106463   -1580.4854    61687.195   -13601.944    919.68602    -14521.63    113.10265    238.43555 
   98450    76.119634   -1617.0436    61661.447   -13631.738    919.84519   -14551.584    112.98591    238.47681 
   98500    75.028836   -1862.5784    61659.152   -13630.248    906.66376   -14536.912    113.06756    235.05943 
   98550    74.272675   -1715.0962    61618.788   -13661.264    897.52615    -14558.79    113.35858    232.69044 
   98600    74.744664   -1731.9136    61600.715   -13663.473    903.22976   -14566.703    113.64516    234.16914 
   98650    73.644118   -1631.4304    61609.517   -13665.602    889.93054   -14555.532    113.30816    230.72122 
   98700    74.117682   -1828.0492    61597.965    -13660.68    895.65319   -14556.333    113.42972    232.20486 
   98750     75.04372   -1785.0157    61621.732   -13672.146    906.84361    -14578.99    113.28254    235.10606 
   98800    77.452727   -1839.2725    61620.074   -13650.619    935.95455   -14586.574    112.97111    242.65329 
   98850    74.934424   -1712.8035     61663.43   -13658.265    905.52286   -14563.788    112.94223    234.76364 
   98900    74.363356   -1698.3857    61670.198   -13644.266    898.62196   -14542.888     113.0063    232.97453 
   98950    77.828002   -1589.1717    61682.959   -13658.775    940.48945   -14599.264    113.02684      243.829 
   99000    74.262922   -1462.6185    61699.967   -13678.439     897.4083   -14575.848    113.19223    232.65988 
   99050    71.654007   -1592.6056    61713.154    -13712.63    865.88163   -14578.512    113.41479    224.48636 
   99100    73.870766   -1718.9304    61715.328   -13709.487    892.66941   -14602.156    113.43297    231.43129 
   99150    70.764037   -1602.8533    61683.167   -13714.262    855.12706   -14569.389    113.25696    221.69815 
   99200    75.058207     -1608.81    61652.786   -13706.978    907.01868   -14613.997    113.21974    235.15145 
   99250    74.944584   -1586.2496    61624.025   -13700.487    905.64563   -14606.132    112.95179    234.79547 
   99300    72.459534   -1476.9941    61670.689   -13678.763    875.61578   -14554.379    112.97625    227.01001 
   99350    75.030101   -1693.1294    61679.173   -13650.754    906.67904   -14557.433    113.24778    235.06339 
   99400    77.857892    -1608.477    61712.805   -13670.418    940.85064   -14611.269    112.97601    243.92264 
   99450    74.774809    -1649.807    61714.264    -13668.61    903.59405   -14572.205    112.84419    234.26358 
   99500    75.605967    -1674.205    61721.474   -13685.278    913.63792   -14598.916    113.20669    236.86753 
   99550     75.01122   -1582.7192    61688.627   -13667.715    906.45088   -14574.166    113.46376    235.00424 
   99600    77.008659   -1591.5946    61696.475   -13657.997    930.58834   -14588.585    113.07246    241.26206 
   99650    74.306061   -1601.2155    61696.108   -13645.406    897.92959   -14543.336    113.33858    232.79503 
   99700    77.092481   -1668.5398    61723.991   -13632.983    931.60126   -14564.585    113.38265    241.52467 
   99750    78.142656   -1641.1306    61723.984   -13603.413    944.29179   -14547.705    113.35067    244.81478 
   99800    78.870661   -1513.4963    61713.024   -13617.089    953.08915   -14570.178    113.54651    247.09556 
   99850    74.587224   -1745.6265    61721.708   -13642.433    901.32722    -14543.76    113.54148    233.67589 
   99900    77.549851   -1727.0261    61706.594   -13644.411    937.12822   -14581.539    113.20958    242.95757 
   99950    75.258747   -1634.9658    61682.588   -13631.447    909.44205   -14540.889    113.27647    235.77972 
  100000    76.863057   -1519.6875    61681.272   -13662.412    928.82886   -14591.241    113.26361     240.8059 
Loop time of 77.5794 on 80 procs for 100000 steps with 4055 atoms

Performance: 556.849 ns/day, 0.043 hours/ns, 1289.002 timesteps/s
99.5% CPU use with 80 MPI tasks x no OpenMP threads

MPI task timing breakdown:
Section |  min time  |  avg time  |  max time  |%varavg| %total
---------------------------------------------------------------
Pair    | 35.484     | 46.823     | 55.493     |  71.4 | 60.35
Neigh   | 0.37524    | 0.99719    | 1.839      |  57.5 |  1.29
Comm    | 11.752     | 21.395     | 32.245     | 111.4 | 27.58
Output  | 0.12812    | 0.1316     | 0.25656    |   3.9 |  0.17
Modify  | 5.5896     | 7.2763     | 8.4665     |  23.9 |  9.38
Other   |            | 0.9568     |            |       |  1.23

Nlocal:    50.6875 ave 86 max 20 min
Histogram: 19 21 0 0 0 0 3 9 18 10
Nghost:    710.462 ave 754 max 664 min
Histogram: 3 15 8 10 4 1 7 12 11 9
Neighs:    0 ave 0 max 0 min
Histogram: 80 0 0 0 0 0 0 0 0 0
FullNghs:  5411.73 ave 10779 max 1007 min
Histogram: 40 0 0 0 0 0 0 7 19 14

Total # of neighbors = 432938
Ave neighs/atom = 106.766
Neighbor list builds = 5294
Dangerous builds = 0

write_data		${DIR}/data.eq-${NAME}-${TEMP}
write_data		run_8/data.eq-${NAME}-${TEMP}
write_data		run_8/data.eq-het_freeze_8-${TEMP}
write_data		run_8/data.eq-het_freeze_8-240
undump          1

reset_timestep  0

unfix           2
unfix           3
unfix           4


################################################
#######         Run Simulation         #########
################################################

log				${DIR}/log.run_${NAME}
log				run_8/log.run_${NAME}
log				run_8/log.run_het_freeze_8
