LAMMPS data file via write_data, version 16 Mar 2018, timestep = 6000000

6489 atoms
2 atom types

0.0000000000000000e+00 4.9219999999999999e+01 xlo xhi
0.0000000000000000e+00 4.9019635930410494e+01 ylo yhi
6.8547847863833411e-01 5.9376521521346689e+01 zlo zhi

Masses

1 18.015
2 12.01

Atoms # atomic

1540 1 2.7255581152884250e+00 3.5885216524441690e+00 2.8159585060672967e+00 0 0 0
1900 1 5.6875741771176480e-01 2.7212253812025171e+00 3.9487584459694762e+00 2 0 0
1980 1 7.4621188651117860e+00 3.6484907969449378e+00 2.8385060692174995e+00 -1 0 0
3154 1 9.8284507382710000e+00 2.9379615583634195e+00 4.2557643415051345e+00 1 1 1
3352 1 5.4090590610034388e+00 3.3625041822979934e-01 4.7878408915830155e+00 1 0 1
6460 1 9.1378353734708295e-01 1.0293058364179560e+01 5.5026409908376959e+00 1 0 0
5277 1 3.0016877265441027e+00 6.3440288270085876e+00 2.6652106809557159e+00 1 2 0
3269 1 6.9348268901404242e-01 7.4213238459095567e+00 1.7798396585257794e+00 2 2 0
2904 1 7.6225231865331731e+00 6.5381291356775719e+00 2.7430016560751573e+00 0 2 1
4618 1 5.3072057504055783e+00 7.8542020155097436e+00 1.7119589945198297e+00 0 2 1
4951 1 1.0048410019069875e+01 7.7392847288554858e+00 1.8594870578399008e+00 0 -2 0
4986 1 7.6823360460891736e+00 9.2360757048673605e+00 6.2490800259330674e+00 1 0 0
1666 1 1.0437046950131506e+00 1.0276242481821793e+01 2.8381615141912890e+00 0 0 0
3298 1 2.9262486219566868e+00 1.1843892007775626e+01 1.3881952946717910e+00 0 1 1
4554 1 7.7340586259584461e+00 1.1546122434293775e+01 1.7131815504472139e+00 2 1 0
1929 1 5.1345328189382666e+00 1.0578007495592621e+01 2.3493606868004062e+00 1 2 0
3661 1 9.7866274979415984e+00 1.0409237132182295e+01 2.6197727365002637e+00 3 0 0
4726 1 9.9223023567373652e+00 3.8065867866720920e-01 5.1524246505547335e+00 -2 0 1
1795 1 5.0836715843322917e+00 2.9336226756218204e+00 4.2887587958489926e+00 1 2 0
144 1 5.4376698751196253e+00 1.0352255070315532e+01 5.1923872294992499e+00 0 3 0
1387 1 9.5171095406016217e+00 2.4160903116898846e+00 7.4529640243313260e+00 0 -1 1
237 1 7.6812740558913395e-01 4.7877483484018599e+00 5.9362807224965328e+00 0 -1 0
6340 1 2.8268532992847919e+00 6.6128177819736047e+00 5.2230826416284701e+00 -2 -1 1
1327 1 7.3955288581615601e+00 6.5266247538264981e+00 5.4481002192051928e+00 0 2 0
2068 1 5.0307256201713546e+00 5.1820351112752654e+00 5.9742398409459021e+00 1 2 0
3240 1 9.9774748534052726e+00 1.0513268378707894e+01 5.4465172481959359e+00 0 -1 1
2070 1 9.5994072463816913e+00 5.2442851674240920e+00 6.1132119602306130e+00 -1 1 0
4642 1 3.2384257209802008e+00 9.2846556615086211e+00 6.2903702433245003e+00 -2 0 0
1776 1 1.1973324657605680e+01 1.1729923472151480e+01 1.5861585366931297e+00 -1 3 0
4492 1 1.2029141111036791e+01 3.6171355337506608e+00 2.7896789925344900e+00 1 2 0
1656 1 1.1871030820702115e+01 6.7050085530063628e+00 5.6494720688639921e+00 0 1 0
1469 1 1.2138555526721309e+00 2.2802384065698114e-01 5.1824079991945666e+00 -2 2 1
3478 1 2.9750663661064336e+00 2.5355068040246667e+00 9.5631525391510195e+00 1 0 0
4737 1 1.1871470839544029e+01 1.1746169575240579e+01 1.0155233982058308e+01 0 2 1
3584 1 3.0728744536027044e+00 8.9687865522293944e+00 1.3636502276241416e+01 -1 -1 0
3643 1 1.1117181301801770e+01 1.2975271631811458e+00 1.1435132822168480e+01 -1 0 0
4516 1 8.4086570190537664e+00 1.2531107163280091e+00 1.1754834157228045e+01 -1 0 1
6251 1 7.3696779086114708e+00 1.1240325913996664e+01 1.2812159600282888e+01 3 2 1
7 1 1.0520480495105657e+00 4.4247686835940527e+00 8.7203323312735215e+00 -1 0 1
4985 1 1.0613195270447409e+00 7.0877733015570099e+00 9.6919845773611044e+00 2 1 1
6216 1 6.6376594590569322e+00 5.1034663668614977e+00 1.0029915733532356e+01 0 0 1
1912 1 5.4338764183995245e+00 7.8806095462109891e+00 1.0141485163725665e+01 0 0 0
4552 1 9.3142999000887752e+00 5.5097009088032216e+00 8.8673209992370445e+00 1 3 1
2190 1 9.8866786654289154e+00 7.8335551271706532e+00 1.0255275898022518e+01 1 -2 1
6477 1 7.4787482735979012e+00 8.6486083229446784e+00 1.3863947797148354e+01 1 -1 1
6220 1 3.2089270323064549e+00 8.6766438902983847e+00 8.9160970779318678e+00 -1 0 1
3392 1 3.2456309427839782e+00 1.1253606611369966e+01 9.9396757767410566e+00 2 -2 1
3466 1 7.4931827012257113e+00 9.0010978991587098e+00 8.9846435781801723e+00 1 -3 0
6122 1 7.5266338044570809e+00 1.9279835261322746e+00 9.1266854365357428e+00 -1 0 1
219 1 3.0825047922722990e+00 2.1505103069122883e-01 1.3647357270617283e+01 -1 0 1
5240 1 3.0742375369020563e+00 1.1447559911848437e+01 1.2791310148593464e+01 1 0 0
5088 1 5.2979912544604222e+00 3.5495986880110904e+00 8.3077242655537340e+00 -2 1 1
5281 1 3.4601720806948029e+00 2.6534493413009743e+00 1.2392768152604688e+01 1 -1 0
4778 1 7.4102791144772668e+00 3.8335045613404062e+00 1.2439880877681956e+01 1 -1 1
6339 1 1.3144677704447936e+00 4.2282203010539945e+00 1.3380409016103439e+01 1 2 0
5409 1 9.6541467363653488e-01 7.0724736865075153e+00 1.2561302795188032e+01 -1 0 1
1358 1 5.0485285761301659e+00 4.8836483914245870e+00 1.3528108801473163e+01 1 3 1
1814 1 5.3218768861679955e+00 7.4374359106727361e+00 1.2662509413575856e+01 1 1 0
1759 1 9.9333309009844477e+00 7.9036054017493784e+00 1.2860011992152538e+01 -1 2 1
6430 1 9.6593078090075011e+00 5.1238840605201066e+00 1.3599755188013727e+01 1 1 1
5048 1 7.7759697158113434e+00 1.1458395117580487e+01 1.0068166164738109e+01 1 -1 0
6197 1 1.1781393813824341e+01 4.2359589240765612e+00 9.6257818729269484e+00 1 -2 1
286 1 1.2244353827975036e+01 1.1883840917078743e+01 1.2989882955223852e+01 0 -2 0
4728 1 1.1887308602712757e+01 3.9038016150490407e+00 1.2563426440938164e+01 0 2 1
3182 1 1.2077599593261336e+01 9.2513843318793239e+00 9.2748182325439092e+00 0 0 1
2999 1 1.2001090684610784e+01 1.9585412277299004e+00 8.3340236130601557e+00 1 1 1
4541 1 1.2079088061947260e+01 9.0155687811098346e+00 1.3748488470797602e+01 0 0 1
1261 1 3.2978124142654170e+00 2.7074544305790305e+00 1.7185027005266438e+01 0 0 1
3045 1 9.3418145092162885e-01 9.9575960678044240e+00 2.1027682902257318e+01 1 0 1
1906 1 7.8088025363962137e+00 3.1262929709924783e+00 1.7017096952051677e+01 1 0 0
1840 1 5.3634310572067641e+00 9.4575285150231210e+00 2.0807570254867752e+01 3 1 0
2949 1 3.1983430372556461e+00 1.1145611218266238e+01 2.0031867653879921e+01 -1 1 1
3754 1 1.2449620786541509e+00 4.3523222561706243e+00 1.6263346588229279e+01 0 1 1
5128 1 8.2411966368379541e-01 7.3009724136513618e+00 1.7286374219600020e+01 3 0 0
359 1 5.2395573777187980e+00 4.4267633546812890e+00 1.6211587834939561e+01 0 1 0
3308 1 5.2934340586908268e+00 7.1107301565685672e+00 1.6967686162087915e+01 2 2 0
5310 1 7.4155130217290273e+00 8.6244116063675129e+00 1.6633326903117855e+01 1 1 1
3085 1 9.8441778280114676e+00 4.8568085238967935e+00 1.6381356485207078e+01 0 1 1
3582 1 9.7255396827027365e+00 7.3582098150476734e+00 1.7392175307195377e+01 -2 3 0
2032 1 3.1387398036943948e+00 8.6601259956281869e+00 1.6479854358011572e+01 2 1 0
242 1 3.2815361525816571e+00 1.1355192833835622e+01 1.7199445620102949e+01 0 2 0
2998 1 7.7434287258181618e+00 1.1415870273527432e+01 1.7357049745784966e+01 -1 0 1
5124 1 9.8501669702588170e+00 9.7293244468269986e+00 2.0740993709559653e+01 4 0 0
1926 1 7.5635676604547530e+00 1.0972233973227379e+01 2.0173067376352829e+01 0 1 1
5108 1 1.0684940616980672e+00 1.6649889496201886e+00 2.1024458634039323e+01 1 1 0
3752 1 3.1979466494009712e+00 2.9273697997902008e+00 1.9857689178125959e+01 1 2 1
4603 1 5.4515957485644284e+00 1.5330055649157681e+00 2.0661314252355570e+01 2 0 1
272 1 7.6090803954808370e+00 2.9547611554272990e+00 1.9803527050966462e+01 -1 0 0
1743 1 9.9697082585840171e+00 1.5970154663809089e+00 2.1001293369011307e+01 3 -1 0
4646 1 1.1889285945570196e+00 7.0750201072793022e+00 2.0020171940225076e+01 1 0 1
5370 1 3.4713980323447267e+00 5.3478383335727573e+00 2.0674808883014727e+01 3 2 0
3371 1 5.7389110009008544e+00 6.9815515516667555e+00 1.9722404402017123e+01 0 0 1
6132 1 7.9393905703782588e+00 5.4777659431421020e+00 2.0896907943567722e+01 0 -1 1
1955 1 9.9984035528282309e+00 6.9359661114860138e+00 2.0031004561712848e+01 -1 1 0
4515 1 1.2133359557992820e+01 3.0387070211433049e+00 1.9956323115621046e+01 0 2 1
386 1 1.2222779743730182e+01 5.7515043484196848e+00 2.0731077109029457e+01 -4 -1 0
3458 1 1.1982961527837347e+01 8.7546619661267346e+00 1.6495248444544828e+01 0 0 0
1552 1 1.2159034526134830e+01 1.1112666413396157e+01 2.0232767167311188e+01 -1 0 1
1507 1 1.2209099405936700e+01 3.1738448869864050e-01 1.6227027329234382e+01 2 0 0
3212 1 1.2156162582936545e+01 1.1352058743258562e+01 1.7388828391864212e+01 1 0 1
1354 1 7.7837667968200517e+00 2.3963542111207659e-01 1.6220696839830360e+01 3 -1 1
5382 1 3.3722599788738137e+00 2.3046991269515615e-01 1.6355807706734691e+01 0 -1 1
4682 1 3.4768113423527627e+00 2.8756299640074245e+00 2.4448333766206130e+01 0 0 1
1936 1 1.0216321153094534e+00 1.3394772566939073e+00 2.3654302084988540e+01 1 -1 0
3475 1 5.4504214315404527e+00 1.3958100321860754e+00 2.3200570896730845e+01 2 -1 1
6274 1 7.7096042276680974e+00 2.5374394145277459e+00 2.4282717999525804e+01 -1 -1 1
2889 1 1.0094504427916402e+01 1.4845942289081540e+00 2.3707266574589450e+01 1 2 1
3707 1 1.3087644747424736e+00 6.8004485790551179e+00 2.4096020587883729e+01 1 0 0
2123 1 3.6639134920861776e+00 5.3456817513616874e+00 2.3438809785103341e+01 0 0 1
1263 1 5.9055145437135419e+00 6.7564145444853905e+00 2.4089283096527289e+01 1 1 1
180 1 8.1286451851999786e+00 5.3235745148958573e+00 2.3666643746811502e+01 0 1 0
1503 1 1.0253032110070508e+01 6.8305755142291007e+00 2.4263372570727171e+01 -1 -1 1
4607 1 3.0670938329160586e+00 1.0751291463684684e+01 2.4246529965906166e+01 1 2 1
3367 1 8.3420398515325278e-01 9.3839164671676798e+00 2.3654895561302396e+01 0 0 0
1442 1 5.6313292723904818e+00 9.3328986441327864e+00 2.3727305236506282e+01 -1 -1 0
6392 1 7.8086206004752672e+00 1.0726737889538905e+01 2.4201160817069631e+01 2 2 1
3592 1 1.0049900511143509e+01 9.5678708067591458e+00 2.3497426204732729e+01 1 1 1
748 2 9.8440000000000012e+00 1.1366872099805333e+01 2.6725752300665384e+01 0 0 0
572 2 0.0000000000000000e+00 2.8417180249513345e+00 2.6725752300665384e+01 0 0 0
574 2 0.0000000000000000e+00 0.0000000000000000e+00 2.6725752300665384e+01 0 0 0
576 2 1.2305000000000001e+00 7.1042950623783474e-01 2.6725752300665384e+01 0 0 0
583 2 1.2305000000000001e+00 2.1312885187134998e+00 2.6725752300665384e+01 0 0 0
585 2 2.4610000000000003e+00 2.8417180249513345e+00 2.6725752300665384e+01 0 0 0
587 2 2.4610000000000003e+00 0.0000000000000000e+00 2.6725752300665384e+01 0 0 0
589 2 3.6915000000000004e+00 7.1042950623783474e-01 2.6725752300665384e+01 0 0 0
604 2 3.6914999999999996e+00 2.1312885187134998e+00 2.6725752300665384e+01 0 0 0
606 2 4.9220000000000006e+00 2.8417180249513332e+00 2.6725752300665384e+01 0 0 0
608 2 4.9220000000000006e+00 0.0000000000000000e+00 2.6725752300665384e+01 0 0 0
610 2 6.1524999999999999e+00 7.1042950623783407e-01 2.6725752300665384e+01 0 0 0
633 2 6.1524999999999999e+00 2.1312885187134989e+00 2.6725752300665384e+01 0 0 0
635 2 7.3829999999999991e+00 2.8417180249513345e+00 2.6725752300665384e+01 0 0 0
637 2 7.3829999999999991e+00 0.0000000000000000e+00 2.6725752300665384e+01 0 0 0
639 2 8.6134999999999984e+00 7.1042950623783407e-01 2.6725752300665384e+01 0 0 0
670 2 8.6134999999999984e+00 2.1312885187135002e+00 2.6725752300665384e+01 0 0 0
672 2 9.8440000000000012e+00 2.8417180249513332e+00 2.6725752300665384e+01 0 0 0
674 2 9.8440000000000012e+00 0.0000000000000000e+00 2.6725752300665384e+01 0 0 0
676 2 1.1074500000000002e+01 7.1042950623783330e-01 2.6725752300665384e+01 0 0 0
715 2 1.1074500000000002e+01 2.1312885187135002e+00 2.6725752300665384e+01 0 0 0
579 2 0.0000000000000000e+00 4.2625770374269996e+00 2.6725752300665384e+01 0 0 0
581 2 1.2305000000000001e+00 4.9730065436648339e+00 2.6725752300665384e+01 0 0 0
596 2 1.2305000000000001e+00 6.3938655561404980e+00 2.6725752300665384e+01 0 0 0
600 2 2.4610000000000003e+00 4.2625770374269996e+00 2.6725752300665384e+01 0 0 0
602 2 3.6914999999999996e+00 4.9730065436648339e+00 2.6725752300665384e+01 0 0 0
625 2 3.6914999999999996e+00 6.3938655561404980e+00 2.6725752300665384e+01 0 0 0
577 2 0.0000000000000000e+00 7.1042950623783341e+00 2.6725752300665384e+01 0 0 0
598 2 2.4610000000000003e+00 7.1042950623783341e+00 2.6725752300665384e+01 0 0 0
629 2 4.9220000000000006e+00 4.2625770374269978e+00 2.6725752300665384e+01 0 0 0
631 2 6.1524999999999999e+00 4.9730065436648339e+00 2.6725752300665384e+01 0 0 0
662 2 6.1524999999999999e+00 6.3938655561404980e+00 2.6725752300665384e+01 0 0 0
666 2 7.3829999999999991e+00 4.2625770374269996e+00 2.6725752300665384e+01 0 0 0
627 2 4.9220000000000006e+00 7.1042950623783341e+00 2.6725752300665384e+01 0 0 0
664 2 7.3830000000000009e+00 7.1042950623783341e+00 2.6725752300665384e+01 0 0 0
668 2 8.6135000000000002e+00 4.9730065436648339e+00 2.6725752300665384e+01 0 0 0
707 2 8.6135000000000002e+00 6.3938655561404980e+00 2.6725752300665384e+01 0 0 0
711 2 9.8440000000000012e+00 4.2625770374270004e+00 2.6725752300665384e+01 0 0 0
713 2 1.1074500000000002e+01 4.9730065436648339e+00 2.6725752300665384e+01 0 0 0
754 2 1.1074500000000002e+01 6.3938655561404980e+00 2.6725752300665384e+01 0 0 0
709 2 9.8440000000000012e+00 7.1042950623783341e+00 2.6725752300665384e+01 0 0 0
592 2 0.0000000000000000e+00 8.5251540748539991e+00 2.6725752300665384e+01 0 0 0
594 2 1.2305000000000001e+00 9.2355835810918343e+00 2.6725752300665384e+01 0 0 0
621 2 2.4610000000000003e+00 8.5251540748539991e+00 2.6725752300665384e+01 0 0 0
623 2 3.6915000000000004e+00 9.2355835810918343e+00 2.6725752300665384e+01 0 0 0
590 2 0.0000000000000000e+00 1.1366872099805333e+01 2.6725752300665384e+01 0 0 0
617 2 1.2305000000000001e+00 1.0656442593567498e+01 2.6725752300665384e+01 0 0 0
619 2 2.4610000000000003e+00 1.1366872099805333e+01 2.6725752300665384e+01 0 0 0
654 2 3.6914999999999996e+00 1.0656442593567499e+01 2.6725752300665384e+01 0 0 0
703 2 7.3830000000000009e+00 8.5251540748539991e+00 2.6725752300665384e+01 0 0 0
656 2 4.9220000000000006e+00 1.1366872099805333e+01 2.6725752300665384e+01 0 0 0
701 2 7.3829999999999991e+00 1.1366872099805333e+01 2.6725752300665384e+01 0 0 0
699 2 6.1524999999999999e+00 1.0656442593567499e+01 2.6725752300665384e+01 0 0 0
658 2 4.9220000000000006e+00 8.5251540748539991e+00 2.6725752300665384e+01 0 0 0
660 2 6.1524999999999999e+00 9.2355835810918343e+00 2.6725752300665384e+01 0 0 0
750 2 9.8440000000000012e+00 8.5251540748539956e+00 2.6725752300665384e+01 0 0 0
793 2 1.1074500000000002e+01 1.0656442593567498e+01 2.6725752300665384e+01 0 0 0
705 2 8.6134999999999984e+00 9.2355835810918343e+00 2.6725752300665384e+01 0 0 0
795 2 1.2304999999999998e+01 1.1366872099805333e+01 2.6725752300665384e+01 0 0 0
752 2 1.1074500000000002e+01 9.2355835810918343e+00 2.6725752300665384e+01 0 0 0
746 2 8.6134999999999984e+00 1.0656442593567498e+01 2.6725752300665384e+01 0 0 0
6394 1 1.2241986672509093e+01 2.9496255180878177e+00 2.4543357289267213e+01 0 1 1
1432 1 1.2260142864887193e+01 1.1004342115039391e+01 2.4144033433412208e+01 0 1 1
573 2 0.0000000000000000e+00 1.4208590124756650e+00 3.0030999999993394e+01 0 0 0
575 2 0.0000000000000000e+00 0.0000000000000000e+00 3.0030999999993394e+01 0 0 0
584 2 1.2305000000000001e+00 2.1312885187134998e+00 3.0030999999993394e+01 0 0 0
586 2 2.4610000000000003e+00 1.4208590124756650e+00 3.0030999999993394e+01 0 0 0
588 2 2.4610000000000003e+00 0.0000000000000000e+00 3.0030999999993394e+01 0 0 0
605 2 3.6914999999999996e+00 2.1312885187134998e+00 3.0030999999993394e+01 0 0 0
582 2 1.2305000000000001e+00 3.5521475311891644e+00 3.0030999999993394e+01 0 0 0
603 2 3.6914999999999996e+00 3.5521475311891644e+00 3.0030999999993394e+01 0 0 0
901 2 0.0000000000000000e+00 2.8417180249513345e+00 3.3336247699324019e+01 0 0 0
902 2 0.0000000000000000e+00 0.0000000000000000e+00 3.3336247699324019e+01 0 0 0
903 2 1.2305000000000001e+00 7.1042950623783474e-01 3.3336247699324019e+01 0 0 0
907 2 1.2305000000000001e+00 2.1312885187134998e+00 3.3336247699324019e+01 0 0 0
908 2 2.4610000000000003e+00 2.8417180249513345e+00 3.3336247699324019e+01 0 0 0
909 2 2.4610000000000003e+00 0.0000000000000000e+00 3.3336247699324019e+01 0 0 0
910 2 3.6915000000000004e+00 7.1042950623783474e-01 3.3336247699324019e+01 0 0 0
918 2 3.6914999999999996e+00 2.1312885187134998e+00 3.3336247699324019e+01 0 0 0
607 2 4.9220000000000006e+00 1.4208590124756650e+00 3.0030999999993394e+01 0 0 0
609 2 4.9220000000000006e+00 0.0000000000000000e+00 3.0030999999993394e+01 0 0 0
634 2 6.1524999999999999e+00 2.1312885187134989e+00 3.0030999999993394e+01 0 0 0
636 2 7.3829999999999991e+00 1.4208590124756659e+00 3.0030999999993394e+01 0 0 0
638 2 7.3829999999999991e+00 0.0000000000000000e+00 3.0030999999993394e+01 0 0 0
632 2 6.1524999999999999e+00 3.5521475311891644e+00 3.0030999999993394e+01 0 0 0
919 2 4.9220000000000006e+00 2.8417180249513332e+00 3.3336247699324019e+01 0 0 0
920 2 4.9220000000000006e+00 0.0000000000000000e+00 3.3336247699324019e+01 0 0 0
921 2 6.1524999999999999e+00 7.1042950623783407e-01 3.3336247699324019e+01 0 0 0
933 2 6.1524999999999999e+00 2.1312885187134989e+00 3.3336247699324019e+01 0 0 0
934 2 7.3829999999999991e+00 2.8417180249513345e+00 3.3336247699324019e+01 0 0 0
935 2 7.3829999999999991e+00 0.0000000000000000e+00 3.3336247699324019e+01 0 0 0
671 2 8.6134999999999984e+00 2.1312885187135002e+00 3.0030999999993394e+01 0 0 0
673 2 9.8440000000000012e+00 1.4208590124756659e+00 3.0030999999993394e+01 0 0 0
675 2 9.8440000000000012e+00 0.0000000000000000e+00 3.0030999999993394e+01 0 0 0
716 2 1.1074500000000002e+01 2.1312885187135002e+00 3.0030999999993394e+01 0 0 0
669 2 8.6134999999999984e+00 3.5521475311891657e+00 3.0030999999993394e+01 0 0 0
714 2 1.1074500000000002e+01 3.5521475311891644e+00 3.0030999999993394e+01 0 0 0
936 2 8.6134999999999984e+00 7.1042950623783407e-01 3.3336247699324019e+01 0 0 0
952 2 8.6134999999999984e+00 2.1312885187135002e+00 3.3336247699324019e+01 0 0 0
953 2 9.8440000000000012e+00 2.8417180249513332e+00 3.3336247699324019e+01 0 0 0
954 2 9.8440000000000012e+00 0.0000000000000000e+00 3.3336247699324019e+01 0 0 0
955 2 1.1074500000000002e+01 7.1042950623783330e-01 3.3336247699324019e+01 0 0 0
975 2 1.1074500000000002e+01 2.1312885187135002e+00 3.3336247699324019e+01 0 0 0
578 2 0.0000000000000000e+00 5.6834360499026637e+00 3.0030999999993394e+01 0 0 0
580 2 0.0000000000000000e+00 4.2625770374269996e+00 3.0030999999993394e+01 0 0 0
597 2 1.2305000000000001e+00 6.3938655561404980e+00 3.0030999999993394e+01 0 0 0
599 2 2.4610000000000003e+00 5.6834360499026637e+00 3.0030999999993394e+01 0 0 0
601 2 2.4610000000000003e+00 4.2625770374269996e+00 3.0030999999993394e+01 0 0 0
626 2 3.6914999999999996e+00 6.3938655561404980e+00 3.0030999999993394e+01 0 0 0
595 2 1.2305000000000001e+00 7.8147245686161639e+00 3.0030999999993394e+01 0 0 0
624 2 3.6914999999999996e+00 7.8147245686161639e+00 3.0030999999993394e+01 0 0 0
905 2 0.0000000000000000e+00 4.2625770374269996e+00 3.3336247699324019e+01 0 0 0
906 2 1.2305000000000001e+00 4.9730065436648339e+00 3.3336247699324019e+01 0 0 0
914 2 1.2305000000000001e+00 6.3938655561404980e+00 3.3336247699324019e+01 0 0 0
916 2 2.4610000000000003e+00 4.2625770374269996e+00 3.3336247699324019e+01 0 0 0
917 2 3.6914999999999996e+00 4.9730065436648339e+00 3.3336247699324019e+01 0 0 0
929 2 3.6914999999999996e+00 6.3938655561404980e+00 3.3336247699324019e+01 0 0 0
904 2 0.0000000000000000e+00 7.1042950623783341e+00 3.3336247699324019e+01 0 0 0
915 2 2.4610000000000003e+00 7.1042950623783341e+00 3.3336247699324019e+01 0 0 0
628 2 4.9220000000000006e+00 5.6834360499026637e+00 3.0030999999993394e+01 0 0 0
630 2 4.9220000000000006e+00 4.2625770374269978e+00 3.0030999999993394e+01 0 0 0
663 2 6.1524999999999999e+00 6.3938655561404980e+00 3.0030999999993394e+01 0 0 0
665 2 7.3829999999999991e+00 5.6834360499026637e+00 3.0030999999993394e+01 0 0 0
667 2 7.3829999999999991e+00 4.2625770374269996e+00 3.0030999999993394e+01 0 0 0
661 2 6.1524999999999999e+00 7.8147245686161639e+00 3.0030999999993394e+01 0 0 0
931 2 4.9220000000000006e+00 4.2625770374269978e+00 3.3336247699324019e+01 0 0 0
932 2 6.1524999999999999e+00 4.9730065436648339e+00 3.3336247699324019e+01 0 0 0
948 2 6.1524999999999999e+00 6.3938655561404980e+00 3.3336247699324019e+01 0 0 0
950 2 7.3829999999999991e+00 4.2625770374269996e+00 3.3336247699324019e+01 0 0 0
930 2 4.9220000000000006e+00 7.1042950623783341e+00 3.3336247699324019e+01 0 0 0
949 2 7.3830000000000009e+00 7.1042950623783341e+00 3.3336247699324019e+01 0 0 0
708 2 8.6135000000000002e+00 6.3938655561404980e+00 3.0030999999993394e+01 0 0 0
710 2 9.8440000000000012e+00 5.6834360499026637e+00 3.0030999999993394e+01 0 0 0
712 2 9.8440000000000012e+00 4.2625770374270004e+00 3.0030999999993394e+01 0 0 0
755 2 1.1074500000000002e+01 6.3938655561404980e+00 3.0030999999993394e+01 0 0 0
706 2 8.6135000000000002e+00 7.8147245686161639e+00 3.0030999999993394e+01 0 0 0
753 2 1.1074500000000002e+01 7.8147245686161639e+00 3.0030999999993394e+01 0 0 0
951 2 8.6135000000000002e+00 4.9730065436648339e+00 3.3336247699324019e+01 0 0 0
971 2 8.6135000000000002e+00 6.3938655561404980e+00 3.3336247699324019e+01 0 0 0
973 2 9.8440000000000012e+00 4.2625770374270004e+00 3.3336247699324019e+01 0 0 0
974 2 1.1074500000000002e+01 4.9730065436648339e+00 3.3336247699324019e+01 0 0 0
995 2 1.1074500000000002e+01 6.3938655561404980e+00 3.3336247699324019e+01 0 0 0
972 2 9.8440000000000012e+00 7.1042950623783341e+00 3.3336247699324019e+01 0 0 0
591 2 0.0000000000000000e+00 9.9460130873296642e+00 3.0030999999993394e+01 0 0 0
593 2 0.0000000000000000e+00 8.5251540748539991e+00 3.0030999999993394e+01 0 0 0
620 2 2.4610000000000003e+00 9.9460130873296642e+00 3.0030999999993394e+01 0 0 0
622 2 2.4610000000000003e+00 8.5251540748539991e+00 3.0030999999993394e+01 0 0 0
616 2 1.2305000000000001e+00 1.2077301606043163e+01 3.0030999999993394e+01 0 0 0
618 2 1.2305000000000001e+00 1.0656442593567498e+01 3.0030999999993394e+01 0 0 0
653 2 3.6914999999999996e+00 1.2077301606043163e+01 3.0030999999993394e+01 0 0 0
655 2 3.6914999999999996e+00 1.0656442593567499e+01 3.0030999999993394e+01 0 0 0
912 2 0.0000000000000000e+00 8.5251540748539991e+00 3.3336247699324019e+01 0 0 0
913 2 1.2305000000000001e+00 9.2355835810918343e+00 3.3336247699324019e+01 0 0 0
927 2 2.4610000000000003e+00 8.5251540748539991e+00 3.3336247699324019e+01 0 0 0
928 2 3.6915000000000004e+00 9.2355835810918343e+00 3.3336247699324019e+01 0 0 0
911 2 0.0000000000000000e+00 1.1366872099805333e+01 3.3336247699324019e+01 0 0 0
925 2 1.2305000000000001e+00 1.0656442593567498e+01 3.3336247699324019e+01 0 0 0
926 2 2.4610000000000003e+00 1.1366872099805333e+01 3.3336247699324019e+01 0 0 0
944 2 3.6914999999999996e+00 1.0656442593567499e+01 3.3336247699324019e+01 0 0 0
657 2 4.9220000000000006e+00 9.9460130873296642e+00 3.0030999999993394e+01 0 0 0
659 2 4.9220000000000006e+00 8.5251540748539991e+00 3.0030999999993394e+01 0 0 0
702 2 7.3830000000000009e+00 9.9460130873296642e+00 3.0030999999993394e+01 0 0 0
704 2 7.3830000000000009e+00 8.5251540748539991e+00 3.0030999999993394e+01 0 0 0
698 2 6.1524999999999999e+00 1.2077301606043163e+01 3.0030999999993394e+01 0 0 0
700 2 6.1524999999999999e+00 1.0656442593567499e+01 3.0030999999993394e+01 0 0 0
946 2 4.9220000000000006e+00 8.5251540748539991e+00 3.3336247699324019e+01 0 0 0
947 2 6.1524999999999999e+00 9.2355835810918343e+00 3.3336247699324019e+01 0 0 0
969 2 7.3830000000000009e+00 8.5251540748539991e+00 3.3336247699324019e+01 0 0 0
945 2 4.9220000000000006e+00 1.1366872099805333e+01 3.3336247699324019e+01 0 0 0
967 2 6.1524999999999999e+00 1.0656442593567499e+01 3.3336247699324019e+01 0 0 0
968 2 7.3829999999999991e+00 1.1366872099805333e+01 3.3336247699324019e+01 0 0 0
749 2 9.8440000000000012e+00 9.9460130873296642e+00 3.0030999999993394e+01 0 0 0
751 2 9.8440000000000012e+00 8.5251540748539956e+00 3.0030999999993394e+01 0 0 0
745 2 8.6135000000000002e+00 1.2077301606043163e+01 3.0030999999993394e+01 0 0 0
747 2 8.6134999999999984e+00 1.0656442593567498e+01 3.0030999999993394e+01 0 0 0
792 2 1.1074500000000002e+01 1.2077301606043163e+01 3.0030999999993394e+01 0 0 0
794 2 1.1074500000000002e+01 1.0656442593567498e+01 3.0030999999993394e+01 0 0 0
970 2 8.6134999999999984e+00 9.2355835810918343e+00 3.3336247699324019e+01 0 0 0
993 2 9.8440000000000012e+00 8.5251540748539956e+00 3.3336247699324019e+01 0 0 0
994 2 1.1074500000000002e+01 9.2355835810918343e+00 3.3336247699324019e+01 0 0 0
991 2 8.6134999999999984e+00 1.0656442593567498e+01 3.3336247699324019e+01 0 0 0
992 2 9.8440000000000012e+00 1.1366872099805333e+01 3.3336247699324019e+01 0 0 0
1015 2 1.1074500000000002e+01 1.0656442593567498e+01 3.3336247699324019e+01 0 0 0
1016 2 1.2304999999999998e+01 1.1366872099805333e+01 3.3336247699324019e+01 0 0 0
3044 1 1.2109366979641050e+00 2.5465283753302472e+00 3.5995018534152379e+01 1 3 0
4633 1 3.8161935935485687e+00 1.1966117426119127e+00 3.6099417744694250e+01 1 4 -1
5100 1 6.2087359265089477e+00 2.4111270694642077e+00 3.5900410630056768e+01 1 1 -1
1372 1 8.6080740211072957e+00 1.1099871608753702e+00 3.5941287749519560e+01 -2 0 0
4511 1 1.1246630621531851e+01 2.5982957923310401e+00 3.6140703660470265e+01 0 0 0
1875 1 1.0537538611039357e+00 5.2418634345069979e+00 3.6222045970032269e+01 0 -1 -1
1318 1 3.3803956287537829e+00 6.5524752222017568e+00 3.6047278030990810e+01 0 -1 0
193 1 6.1619552968784692e+00 5.2540708794743720e+00 3.6181252010633273e+01 0 1 0
5424 1 8.6101447127758188e+00 6.4769093722008106e+00 3.5819990145576512e+01 1 1 0
5084 1 1.1244625765158720e+01 5.3056662137347743e+00 3.5908862710147304e+01 1 0 0
2898 1 1.4123979195182601e+00 1.0790230414815973e+01 3.6159220460618513e+01 2 2 -1
1922 1 3.9755443165033708e+00 9.3436597146602303e+00 3.6633670327955329e+01 1 0 -1
3027 1 6.3357764415735529e+00 1.0648687934885956e+01 3.6259222278402504e+01 -4 0 0
6433 1 8.7829213701457434e+00 9.2687667050794964e+00 3.5748564350849520e+01 0 1 0
2060 1 1.0827352664414381e+01 1.1154594928004649e+01 3.5996080129893997e+01 1 -2 -1
195 1 1.1225562392032660e+00 2.4680827774583824e+00 3.9071059027643699e+01 2 3 -1
3602 1 3.6589874526143218e+00 1.3090762334419055e+00 3.8734288464871014e+01 1 -3 -1
3750 1 6.3388772161202285e+00 2.5049290432699998e+00 3.9003628819679179e+01 1 0 0
5447 1 8.6534115109988985e+00 8.5438779242107044e-01 3.8810850820286078e+01 -1 1 0
6111 1 1.0819010874452127e+01 2.4521680904103884e+00 3.9240560691567907e+01 3 2 -1
1417 1 1.2183944492447929e+00 5.2763833462700918e+00 3.9042990008481127e+01 0 2 0
3262 1 3.7287300734281859e+00 6.9584227611110396e+00 3.9529960886297573e+01 1 0 -1
1835 1 6.1993245841251676e+00 5.5830332239102383e+00 3.9088051258976094e+01 0 2 -1
179 1 8.6606783598398973e+00 6.8226539430153119e+00 3.8632827433765399e+01 1 0 0
4905 1 1.1093323525019807e+01 5.4899540181163493e+00 3.8689460250141281e+01 -1 1 0
3283 1 1.1131414179171950e+00 1.0850455445764984e+01 3.9167687995697065e+01 0 1 0
3319 1 3.6435240963793722e+00 9.6287794660292754e+00 3.9442115943172709e+01 -3 0 -1
4799 1 6.1866378039929133e+00 1.0982272703135397e+01 3.9373110695896031e+01 1 0 0
4569 1 8.5023346239949582e+00 9.5502421542200011e+00 3.8988895468589277e+01 -1 4 0
4762 1 1.0673390972802718e+01 1.1150294339353346e+01 3.8830339730305170e+01 3 0 0
39 1 9.9451755870065794e-01 3.3840902354700746e+00 4.1750564277171591e+01 -1 1 -1
3049 1 3.2861518425298559e+00 2.4242047996059792e+00 4.2769220287466226e+01 5 0 0
1510 1 5.5980330365671866e+00 3.2084095372985613e+00 4.1416600747805973e+01 3 0 -1
6384 1 7.5663869562232398e+00 1.6202940638984040e+00 4.2611478016652796e+01 0 2 0
4825 1 9.8672425245671018e+00 2.8287088916611207e+00 4.1795835571221261e+01 1 -3 0
3321 1 3.7555110420095326e+00 7.0228327040651184e+00 4.2060200847017583e+01 0 -1 -1
1609 1 1.4322197137116173e+00 5.8380623032611094e+00 4.2853227271772326e+01 0 2 -1
321 1 6.1080439513622169e+00 5.6300566327619608e+00 4.2601867774054426e+01 2 -2 -1
1653 1 8.4524187267574327e+00 6.9099393247688488e+00 4.1583909775646561e+01 -1 -2 0
510 1 1.0834409152994352e+01 5.2792178031343591e+00 4.2710694747658536e+01 1 2 -1
1997 1 9.2540142174150264e-01 1.0807444644505223e+01 4.2236783039969012e+01 3 2 -1
6312 1 3.3851915776665420e+00 9.5245849122435544e+00 4.2691202404517199e+01 1 1 -1
264 1 5.7763939142872696e+00 1.1160233846378173e+01 4.2282033402499152e+01 1 2 0
6425 1 7.9221169938394516e+00 9.6966218969202256e+00 4.2450964140926672e+01 2 -2 0
5335 1 1.0215460303117352e+01 1.0905050645482079e+01 4.1564053581814974e+01 1 -1 0
5123 1 3.5331108178440682e+00 1.4749050532941894e+00 4.5395403722982152e+01 2 3 0
3638 1 9.8365440476530033e+00 8.4147519908144144e+00 4.9026729666231944e+01 -3 1 -1
4685 1 4.4595942447141024e+00 1.3682707240526892e+00 4.8211545479531182e+01 0 -2 -1
3082 1 8.0783271257998912e+00 1.4504021041989761e+00 4.5261000925606467e+01 -2 0 0
3460 1 8.2459248703097661e+00 4.0521411499696063e+00 4.6283262207743917e+01 -2 3 -1
5280 1 3.4258201306292677e+00 4.1648254099667783e+00 4.6389182285744695e+01 3 1 -1
108 1 1.3328667349405277e+00 5.9875287661280581e+00 4.5813031844359941e+01 -1 1 -1
167 1 5.6745887844622986e+00 5.3841567212625847e+00 4.5565552187757433e+01 2 -2 0
3531 1 1.0468672881392136e+01 5.6317295682670814e+00 4.5405883050566459e+01 2 2 0
3493 1 8.5758468936189258e-01 8.6489726296884033e+00 4.6691468056358815e+01 1 2 -1
104 1 3.4849231454686702e+00 9.4379372693917762e+00 4.5488839858141290e+01 1 -2 -1
6233 1 5.6144775237604376e+00 8.1468196422244503e+00 4.6183090113941077e+01 0 2 0
526 1 8.0007568572522150e+00 9.4389306210809600e+00 4.5151544525342175e+01 -1 0 0
1822 1 5.3392603791879676e+00 8.0089699200735023e+00 4.9064825490265207e+01 1 1 0
4689 1 1.0254653082614137e+01 8.2614073131415129e+00 4.6256393375315398e+01 -1 0 0
1731 1 2.8981264006272922e+00 2.3359268994693227e+00 5.1426357584274641e+01 2 -1 0
4663 1 7.3877734181306751e+00 1.0803258957357444e+00 4.8190267098290221e+01 0 0 0