LAMMPS data file via write_data, version 16 Mar 2018, timestep = 100000

6489 atoms
2 atom types

0.0000000000000000e+00 4.9219999999999999e+01 xlo xhi
0.0000000000000000e+00 4.9019635930410494e+01 ylo yhi
1.8200531469724979e+00 5.8241946853026725e+01 zlo zhi

Masses

1 18.015
2 12.01

Atoms # atomic

3090 1 3.9032465735258364e+00 1.5113334438609611e+00 4.8170948137177270e+00 1 0 0
166 1 4.5558685891340422e+00 3.3145582448323858e+00 2.5671130453248163e+00 0 0 0
1286 1 2.7070554183890372e-01 2.0716626164189167e+00 8.4179695590663783e+00 0 0 1
4623 1 7.9578801266269261e+00 4.3046841161564515e+00 3.1859509921843490e+00 0 0 0
3566 1 8.5929546452868983e+00 1.1981473407690720e+01 3.4762855978145235e+00 0 -1 0
3397 1 1.1146725738949911e+01 1.0436263393719525e+01 3.7081116735003636e+00 -1 0 1
1657 1 1.9004483302569080e+00 5.9890090424175835e+00 5.9379436705178152e+00 0 0 0
3639 1 8.2396484241244377e+00 1.0528721126040153e+01 5.7948355726126142e+00 1 0 0
5051 1 9.8522612297040659e+00 5.1221205733489228e+00 5.1236001299613605e+00 0 1 0
6415 1 5.4852427283589495e+00 5.9329041022638442e+00 2.7677371109643603e+00 0 1 0
2887 1 1.8483334576671409e+00 9.6831265786830159e+00 8.5246998554904660e+00 0 0 1
286 1 3.5513297966796156e+00 9.5475408850406183e+00 4.2706530556739111e+00 0 0 0
6476 1 8.1792285483826692e+00 7.3142826484653032e+00 7.8098617977363691e+00 0 0 1
3520 1 1.4399449828425950e+00 1.1204557430306769e+01 3.1100720791122898e+00 1 0 0
2058 1 2.7859894658625177e+00 3.3965130299194648e+00 6.9163837033950548e+00 1 1 0
464 1 4.3318908921237140e+00 7.1736077478793305e+00 5.0346713375616901e+00 0 0 1
3272 1 7.9146339922404279e+00 7.7616682727564159e+00 3.4643709286835014e+00 0 0 0
451 1 1.0667558662840490e+01 2.1927995252386987e+00 2.8665555538158567e+00 0 0 0
5155 1 1.1997145859047036e+01 5.8955477695605953e+00 3.4349579511706008e+00 0 1 0
1585 1 9.6391623109042524e+00 8.0521787190308611e+00 5.6184496060672480e+00 0 0 0
5084 1 5.2529533950390750e+00 6.5752155816108209e+00 7.6871120935445507e+00 1 0 1
4872 1 5.2245833025196031e+00 4.0526225207886011e+00 7.2504020928637543e+00 1 1 0
4929 1 6.6935155466046021e+00 2.6308100017558345e+00 5.1678839380470585e+00 0 -1 0
4664 1 6.0033291302147003e+00 1.0099763848854517e+01 2.9708538029432567e+00 0 1 1
1754 1 9.8911060627962648e+00 3.0640325946592069e+00 7.0267765872177890e+00 0 1 0
2025 1 6.1582383789783668e+00 1.1455080331880684e+01 7.3779441250556586e+00 0 0 0
217 1 3.8173068511121055e+00 1.0523071332803777e+01 6.7890673239929580e+00 1 0 0
348 1 1.5012425686405653e+00 6.8912668302685312e+00 8.4447635636606755e+00 0 0 0
1463 1 1.4848928573835845e+00 1.0059296865539999e+00 3.3004246591422413e+00 0 0 0
296 1 8.6587365375815946e+00 1.1417877918482973e+00 5.7370093477894528e+00 1 0 1
6338 1 7.9734581070302886e+00 3.8589152618606071e+00 8.6946058280705607e+00 1 1 0
1876 1 1.0235727534456847e+01 1.2106205697355938e+01 7.4625535047709182e+00 0 0 0
6255 1 4.8762390490486518e-01 3.1513800968973511e+00 1.1101065744809468e+01 0 0 1
4831 1 5.3261131687014576e+00 1.9180537276410075e+00 9.4962634107148460e+00 1 0 0
3707 1 7.7029408105716186e+00 1.7279931531866080e+00 1.1245193240331860e+01 1 0 0
271 1 3.6417858198835580e+00 6.2496527107690660e+00 1.0082070036619760e+01 1 0 0
3536 1 3.4925153341340853e+00 3.4634124316204038e+00 1.0862263285064859e+01 0 0 0
5273 1 9.1141965378406766e+00 9.7500179613328548e+00 8.9505908616892924e+00 1 0 1
1460 1 1.1924667727862840e+01 8.9491884092747966e+00 9.4496021925289533e+00 0 0 1
318 1 6.3161752577480765e+00 8.7110936505591816e+00 1.3060160036702037e+01 1 0 0
4964 1 9.2320997340204674e+00 5.8365984241725704e+00 1.0231913478898552e+01 0 0 1
2913 1 9.7362874363112795e+00 1.1262783471104559e+01 1.5575267119912022e+01 1 1 1
3038 1 1.6401238969327554e+00 1.0062793839332025e+01 1.1307693051008288e+01 1 -1 1
3431 1 1.0161346907505875e+01 1.0666114575805794e+01 1.2804298080898159e+01 1 0 0
5275 1 3.7248253112481118e+00 8.2023022751203118e+00 1.1849712314387176e+01 0 0 0
1785 1 1.1473361574966171e+01 3.2372302610762600e+00 1.4197757391499175e+01 1 1 1
5384 1 1.0536245527246919e+01 7.9814497446312176e+00 1.4112673627419616e+01 1 0 0
2077 1 7.8473485754178718e+00 1.0323644437266433e+01 1.1337500568214624e+01 0 1 0
68 1 8.4259297008704137e-01 1.4478151974691207e+00 1.3316928640885640e+01 0 1 1
4661 1 5.2030858434358089e+00 1.7043885147997451e+00 1.4752895175489590e+01 0 1 1
1542 1 7.2491889136175196e+00 3.6499747214826201e+00 1.4940144367878661e+01 0 0 1
3157 1 1.1751831245840201e+01 6.1947522395346430e+00 1.0468804975249588e+01 -1 0 1
4965 1 3.4767929712788490e+00 5.0937904678075192e+00 1.5397529908198338e+01 0 0 0
2049 1 2.4493798175752031e+00 7.4559200805263126e+00 1.4327578847641117e+01 1 -1 0
565 1 6.1648580345600452e+00 6.3776947829219184e+00 1.4923033567091130e+01 1 0 0
6194 1 3.2128655881846835e+00 3.1490774634398986e+00 1.3536916676580431e+01 0 0 1
3750 1 9.0465107984341024e+00 3.8079392470627775e+00 1.2829434121975343e+01 1 1 1
1836 1 8.4701580931076492e+00 6.6294624052330331e+00 1.2773769591412776e+01 0 0 0
1473 1 5.6188492106739334e+00 1.0115766108829339e+01 1.5248052563691637e+01 0 0 1
21 1 1.8666080279186166e+00 2.5875019073577601e+00 1.7939822698924281e+01 1 1 0
383 1 4.1284115770027441e+00 9.5492557269571787e-01 1.7348847226741313e+01 1 0 1
5268 1 1.2010583407574416e+01 8.1089232277975776e-01 2.1598652944091814e+01 1 0 0
2072 1 8.4814040585986934e+00 1.1052565662894958e+01 2.1073039263394175e+01 1 1 0
1635 1 1.8250131073771700e+00 5.4455944257717013e+00 1.7539415759956235e+01 0 0 1
5374 1 8.8982316978067004e+00 1.9622469235049522e+00 1.6422546730827950e+01 0 0 0
1510 1 5.9894751052125450e+00 2.5032353027231586e+00 1.9118421347407878e+01 1 1 0
71 1 7.1545487105660284e+00 4.6673218130637659e+00 1.7783920202586451e+01 0 0 0
1977 1 9.6530664240499249e+00 5.3280542914961693e+00 1.8440471297346889e+01 0 0 0
1769 1 1.0977345277851896e+01 3.4451663984911280e+00 1.6974490244225514e+01 1 1 0
1902 1 6.1521895868272800e+00 7.3884286921293834e+00 1.7255965674041114e+01 0 0 0
3358 1 6.4893107205734157e+00 1.1354607282854136e+01 1.9449588814521608e+01 1 -1 0
2121 1 4.8979390985981022e+00 9.7115250223774616e+00 2.0966053143936868e+01 0 0 0
3174 1 9.8999470856181766e+00 7.7808966936296162e+00 1.6889204477086317e+01 0 -1 1
3674 1 1.2411940769870360e+00 2.4866341706550221e+00 2.0847638089759858e+01 0 0 0
3098 1 3.6614954052410966e+00 1.7546363335475479e+00 2.1779594441692922e+01 0 1 1
3306 1 5.7804765199786354e+00 4.0390678937587845e+00 2.1439029485657667e+01 -1 0 0
5196 1 8.7526689353359952e+00 3.8448986959844018e+00 2.1141046829918999e+01 0 0 0
1892 1 9.1851403360675246e+00 9.8891938445679894e-01 2.1275039664347577e+01 1 0 0
4794 1 1.0042848214786103e+01 8.7687717869112571e+00 2.1493178581659283e+01 1 1 0
1627 1 1.2889534169006009e+00 7.4479272017805247e+00 1.9806068815371027e+01 0 0 1
5176 1 6.3266648995737595e-01 5.1047177678748517e+00 2.1198300180197183e+01 0 1 0
3010 1 3.7016648871959092e+00 6.0126783624868798e+00 2.1433905416133992e+01 0 1 1
4956 1 6.3579787243021615e+00 6.9557672235531394e+00 2.0513843797561311e+01 1 0 1
5380 1 1.0725080739860006e+01 5.9742817863824937e+00 2.1137135863341310e+01 1 1 0
435 1 1.9631613761641042e+00 9.8394355518961465e+00 2.1267887751034763e+01 1 0 0
1457 1 1.5260382845149829e+00 1.0251944541531262e+01 1.7360750808306282e+01 -1 0 0
3776 1 7.6338705342974151e+00 1.0042481437404843e+01 1.7154853623319539e+01 1 1 1
1802 1 3.6110951949744114e+00 8.7228708249069005e+00 1.6303657188496956e+01 0 1 1
2007 1 7.7245342766309211e+00 7.3014566455752288e+00 2.2956839134270108e+01 1 1 0
6367 1 1.2180091585668675e+01 9.0105451801394540e+00 1.7988890364003879e+01 0 0 1
5403 1 7.8683069911783026e+00 5.9565704936249542e-01 1.8827431938366853e+01 1 1 0
3009 1 1.4497426421887847e+00 2.2010308225612532e+00 2.4539468910113648e+01 0 1 1
1962 1 4.3305837977716211e+00 1.5733118478252024e+00 2.4601134888210186e+01 0 0 0
1955 1 6.2720345446025965e+00 3.8305368169021379e+00 2.4210676233310508e+01 0 0 0
4806 1 8.9101757030207462e+00 3.5320913496973296e+00 2.4061552432164550e+01 0 0 0
752 2 1.1074500000000002e+01 9.2355835810918343e+00 2.6853541827589545e+01 0 0 0
750 2 9.8440000000000012e+00 8.5251540748539956e+00 2.6853541827589545e+01 0 0 0
3374 1 2.7334158722651121e+00 6.8043124749679968e+00 2.4320417046574491e+01 1 0 0
795 2 1.2304999999999998e+01 1.1366872099805333e+01 2.6853541827589545e+01 0 0 0
5008 1 5.6591366256622386e+00 6.5230594093290435e+00 2.4549610524123427e+01 0 0 0
1860 1 6.4174937451830105e-01 4.7798222688145637e+00 2.3952519599855343e+01 1 0 0
2070 1 1.0284983537093275e+01 5.8347407204075887e+00 2.3884458480570348e+01 0 1 0
1448 1 3.5918388986812126e+00 1.1206945392162542e+01 2.4623910754530886e+01 0 1 1
1943 1 9.7422440079125607e+00 7.0100392658461796e-01 2.4413204505602440e+01 0 0 0
1664 1 5.9362483263305865e+00 9.4499792888888550e+00 2.3686296578837077e+01 1 0 0
91 1 8.5086742970645250e+00 1.0760110840271150e+01 2.4160526916541073e+01 1 0 1
363 1 1.0615542789870366e+01 8.8816965980529261e+00 2.4233806166129384e+01 0 1 0
572 2 0.0000000000000000e+00 2.8417180249513345e+00 2.6853541827589545e+01 0 0 0
574 2 0.0000000000000000e+00 0.0000000000000000e+00 2.6853541827589545e+01 0 0 0
576 2 1.2305000000000001e+00 7.1042950623783474e-01 2.6853541827589545e+01 0 0 0
583 2 1.2305000000000001e+00 2.1312885187134998e+00 2.6853541827589545e+01 0 0 0
585 2 2.4610000000000003e+00 2.8417180249513345e+00 2.6853541827589545e+01 0 0 0
587 2 2.4610000000000003e+00 0.0000000000000000e+00 2.6853541827589545e+01 0 0 0
589 2 3.6915000000000004e+00 7.1042950623783474e-01 2.6853541827589545e+01 0 0 0
604 2 3.6914999999999996e+00 2.1312885187134998e+00 2.6853541827589545e+01 0 0 0
606 2 4.9220000000000006e+00 2.8417180249513332e+00 2.6853541827589545e+01 0 0 0
608 2 4.9220000000000006e+00 0.0000000000000000e+00 2.6853541827589545e+01 0 0 0
610 2 6.1524999999999999e+00 7.1042950623783407e-01 2.6853541827589545e+01 0 0 0
633 2 6.1524999999999999e+00 2.1312885187134989e+00 2.6853541827589545e+01 0 0 0
635 2 7.3829999999999991e+00 2.8417180249513345e+00 2.6853541827589545e+01 0 0 0
637 2 7.3829999999999991e+00 0.0000000000000000e+00 2.6853541827589545e+01 0 0 0
639 2 8.6134999999999984e+00 7.1042950623783407e-01 2.6853541827589545e+01 0 0 0
670 2 8.6134999999999984e+00 2.1312885187135002e+00 2.6853541827589545e+01 0 0 0
672 2 9.8440000000000012e+00 2.8417180249513332e+00 2.6853541827589545e+01 0 0 0
674 2 9.8440000000000012e+00 0.0000000000000000e+00 2.6853541827589545e+01 0 0 0
676 2 1.1074500000000002e+01 7.1042950623783330e-01 2.6853541827589545e+01 0 0 0
715 2 1.1074500000000002e+01 2.1312885187135002e+00 2.6853541827589545e+01 0 0 0
579 2 0.0000000000000000e+00 4.2625770374269996e+00 2.6853541827589545e+01 0 0 0
581 2 1.2305000000000001e+00 4.9730065436648339e+00 2.6853541827589545e+01 0 0 0
596 2 1.2305000000000001e+00 6.3938655561404980e+00 2.6853541827589545e+01 0 0 0
600 2 2.4610000000000003e+00 4.2625770374269996e+00 2.6853541827589545e+01 0 0 0
602 2 3.6914999999999996e+00 4.9730065436648339e+00 2.6853541827589545e+01 0 0 0
625 2 3.6914999999999996e+00 6.3938655561404980e+00 2.6853541827589545e+01 0 0 0
577 2 0.0000000000000000e+00 7.1042950623783341e+00 2.6853541827589545e+01 0 0 0
598 2 2.4610000000000003e+00 7.1042950623783341e+00 2.6853541827589545e+01 0 0 0
629 2 4.9220000000000006e+00 4.2625770374269978e+00 2.6853541827589545e+01 0 0 0
631 2 6.1524999999999999e+00 4.9730065436648339e+00 2.6853541827589545e+01 0 0 0
662 2 6.1524999999999999e+00 6.3938655561404980e+00 2.6853541827589545e+01 0 0 0
666 2 7.3829999999999991e+00 4.2625770374269996e+00 2.6853541827589545e+01 0 0 0
627 2 4.9220000000000006e+00 7.1042950623783341e+00 2.6853541827589545e+01 0 0 0
664 2 7.3830000000000009e+00 7.1042950623783341e+00 2.6853541827589545e+01 0 0 0
668 2 8.6135000000000002e+00 4.9730065436648339e+00 2.6853541827589545e+01 0 0 0
707 2 8.6135000000000002e+00 6.3938655561404980e+00 2.6853541827589545e+01 0 0 0
711 2 9.8440000000000012e+00 4.2625770374270004e+00 2.6853541827589545e+01 0 0 0
713 2 1.1074500000000002e+01 4.9730065436648339e+00 2.6853541827589545e+01 0 0 0
754 2 1.1074500000000002e+01 6.3938655561404980e+00 2.6853541827589545e+01 0 0 0
709 2 9.8440000000000012e+00 7.1042950623783341e+00 2.6853541827589545e+01 0 0 0
592 2 0.0000000000000000e+00 8.5251540748539991e+00 2.6853541827589545e+01 0 0 0
594 2 1.2305000000000001e+00 9.2355835810918343e+00 2.6853541827589545e+01 0 0 0
621 2 2.4610000000000003e+00 8.5251540748539991e+00 2.6853541827589545e+01 0 0 0
623 2 3.6915000000000004e+00 9.2355835810918343e+00 2.6853541827589545e+01 0 0 0
590 2 0.0000000000000000e+00 1.1366872099805333e+01 2.6853541827589545e+01 0 0 0
617 2 1.2305000000000001e+00 1.0656442593567498e+01 2.6853541827589545e+01 0 0 0
619 2 2.4610000000000003e+00 1.1366872099805333e+01 2.6853541827589545e+01 0 0 0
654 2 3.6914999999999996e+00 1.0656442593567499e+01 2.6853541827589545e+01 0 0 0
658 2 4.9220000000000006e+00 8.5251540748539991e+00 2.6853541827589545e+01 0 0 0
660 2 6.1524999999999999e+00 9.2355835810918343e+00 2.6853541827589545e+01 0 0 0
703 2 7.3830000000000009e+00 8.5251540748539991e+00 2.6853541827589545e+01 0 0 0
656 2 4.9220000000000006e+00 1.1366872099805333e+01 2.6853541827589545e+01 0 0 0
699 2 6.1524999999999999e+00 1.0656442593567499e+01 2.6853541827589545e+01 0 0 0
701 2 7.3829999999999991e+00 1.1366872099805333e+01 2.6853541827589545e+01 0 0 0
793 2 1.1074500000000002e+01 1.0656442593567498e+01 2.6853541827589545e+01 0 0 0
748 2 9.8440000000000012e+00 1.1366872099805333e+01 2.6853541827589545e+01 0 0 0
705 2 8.6134999999999984e+00 9.2355835810918343e+00 2.6853541827589545e+01 0 0 0
746 2 8.6134999999999984e+00 1.0656442593567498e+01 2.6853541827589545e+01 0 0 0
2987 1 1.6078548158926642e+00 9.4821033211234056e+00 2.4075984041690123e+01 0 0 1
573 2 0.0000000000000000e+00 1.4208590124756650e+00 3.0030999999999938e+01 0 0 0
575 2 0.0000000000000000e+00 0.0000000000000000e+00 3.0030999999999938e+01 0 0 0
584 2 1.2305000000000001e+00 2.1312885187134998e+00 3.0030999999999938e+01 0 0 0
586 2 2.4610000000000003e+00 1.4208590124756650e+00 3.0030999999999938e+01 0 0 0
588 2 2.4610000000000003e+00 0.0000000000000000e+00 3.0030999999999938e+01 0 0 0
605 2 3.6914999999999996e+00 2.1312885187134998e+00 3.0030999999999938e+01 0 0 0
582 2 1.2305000000000001e+00 3.5521475311891644e+00 3.0030999999999938e+01 0 0 0
603 2 3.6914999999999996e+00 3.5521475311891644e+00 3.0030999999999938e+01 0 0 0
901 2 0.0000000000000000e+00 2.8417180249513345e+00 3.3208458172409422e+01 0 0 0
902 2 0.0000000000000000e+00 0.0000000000000000e+00 3.3208458172409422e+01 0 0 0
903 2 1.2305000000000001e+00 7.1042950623783474e-01 3.3208458172409422e+01 0 0 0
907 2 1.2305000000000001e+00 2.1312885187134998e+00 3.3208458172409422e+01 0 0 0
908 2 2.4610000000000003e+00 2.8417180249513345e+00 3.3208458172409422e+01 0 0 0
909 2 2.4610000000000003e+00 0.0000000000000000e+00 3.3208458172409422e+01 0 0 0
910 2 3.6915000000000004e+00 7.1042950623783474e-01 3.3208458172409422e+01 0 0 0
918 2 3.6914999999999996e+00 2.1312885187134998e+00 3.3208458172409422e+01 0 0 0
607 2 4.9220000000000006e+00 1.4208590124756650e+00 3.0030999999999938e+01 0 0 0
609 2 4.9220000000000006e+00 0.0000000000000000e+00 3.0030999999999938e+01 0 0 0
634 2 6.1524999999999999e+00 2.1312885187134989e+00 3.0030999999999938e+01 0 0 0
636 2 7.3829999999999991e+00 1.4208590124756659e+00 3.0030999999999938e+01 0 0 0
638 2 7.3829999999999991e+00 0.0000000000000000e+00 3.0030999999999938e+01 0 0 0
632 2 6.1524999999999999e+00 3.5521475311891644e+00 3.0030999999999938e+01 0 0 0
919 2 4.9220000000000006e+00 2.8417180249513332e+00 3.3208458172409422e+01 0 0 0
920 2 4.9220000000000006e+00 0.0000000000000000e+00 3.3208458172409422e+01 0 0 0
921 2 6.1524999999999999e+00 7.1042950623783407e-01 3.3208458172409422e+01 0 0 0
933 2 6.1524999999999999e+00 2.1312885187134989e+00 3.3208458172409422e+01 0 0 0
934 2 7.3829999999999991e+00 2.8417180249513345e+00 3.3208458172409422e+01 0 0 0
935 2 7.3829999999999991e+00 0.0000000000000000e+00 3.3208458172409422e+01 0 0 0
671 2 8.6134999999999984e+00 2.1312885187135002e+00 3.0030999999999938e+01 0 0 0
673 2 9.8440000000000012e+00 1.4208590124756659e+00 3.0030999999999938e+01 0 0 0
675 2 9.8440000000000012e+00 0.0000000000000000e+00 3.0030999999999938e+01 0 0 0
716 2 1.1074500000000002e+01 2.1312885187135002e+00 3.0030999999999938e+01 0 0 0
669 2 8.6134999999999984e+00 3.5521475311891657e+00 3.0030999999999938e+01 0 0 0
714 2 1.1074500000000002e+01 3.5521475311891644e+00 3.0030999999999938e+01 0 0 0
936 2 8.6134999999999984e+00 7.1042950623783407e-01 3.3208458172409422e+01 0 0 0
952 2 8.6134999999999984e+00 2.1312885187135002e+00 3.3208458172409422e+01 0 0 0
953 2 9.8440000000000012e+00 2.8417180249513332e+00 3.3208458172409422e+01 0 0 0
954 2 9.8440000000000012e+00 0.0000000000000000e+00 3.3208458172409422e+01 0 0 0
955 2 1.1074500000000002e+01 7.1042950623783330e-01 3.3208458172409422e+01 0 0 0
975 2 1.1074500000000002e+01 2.1312885187135002e+00 3.3208458172409422e+01 0 0 0
578 2 0.0000000000000000e+00 5.6834360499026637e+00 3.0030999999999938e+01 0 0 0
580 2 0.0000000000000000e+00 4.2625770374269996e+00 3.0030999999999938e+01 0 0 0
597 2 1.2305000000000001e+00 6.3938655561404980e+00 3.0030999999999938e+01 0 0 0
599 2 2.4610000000000003e+00 5.6834360499026637e+00 3.0030999999999938e+01 0 0 0
601 2 2.4610000000000003e+00 4.2625770374269996e+00 3.0030999999999938e+01 0 0 0
626 2 3.6914999999999996e+00 6.3938655561404980e+00 3.0030999999999938e+01 0 0 0
595 2 1.2305000000000001e+00 7.8147245686161639e+00 3.0030999999999938e+01 0 0 0
624 2 3.6914999999999996e+00 7.8147245686161639e+00 3.0030999999999938e+01 0 0 0
905 2 0.0000000000000000e+00 4.2625770374269996e+00 3.3208458172409422e+01 0 0 0
906 2 1.2305000000000001e+00 4.9730065436648339e+00 3.3208458172409422e+01 0 0 0
914 2 1.2305000000000001e+00 6.3938655561404980e+00 3.3208458172409422e+01 0 0 0
916 2 2.4610000000000003e+00 4.2625770374269996e+00 3.3208458172409422e+01 0 0 0
917 2 3.6914999999999996e+00 4.9730065436648339e+00 3.3208458172409422e+01 0 0 0
929 2 3.6914999999999996e+00 6.3938655561404980e+00 3.3208458172409422e+01 0 0 0
904 2 0.0000000000000000e+00 7.1042950623783341e+00 3.3208458172409422e+01 0 0 0
915 2 2.4610000000000003e+00 7.1042950623783341e+00 3.3208458172409422e+01 0 0 0
628 2 4.9220000000000006e+00 5.6834360499026637e+00 3.0030999999999938e+01 0 0 0
630 2 4.9220000000000006e+00 4.2625770374269978e+00 3.0030999999999938e+01 0 0 0
663 2 6.1524999999999999e+00 6.3938655561404980e+00 3.0030999999999938e+01 0 0 0
665 2 7.3829999999999991e+00 5.6834360499026637e+00 3.0030999999999938e+01 0 0 0
667 2 7.3829999999999991e+00 4.2625770374269996e+00 3.0030999999999938e+01 0 0 0
661 2 6.1524999999999999e+00 7.8147245686161639e+00 3.0030999999999938e+01 0 0 0
931 2 4.9220000000000006e+00 4.2625770374269978e+00 3.3208458172409422e+01 0 0 0
932 2 6.1524999999999999e+00 4.9730065436648339e+00 3.3208458172409422e+01 0 0 0
948 2 6.1524999999999999e+00 6.3938655561404980e+00 3.3208458172409422e+01 0 0 0
950 2 7.3829999999999991e+00 4.2625770374269996e+00 3.3208458172409422e+01 0 0 0
930 2 4.9220000000000006e+00 7.1042950623783341e+00 3.3208458172409422e+01 0 0 0
949 2 7.3830000000000009e+00 7.1042950623783341e+00 3.3208458172409422e+01 0 0 0
708 2 8.6135000000000002e+00 6.3938655561404980e+00 3.0030999999999938e+01 0 0 0
710 2 9.8440000000000012e+00 5.6834360499026637e+00 3.0030999999999938e+01 0 0 0
712 2 9.8440000000000012e+00 4.2625770374270004e+00 3.0030999999999938e+01 0 0 0
755 2 1.1074500000000002e+01 6.3938655561404980e+00 3.0030999999999938e+01 0 0 0
706 2 8.6135000000000002e+00 7.8147245686161639e+00 3.0030999999999938e+01 0 0 0
753 2 1.1074500000000002e+01 7.8147245686161639e+00 3.0030999999999938e+01 0 0 0
951 2 8.6135000000000002e+00 4.9730065436648339e+00 3.3208458172409422e+01 0 0 0
971 2 8.6135000000000002e+00 6.3938655561404980e+00 3.3208458172409422e+01 0 0 0
973 2 9.8440000000000012e+00 4.2625770374270004e+00 3.3208458172409422e+01 0 0 0
974 2 1.1074500000000002e+01 4.9730065436648339e+00 3.3208458172409422e+01 0 0 0
995 2 1.1074500000000002e+01 6.3938655561404980e+00 3.3208458172409422e+01 0 0 0
972 2 9.8440000000000012e+00 7.1042950623783341e+00 3.3208458172409422e+01 0 0 0
591 2 0.0000000000000000e+00 9.9460130873296642e+00 3.0030999999999938e+01 0 0 0
593 2 0.0000000000000000e+00 8.5251540748539991e+00 3.0030999999999938e+01 0 0 0
620 2 2.4610000000000003e+00 9.9460130873296642e+00 3.0030999999999938e+01 0 0 0
622 2 2.4610000000000003e+00 8.5251540748539991e+00 3.0030999999999938e+01 0 0 0
616 2 1.2305000000000001e+00 1.2077301606043163e+01 3.0030999999999938e+01 0 0 0
618 2 1.2305000000000001e+00 1.0656442593567498e+01 3.0030999999999938e+01 0 0 0
653 2 3.6914999999999996e+00 1.2077301606043163e+01 3.0030999999999938e+01 0 0 0
655 2 3.6914999999999996e+00 1.0656442593567499e+01 3.0030999999999938e+01 0 0 0
912 2 0.0000000000000000e+00 8.5251540748539991e+00 3.3208458172409422e+01 0 0 0
913 2 1.2305000000000001e+00 9.2355835810918343e+00 3.3208458172409422e+01 0 0 0
927 2 2.4610000000000003e+00 8.5251540748539991e+00 3.3208458172409422e+01 0 0 0
928 2 3.6915000000000004e+00 9.2355835810918343e+00 3.3208458172409422e+01 0 0 0
911 2 0.0000000000000000e+00 1.1366872099805333e+01 3.3208458172409422e+01 0 0 0
925 2 1.2305000000000001e+00 1.0656442593567498e+01 3.3208458172409422e+01 0 0 0
926 2 2.4610000000000003e+00 1.1366872099805333e+01 3.3208458172409422e+01 0 0 0
944 2 3.6914999999999996e+00 1.0656442593567499e+01 3.3208458172409422e+01 0 0 0
657 2 4.9220000000000006e+00 9.9460130873296642e+00 3.0030999999999938e+01 0 0 0
659 2 4.9220000000000006e+00 8.5251540748539991e+00 3.0030999999999938e+01 0 0 0
702 2 7.3830000000000009e+00 9.9460130873296642e+00 3.0030999999999938e+01 0 0 0
704 2 7.3830000000000009e+00 8.5251540748539991e+00 3.0030999999999938e+01 0 0 0
698 2 6.1524999999999999e+00 1.2077301606043163e+01 3.0030999999999938e+01 0 0 0
700 2 6.1524999999999999e+00 1.0656442593567499e+01 3.0030999999999938e+01 0 0 0
946 2 4.9220000000000006e+00 8.5251540748539991e+00 3.3208458172409422e+01 0 0 0
947 2 6.1524999999999999e+00 9.2355835810918343e+00 3.3208458172409422e+01 0 0 0
969 2 7.3830000000000009e+00 8.5251540748539991e+00 3.3208458172409422e+01 0 0 0
945 2 4.9220000000000006e+00 1.1366872099805333e+01 3.3208458172409422e+01 0 0 0
967 2 6.1524999999999999e+00 1.0656442593567499e+01 3.3208458172409422e+01 0 0 0
968 2 7.3829999999999991e+00 1.1366872099805333e+01 3.3208458172409422e+01 0 0 0
749 2 9.8440000000000012e+00 9.9460130873296642e+00 3.0030999999999938e+01 0 0 0
751 2 9.8440000000000012e+00 8.5251540748539956e+00 3.0030999999999938e+01 0 0 0
745 2 8.6135000000000002e+00 1.2077301606043163e+01 3.0030999999999938e+01 0 0 0
747 2 8.6134999999999984e+00 1.0656442593567498e+01 3.0030999999999938e+01 0 0 0
792 2 1.1074500000000002e+01 1.2077301606043163e+01 3.0030999999999938e+01 0 0 0
794 2 1.1074500000000002e+01 1.0656442593567498e+01 3.0030999999999938e+01 0 0 0
970 2 8.6134999999999984e+00 9.2355835810918343e+00 3.3208458172409422e+01 0 0 0
993 2 9.8440000000000012e+00 8.5251540748539956e+00 3.3208458172409422e+01 0 0 0
994 2 1.1074500000000002e+01 9.2355835810918343e+00 3.3208458172409422e+01 0 0 0
991 2 8.6134999999999984e+00 1.0656442593567498e+01 3.3208458172409422e+01 0 0 0
992 2 9.8440000000000012e+00 1.1366872099805333e+01 3.3208458172409422e+01 0 0 0
1015 2 1.1074500000000002e+01 1.0656442593567498e+01 3.3208458172409422e+01 0 0 0
1016 2 1.2304999999999998e+01 1.1366872099805333e+01 3.3208458172409422e+01 0 0 0
5356 1 5.8555299899049729e-01 6.0546676075638439e+00 3.6049876980545427e+01 0 1 0
2183 1 6.1509111929002254e+00 1.8025479166779022e+00 3.6008080119880894e+01 1 1 0
4782 1 8.4566584035220007e+00 1.0916568673138034e+01 3.6420025801845831e+01 0 0 -1
5381 1 5.9236635173627787e+00 1.0137888325912673e+01 3.5657806686754427e+01 0 0 0
1746 1 4.7866338087805715e+00 4.0876064565461983e+00 3.5456776359888423e+01 0 -1 -1
6442 1 6.1109136427526103e+00 6.1853409124812018e+00 3.6389155609752962e+01 1 1 -1
3193 1 8.9313462340563881e+00 6.1267026724482863e+00 3.6368716343504040e+01 1 1 0
3303 1 1.0113223751725673e+01 3.8087327156525204e+00 3.5916739782686982e+01 1 1 -1
6262 1 1.2082174799204233e+00 9.2478352589760284e+00 3.5710967232461712e+01 -1 1 -1
3258 1 9.9267177908013906e+00 8.5906174478363777e+00 3.5932973823923312e+01 0 0 0
1713 1 4.0121619931579406e+00 8.1177160213797244e+00 3.6329416444562384e+01 1 0 0
6404 1 8.8657334270665302e+00 1.6610109231840233e+00 3.6996917705440261e+01 -1 1 0
2165 1 2.4801309495617825e+00 4.1121681575368489e+00 3.6897119951332186e+01 0 1 0
3690 1 1.3601784532958998e+00 1.2035411524725594e+01 3.6019872857530210e+01 1 -1 0
2914 1 4.3358278071752530e+00 1.2188362337356933e+01 3.6388699375622366e+01 0 1 0
6373 1 4.5841527234241006e+00 1.2049393911736427e+01 3.9088488704727844e+01 1 1 0
4603 1 5.4018154641766909e+00 3.6365863518436869e+00 4.0930719017928865e+01 1 0 0
401 1 1.1537506074111358e+01 1.5469513661130194e+00 3.9951870667775090e+01 1 1 0
5125 1 8.7380494075189272e+00 2.2082896194816728e+00 4.0153991691130265e+01 0 0 -1
5099 1 3.0270660140456029e+00 8.3629508524437970e+00 3.9089534025984896e+01 1 1 -1
4860 1 3.3869122749248639e+00 5.1836774729147148e+00 3.9329727567084845e+01 0 1 -1
537 1 6.4099743912010121e+00 6.0278231058773182e+00 3.9175211124390437e+01 0 0 -1
4676 1 5.3973691027960333e+00 7.9340300522368699e+00 4.0505201868418695e+01 1 0 0
156 1 9.7590534643655644e+00 6.5528310412116451e+00 3.8945265847269049e+01 1 0 -1
3713 1 2.3361977528751736e+00 1.0927930716558000e+01 4.0397958920498255e+01 1 0 0
2968 1 6.7138764767695953e+00 1.0604453040991110e+01 4.0227233591578262e+01 1 1 0
3299 1 9.1869753097371269e+00 1.1095572008270125e+01 3.9146504022646944e+01 0 1 -1
3496 1 5.6353616391410535e+00 7.7273321659917826e+00 4.3262949231568911e+01 1 1 -1
4722 1 1.0570044409822907e+01 9.6057508837766878e+00 4.2255477672172510e+01 0 0 -1
4501 1 1.7434927071110446e+00 5.5560391405452130e+00 4.1321630308652097e+01 0 1 0
2038 1 1.6365391742664150e+00 1.6877426685505265e-01 4.2586358908414944e+01 1 1 -1
4755 1 4.2980652779295587e+00 1.4351312145227166e+00 4.2825144841157602e+01 1 -1 0
1807 1 2.8071983938080405e+00 4.5734480351177682e+00 4.3869748341177718e+01 0 0 -1
1507 1 6.9110161793153546e+00 6.7088916461266590e-01 4.1700468421466176e+01 0 1 -1
1287 1 9.3374817770978924e-01 1.9694513460378207e+00 3.7567172340844579e+01 1 0 0
2197 1 1.1475939812114826e+01 9.2422099227817245e-01 4.2755464098867044e+01 -1 1 0
3742 1 8.7167578922481226e-01 7.9387200548893109e+00 4.2789115827284164e+01 1 1 0
163 1 8.3268324877833191e+00 8.6370274866734871e+00 4.3841284818306747e+01 0 0 -1
8 1 9.2704784973844720e+00 6.0075878742654298e+00 4.3710988665337979e+01 1 0 0
6137 1 5.7314395678481045e+00 4.9314409934447694e+00 4.3388125043031316e+01 1 1 0
2880 1 8.4772391962321691e+00 4.8478294505792539e+00 4.1030348691774172e+01 0 0 -1
1843 1 5.9174900525478102e-01 7.1719873589253416e+00 3.8544180199796394e+01 0 0 -1
4712 1 8.7852541297964653e+00 1.1068215132567960e+00 4.4054712811858373e+01 0 2 -1
205 1 7.1234757254075225e+00 1.1244895045643865e+01 4.2987935745666753e+01 0 0 -1
1545 1 1.1205022180601686e+01 9.0978049052274965e+00 3.8703066514330729e+01 0 1 0
4916 1 1.2197304106721381e+01 5.7313805070689634e+00 4.2726530957086290e+01 0 0 -1
4567 1 1.1315317027115082e+01 1.2115978341329505e+01 4.1101154757630106e+01 0 2 0
4613 1 1.2478716510298031e+00 2.3838284345888811e-01 3.9680433517716743e+01 1 0 0
3475 1 2.2731082064885628e+00 1.2055253708258787e+01 4.2876564236285745e+01 0 0 0
6141 1 3.0835493868427588e+00 2.3923327785196018e+00 4.9589511744752791e+01 0 0 0
1861 1 1.7004347607250401e+00 5.2639295933800867e-01 4.6775745294697018e+01 2 1 -1
512 1 1.1562251614093039e+01 4.7830923063819597e+00 4.5517963595078449e+01 -1 0 0
569 1 2.6222500604063530e+00 3.8954191824980380e+00 4.6854356611199520e+01 0 0 0
195 1 7.9229336598373585e+00 1.0917193086271148e+01 4.9471929463977567e+01 1 1 -1
6397 1 4.2478586145998110e+00 1.5102724683005231e+00 4.5737026622898902e+01 0 1 0
4801 1 4.6577756337624558e+00 1.1178036860572659e+01 4.4328422723068819e+01 0 0 -1
3130 1 5.9932513018233582e+00 3.8698351473710009e+00 4.6717611792778406e+01 1 1 0
6303 1 3.1640741420829062e+00 6.3650573027564521e+00 4.7799012606530582e+01 0 1 -1
5243 1 5.4758362824601186e+00 6.8731331745571227e+00 4.6284550921156139e+01 1 1 -1
2941 1 3.6748525305975726e+00 1.0450607181208111e+01 5.1095410808806889e+01 0 0 0
6455 1 6.9289012426667611e+00 6.0871319812366509e-01 4.6144035656597609e+01 1 -1 0
539 1 1.1107787423127595e+01 1.0866768661848596e+01 4.6323275282969114e+01 0 1 0
6167 1 1.0537762654888406e+01 1.1034108091019604e+01 5.0407598292582811e+01 0 1 -1
2139 1 8.4517233122951954e+00 9.7211000060865995e+00 4.6169389171110922e+01 0 0 0
4823 1 8.1158209402753680e+00 6.8204098603868051e+00 5.0549837623482247e+01 -1 0 -1
4759 1 8.3130222392749804e+00 3.5882926236846062e+00 4.5015476947583942e+01 0 0 0
6206 1 5.4678724041949955e+00 8.3293050131405533e-01 4.9427720916905336e+01 1 1 0
5038 1 7.4980348287331546e+00 2.5507928542174616e+00 4.8524454223834553e+01 -1 0 0
3121 1 3.8923234786030630e-01 1.0721934408932368e+01 4.4584879576316887e+01 1 1 -1
4747 1 2.3449989028648739e+00 1.2090243303818152e+01 4.9077234655191624e+01 1 0 -1
2145 1 1.0273294921385460e+01 3.7144157691405648e+00 4.7671895021705161e+01 0 0 0
1321 1 5.1130407594287541e-01 7.1870016607588925e+00 4.8021877403939719e+01 0 0 0
3016 1 3.9855335397848211e+00 5.0120316152350890e+00 5.0182998166074725e+01 0 1 0
529 1 7.4502090272406782e+00 8.3161651087309547e+00 4.8052320875493926e+01 0 0 0
6225 1 6.5272786375256642e+00 4.3829806262249251e+00 5.0507418212504547e+01 0 1 -1
3720 1 9.5135773321025745e+00 1.3238409921703935e+00 4.9775402796319263e+01 1 1 0
1330 1 1.2213324888593501e+01 1.0635820925703094e+01 4.8653634011713486e+01 0 1 0