
# Create simulation box and atoms

read_data data.ML_graphite_m500atm_240K
  orthogonal box = (0 0 2.16312) to (49.22 49.0196 57.8989)
  4 by 4 by 8 MPI processor grid
  reading atoms ...
  6489 atoms
  reading velocities ...
  6489 velocities
group water type 1
3729 atoms in group water
group graphite type 2
2760 atoms in group graphite

# Define potential

pair_style sw
pair_coeff * * MLC_e.sw mW C


# Fix graphite atoms in place

fix 5 graphite setforce 0.0 0.0 0.0
velocity graphite set 0.0 0.0 0.0


# Equilibration of molecular water

# Add velocity/set timestep

velocity	    water create ${TEMP} ${SEED} rot yes dist gaussian
velocity	    water create 240 ${SEED} rot yes dist gaussian
velocity	    water create 240 9828 rot yes dist gaussian
timestep	    5.0

# Define output

compute			1 water msd
compute			3 water temp
thermo	    	50
thermo_style	custom step temp press vol etotal ke pe c_1[4] c_3

# Neighbor lists

neigh_modify    delay 0 every 1 check yes

# Set fixes

fix             1 water momentum 10 linear 1 1 1 rescale
fix             2 water nve
fix             3 water temp/csvr ${TEMP} ${TEMP} 500.0 ${SEED}
fix             3 water temp/csvr 240 ${TEMP} 500.0 ${SEED}
fix             3 water temp/csvr 240 240 500.0 ${SEED}
fix             3 water temp/csvr 240 240 500.0 9828
fix             4 water press/berendsen z ${PRES} ${PRES} 1000.0 modulus 20000
fix             4 water press/berendsen z -500 ${PRES} 1000.0 modulus 20000
fix             4 water press/berendsen z -500 -500 1000.0 modulus 20000

# Run 0.5 ns equilibration

dump		    1 all atom 2000 ${DIR}/eq.${NAME}-${TEMP}.dump
dump		    1 all atom 2000 run_19/eq.${NAME}-${TEMP}.dump
dump		    1 all atom 2000 run_19/eq.het_freeze_19-${TEMP}.dump
dump		    1 all atom 2000 run_19/eq.het_freeze_19-240.dump

reset_timestep  0

run	            100000
Neighbor list info ...
  update every 1 steps, delay 0 steps, check yes
  max neighbors/atom: 2000, page size: 100000
  master list distance cutoff = 6.67472
  ghost atom cutoff = 6.67472
  binsize = 3.33736, bins = 15 15 17
  1 neighbor lists, perpetual/occasional/extra = 1 0 0
  (1) pair sw, perpetual
      attributes: full, newton on
      pair build: full/bin/atomonly
      stencil: full/bin/3d
      bin: standard
Per MPI rank memory allocation (min/avg/max) = 4.068 | 4.178 | 4.493 Mbytes
Step Temp Press Volume TotEng KinEng PotEng c_1[4] c_3 
       0    137.90382   -585.46729    134476.24   -35583.071    2666.9904   -38250.061            0          240 
      50    136.94482   -672.09151    134509.39   -35571.883    2648.4437   -38220.326   0.52753894      238.331 
     100    140.86946   -811.14872    134499.39     -35613.6    2724.3444   -38337.945   0.83021635    245.16124 
     150    141.59189   -686.61684    134458.54    -35567.92    2738.3158   -38306.235    1.0604171    246.41851 
     200    141.97933   -526.26433    134534.04   -35528.145    2745.8086   -38273.954    1.3104169    247.09278 
     250    139.84854   -444.36501    134580.77   -35526.308    2704.6003   -38230.908      1.51685    243.38448 
     300    140.71427   -533.04964    134636.38   -35558.519     2721.343   -38279.862    1.6950638    244.89114 
     350    140.03658   -750.88206    134654.25   -35601.232    2708.2368   -38309.468    1.9025663    243.71173 
     400    138.51691   -609.04091    134620.27   -35602.051    2678.8471   -38280.898    2.1443136    241.06698 
     450    140.93784   -930.65195    134567.36   -35613.653    2725.6668    -38339.32    2.3138937    245.28024 
     500    141.51727   -478.38976    134548.37   -35572.615    2736.8726   -38309.487    2.5183667    246.28863 
     550    140.63807   -926.88533    134577.59    -35582.56    2719.8693   -38302.429    2.7202097    244.75853 
     600    135.96858   -847.96835    134553.37   -35594.516    2629.5638    -38224.08    2.8919853    236.63202 
     650    136.01067    -374.5086    134614.34   -35573.766    2630.3778   -38204.144    3.0524087    236.70526 
     700    141.66122   -784.72746    134655.36   -35532.432    2739.6565   -38272.088    3.2708104    246.53916 
     750    136.23433   -633.66995    134632.34   -35572.903    2634.7031   -38207.607    3.4408116     237.0945 
     800    141.37476   -647.95686    134666.02   -35583.026    2734.1165   -38317.142    3.5854964    246.04062 
     850    138.71955   -684.60485    134714.33   -35594.167    2682.7661   -38276.933    3.7997129    241.41964 
     900    136.01893   -567.23505    134791.51    -35604.82    2630.5375   -38235.358     3.931169    236.71964 
     950    140.71258   -798.09936    134795.34   -35588.498    2721.3102   -38309.808      4.08308     244.8882 
    1000    138.81273   -634.15427    134845.98   -35605.544    2684.5681   -38290.112    4.2499717     241.5818 
    1050    139.68091   -896.61824    134869.25   -35617.399    2701.3584   -38318.758     4.475518    243.09275 
    1100    139.95906   -890.16988    134816.47    -35614.65    2706.7376   -38321.388    4.7558094    243.57681 
    1150    141.67682    -746.1776    134751.37   -35566.149    2739.9581   -38306.107    4.9173586     246.5663 
    1200    138.33978   -847.02961    134804.78   -35590.436    2675.4216   -38265.858    5.0517132    240.75872 
    1250    139.33929   -779.39353    134803.23   -35613.236    2694.7516   -38307.988    5.2683264    242.49821 
    1300    138.11956   -991.35897    134785.58   -35613.255    2671.1627   -38284.417    5.4928503    240.37547 
    1350    140.71851   -631.11908    134805.84   -35602.515    2721.4251    -38323.94    5.6515465    244.89853 
    1400    137.44596   -537.25668    134855.82   -35648.365    2658.1356     -38306.5    5.8617524    239.20317 
    1450    138.75812   -863.96158    134916.85   -35641.141     2683.512   -38324.653    6.0030992    241.48676 
    1500     135.9232   -589.97646    134968.28   -35628.144    2628.6862    -38256.83    6.2087509    236.55304 
    1550    138.52658   -747.12693    134997.54   -35691.854    2679.0342   -38370.888     6.373309    241.08382 
    1600    138.49577   -775.74943    134939.65   -35655.258    2678.4383   -38333.696    6.5671588    241.03019 
    1650    137.89421   -856.23944    134830.61   -35652.764    2666.8045   -38319.568    6.7916851    239.98328 
    1700    138.09183   -739.23023    134791.87   -35579.737    2670.6264   -38250.363    6.9291404     240.3272 
    1750    138.11057   -853.25413    134725.17    -35599.67    2670.9888   -38270.659    7.1115178    240.35982 
    1800    136.71602   -742.06871    134782.34    -35593.17    2644.0188   -38237.188    7.2823451    237.93281 
    1850       139.22   -712.75333    134820.82    -35565.08    2692.4445   -38257.525    7.4420926    242.29059 
    1900    141.36739   -696.73175    134895.03   -35563.775     2733.974   -38297.749    7.5880567     246.0278 
    1950     136.3629   -694.36744    134771.92   -35552.752    2637.1897   -38189.942    7.8307366    237.31827 
    2000    136.39103   -581.03334     134749.6   -35538.077    2637.7336   -38175.811    8.0520573    237.36721 
    2050    141.50653   -897.52743    134635.65    -35478.91     2736.665   -38215.575    8.1918506    246.26995 
    2100    138.93566   -512.99965    134719.91   -35525.391    2686.9457   -38212.336    8.4323455    241.79576 
    2150    140.14561   -591.58668    134799.24   -35529.044    2710.3454   -38239.389    8.6639459    243.90148 
    2200    140.62927   -535.28301    134817.72   -35575.661    2719.6992    -38295.36    8.9072825    244.74322 
    2250    136.38496   -791.74814    134907.06   -35648.655    2637.6163   -38286.271    9.2143198    237.35666 
    2300    139.28614   -658.38146    134867.78   -35575.713    2693.7237   -38269.437    9.3028055    242.40571 
    2350    138.74088   -814.55364       134839   -35580.111    2683.1785   -38263.289    9.3490081    241.45676 
    2400     139.2874   -868.26675    134775.89   -35561.583    2693.7481   -38255.331    9.4479311    242.40791 
    2450    138.94462   -999.16014    134834.53   -35607.063    2687.1189   -38294.182       9.5263    241.81135 
    2500    138.25505   -767.74581    134847.34   -35574.296    2673.7829   -38248.079    9.7046503    240.61125 
    2550    141.26718   -939.02661    134781.39   -35597.677    2732.0359   -38329.713      9.86406    245.85339 
    2600    136.74596   -610.57311    134671.85   -35583.121    2644.5979   -38227.719    10.038834    237.98492 
    2650     139.6657   -743.73947    134746.87   -35585.181    2701.0642   -38286.245    10.087156    243.06628 
    2700    137.34493   -866.01596    134662.19   -35579.683    2656.1817   -38235.865    10.245891    239.02734 
    2750    138.18105   -697.08623    134590.87   -35606.867    2672.3519   -38279.219     10.41783    240.48248 
    2800    140.00609   -782.13529    134622.64   -35611.097    2707.6472   -38318.745    10.484346    243.65867 
    2850    136.60903   -990.87855     134633.9   -35600.766    2641.9498   -38242.716    10.567285    237.74662 
    2900    137.04757   -655.96726     134643.7   -35597.366    2650.4308   -38247.797    10.676478    238.50982 
    2950    139.73187    -694.5037    134669.83    -35587.63    2702.3439   -38289.974    10.863291    243.18143 
    3000    139.55057   -717.50824     134703.7   -35557.509    2698.8376   -38256.346     11.00895     242.8659 
    3050    138.89213   -660.23855    134591.19   -35543.217    2686.1037    -38229.32     11.10344    241.71999 
    3100    138.74043   -722.38444    134647.82   -35574.207      2683.17   -38257.377    11.190644    241.45599 
    3150    140.61537   -701.66259    134616.81   -35547.572    2719.4303   -38267.002    11.359312    244.71902 
    3200    139.39381   -626.00334    134687.14   -35519.028    2695.8059   -38214.834    11.590523    242.59308 
    3250    141.58122   -596.93214    134640.12   -35520.896    2738.1094   -38259.005    11.652993    246.39993 
    3300     140.5037   -751.03002    134612.97   -35537.118    2717.2707   -38254.389    11.744721    244.52468 
    3350    142.03728   -617.85011    134577.04   -35509.253    2746.9293   -38256.182    11.948402    247.19363 
    3400    139.57188   -393.87362    134654.15    -35549.73    2699.2498    -38248.98    12.094299      242.903 
    3450    139.30926   -759.39542    134659.26   -35564.757    2694.1708   -38258.927    12.306905    242.44594 
    3500    138.86774   -573.03654    134721.93   -35555.976    2685.6321   -38241.608    12.445172    241.67756 
    3550    136.90697    -664.2684    134792.83    -35569.42    2647.7118   -38217.132     12.56222    238.26514 
    3600     136.9781   -764.71182    134840.34   -35646.401    2649.0873   -38295.488    12.732792    238.38892 
    3650    137.82008   -634.28579    134859.52   -35616.528    2665.3708   -38281.899    12.979242    239.85425 
    3700    137.50746    -696.0408    134893.46   -35661.398    2659.3249   -38320.723    13.107802     239.3102 
    3750    132.67732   -757.50777    134893.44   -35655.534    2565.9125   -38221.447    13.324227     230.9041 
    3800    136.70059   -684.68818    134881.98   -35695.983    2643.7205   -38339.704     13.33547    237.90597 
    3850     138.6364   -669.43408    134995.38   -35646.136    2681.1581   -38327.294    13.579384    241.27494 
    3900    137.53652   -859.76915    134970.19   -35674.832    2659.8868   -38334.719    13.800305    239.36076 
    3950    137.06051   -719.44991    134937.67   -35614.063    2650.6811   -38264.744    14.046813    238.53234 
    4000    138.40038   -878.72815    134979.23    -35626.23    2676.5935   -38302.824    14.246593    240.86418 
    4050    141.09032    -878.6688    134996.94   -35594.594    2728.6157   -38323.209    14.401377    245.54561 
    4100    139.49744   -901.15657    134944.52   -35591.718    2697.8101   -38289.528     14.44563    242.77344 
    4150    137.53345   -667.40077    134922.85   -35640.408    2659.8276   -38300.236    14.557679    239.35543 
    4200    138.73084   -674.12519    134921.88   -35651.181    2682.9845   -38334.165    14.756859     241.4393 
    4250    142.22173   -952.17212    134837.84   -35586.414    2750.4964   -38336.911    14.852024    247.51463 
    4300    139.72025    -874.9589    134768.55   -35611.382    2702.1192   -38313.502    14.816626    243.16121 
    4350    139.57251   -733.43191    134812.27   -35626.034    2699.2619   -38325.295     14.86371    242.90409 
    4400    138.00237   -605.36437    134722.64   -35692.743    2668.8962   -38361.639    14.910359     240.1715 
    4450    139.33005   -734.94943    134771.44   -35658.053    2694.5728   -38352.626    15.126263    242.48212 
    4500    136.47345   -869.44204    134797.11   -35680.691    2639.3277   -38320.019    15.342798    237.51066 
    4550    138.20534   -475.62602    134792.07   -35689.015    2672.8215   -38361.836    15.504658    240.52474 
    4600    136.93377   -486.39531    134829.93   -35670.277    2648.2299   -38318.507    15.728309    238.31177 
    4650    137.58505   -503.67143    134805.59   -35685.098    2660.8255   -38345.923    15.849899    239.44523 
    4700    136.45947   -620.99724    134917.05   -35650.661    2639.0573   -38289.718    16.062797    237.48633 
    4750    138.13525    -584.8819    135008.61   -35641.005    2671.4661   -38312.471    16.316429    240.40277 
    4800    139.27289   -784.56902    135110.09    -35600.42    2693.4674   -38293.887    16.535871    242.38264 
    4850    138.07683    -895.8952    135058.64   -35623.969    2670.3362   -38294.305    16.794939    240.30109 
    4900    139.24846   -902.32845    134978.94    -35672.94     2692.995   -38365.935     16.85143    242.34013 
    4950    137.58156   -683.31481    134983.11   -35693.372     2660.758    -38354.13    16.992285    239.43915 
    5000    136.63387   -748.86834    135084.72   -35713.516    2642.4301   -38355.946    17.123835    237.78985 
    5050    137.11564   -849.04325    135073.17   -35695.576    2651.7473   -38347.324    17.365235    238.62829 
    5100    136.19468   -680.15448    135024.79   -35676.265    2633.9364   -38310.202    17.460853     237.0255 
    5150    139.09605   -752.82059    135065.76   -35713.703    2690.0474   -38403.751    17.608177    242.07489 
    5200    137.68337   -835.44407    135025.77   -35732.875     2662.727   -38395.602    17.696045    239.61634 
    5250    134.74625    -917.0962    134864.51   -35774.335    2605.9245   -38380.259    17.763303    234.50474 
    5300    135.77468   -1011.6835    134739.39   -35801.079    2625.8138   -38426.893    17.893246    236.29456 
    5350    136.87767   -955.07453    134659.59   -35810.482    2647.1452   -38457.627    18.145651    238.21415 
    5400     133.9023   -749.10294    134604.53   -35787.527     2589.603    -38377.13    18.343176    233.03598 
    5450    137.62476   -762.66157    134589.82   -35752.851    2661.5934   -38414.445    18.589237    239.51433 
    5500    135.79225   -886.71828    134541.12   -35738.532    2626.1536   -38364.685    18.894778    236.32513 
    5550    137.76622   -769.67828    134496.45   -35684.787    2664.3293   -38349.116    19.117974    239.76053 
    5600     136.8284   -697.31461    134566.16   -35672.878    2646.1922    -38319.07    19.269439    238.12839 
    5650    137.30528   -804.32498    134440.54   -35590.357    2655.4149   -38245.772    19.530138    238.95834 
    5700    141.10548   -647.59706    134345.96   -35587.024    2728.9088   -38315.932    19.612351    245.57198 
    5750    139.86187   -548.99621    134438.23   -35539.791     2704.858   -38244.649    19.683517    243.40767 
    5800    142.20381   -532.18395    134546.57   -35566.913      2750.15   -38317.063    19.848226    247.48346 
    5850    136.96016   -675.03168    134581.68   -35568.688    2648.7404   -38217.428    20.135206    238.35771 
    5900    138.53904    -927.0071    134507.09   -35642.794    2679.2751   -38322.069    20.383478     241.1055 
    5950    139.03832   -675.37547    134454.21   -35579.915     2688.931   -38268.846    20.667877    241.97442 
    6000    139.33886   -620.70155    134500.81   -35614.638    2694.7434   -38309.381    20.916399    242.49747 
    6050    137.31705   -612.29535    134615.51   -35638.594    2655.6424   -38294.236    21.101937    238.97881 
    6100    139.14542   -562.68822    134660.08   -35657.374    2691.0022   -38348.376    21.351087     242.1608 
    6150    138.85061   -756.54547    134670.08   -35606.218    2685.3007   -38291.518    21.418244    241.64773 
    6200    137.77191   -673.65262    134646.42   -35597.824    2664.4392   -38262.263    21.606067    239.77042 
    6250    141.61903   -731.64789    134777.84   -35556.228    2738.8405   -38295.069    21.904199    246.46573 
    6300    137.45824   -737.34975    134892.07   -35584.345     2658.373   -38242.718     22.11803    239.22453 
    6350    140.13088   -1049.8723    134963.01   -35587.801    2710.0604   -38297.861    22.260691    243.87584 
    6400    138.58067   -960.85027    134882.61   -35607.728    2680.0802   -38287.808    22.494519    241.17794 
    6450    139.65912   -715.53423    134882.78    -35641.59     2700.937   -38342.527    22.679424    243.05483 
    6500    136.91266   -976.91568    134759.34   -35642.005    2647.8218   -38289.827    22.817619    238.27504 
    6550    141.35044   -655.55792    134619.91   -35612.547    2733.6461   -38346.193    22.964306    245.99829 
    6600    139.28061   -635.61498    134734.43   -35630.954    2693.6167    -38324.57    23.126143    242.39608 
    6650    137.87652   -711.50223    134788.37   -35619.933    2666.4623   -38286.395    23.287733    239.95248 
    6700     139.7604   -552.16978    134780.74   -35600.273    2702.8956   -38303.169    23.461925    243.23108 
    6750    137.48216    -893.6769    134753.33     -35622.9    2658.8356   -38281.735    23.677584    239.26616 
    6800    139.35372   -915.42711    134755.93   -35596.424    2695.0307   -38291.455    23.852469    242.52333 
    6850    138.69443   -823.19703    134719.88   -35620.597    2682.2803   -38302.877    24.039544    241.37593 
    6900    138.37205   -681.35325     134647.2    -35666.91    2676.0457   -38342.956    24.169399    240.81488 
    6950    140.23444   -537.01082    134593.66   -35644.228    2712.0632   -38356.291     24.31924    244.05607 
    7000    139.52289   -711.92704    134611.18   -35679.223    2698.3023   -38377.525    24.540734    242.81773 
    7050    137.40295    -621.6119    134638.71    -35702.09    2657.3037   -38359.394    24.653137    239.12831 
    7100    138.06906    -650.2992    134698.74   -35700.838    2670.1859   -38371.024    24.692881    240.28757 
    7150    139.15633   -644.43547    134757.77   -35716.659    2691.2133   -38407.872    24.812002     242.1798 
    7200    137.11089    -545.6723    134804.09   -35754.969    2651.6555   -38406.625    25.052534    238.62003 
    7250    135.06242    -800.0789    134767.94   -35718.044    2612.0391   -38330.083    25.291161    235.05498 
    7300    138.92889   -660.24512    134714.38   -35691.091    2686.8146   -38377.906    25.448059    241.78396 
    7350    137.24561   -838.74752    134733.67   -35700.799    2654.2609    -38355.06    25.661946    238.85449 
    7400     137.7823   -505.50063    134776.76   -35676.046    2664.6402   -38340.686    25.940868    239.78851 
    7450    138.99137   -389.20319    134816.57   -35642.785     2688.023   -38330.808    26.158033    241.89271 
    7500    139.40555    -502.5821    134937.95   -35618.869    2696.0331   -38314.902    26.256024    242.61352 
    7550    138.15159   -741.21243    134975.78   -35625.633     2671.782   -38297.415    26.363213    240.43119 
    7600    139.13788   -583.79149    134941.42   -35584.356    2690.8565   -38275.213    26.581186    242.14769 
    7650    137.47113   -694.53984    135003.18   -35596.131    2658.6223   -38254.753    26.869878    239.24696 
    7700    138.90012   -569.57187    135063.48   -35598.393    2686.2583   -38284.651    27.126943     241.7339 
    7750    139.12396     -661.266    135084.82   -35590.719    2690.5872   -38281.306    27.435237    242.12346 
    7800    138.56561   -710.49897    135120.43   -35584.747    2679.7891   -38264.536    27.754069    241.15174 
    7850    138.85534    -715.1538    135106.76   -35567.962    2685.3923   -38253.354    28.025791    241.65597 
    7900      139.676   -551.92315    135131.09   -35623.163    2701.2633   -38324.426    28.301495    243.08419 
    7950    135.54335   -761.15752    135122.85   -35668.948    2621.3401   -38290.288     28.63605    235.89197 
    8000     134.0424   -633.30608    135116.84   -35720.353    2592.3124   -38312.665    28.811797    233.27979 
    8050    136.82483   -1014.2094    135115.09   -35699.832    2646.1232   -38345.956    29.063858    238.12218 
    8100    134.96356   -560.53352    135101.85   -35718.027    2610.1273   -38328.155    29.187214    234.88294 
    8150    136.95681   -925.93598    135211.79    -35694.67    2648.6757   -38343.346    29.391196    238.35188 
    8200    137.93709    -632.5275     135184.1   -35718.993    2667.6338   -38386.626    29.493766     240.0579 
    8250    135.54518   -848.80194    135217.61   -35701.416    2621.3753   -38322.791    29.684187    235.89514 
    8300    137.07336   -950.45805    135213.75   -35732.773    2650.9297   -38383.702    29.819411    238.55471 
    8350    133.20567   -1011.4467    135161.17   -35793.898    2576.1305   -38370.029    29.904706    231.82361 
    8400    135.85263   -955.38475    135050.71   -35727.729    2627.3214    -38355.05    30.040521    236.43023 
    8450    136.29769    -909.4506    134980.29   -35765.799    2635.9285   -38401.728    30.202126    237.20477 
    8500    135.81797   -781.55717    134942.96    -35738.92    2626.6509   -38365.571    30.266566    236.36989 
    8550    135.85641   -725.58434     135019.3   -35724.717    2627.3944   -38352.112    30.328287     236.4368 
    8600    139.06614   -776.42453    135070.33   -35698.864     2689.469   -38388.333    30.518239    242.02283 
    8650    137.92701   -656.57584    135085.77    -35679.89    2667.4388   -38347.329    30.595822    240.04036 
    8700    136.47151   -925.18467    135091.97   -35680.247    2639.2902   -38319.537    30.752822    237.50729 
    8750    137.21305   -496.94668     135049.4   -35704.643    2653.6312   -38358.274    30.870774    238.79782 
    8800    140.24788   -684.66738    135017.36   -35671.447    2712.3233    -38383.77    31.067576    244.07947 
    8850    136.08516   -748.13279    135009.41   -35617.768    2631.8184   -38249.586    31.322586    236.83491 
    8900    138.25712   -989.82414    134925.94   -35618.092    2673.8229   -38291.915    31.366355    240.61485 
    8950    136.47762   -839.67337    134837.12   -35641.775    2639.4083   -38281.183    31.391683    237.51791 
    9000    137.85824   -386.97717    134861.64   -35647.507    2666.1089   -38313.615    31.483508    239.92067 
    9050    137.78904    -718.2954    134776.11   -35686.921    2664.7705   -38351.692    31.529346    239.80024 
    9100    135.55256   -759.07722    134825.43    -35740.03    2621.5181   -38361.548     31.66966    235.90799 
    9150    133.39083   -415.42656    134838.49   -35744.989    2579.7113   -38324.701    31.994269    232.14584 
    9200    135.85642   -623.73913    134905.67   -35687.179    2627.3947   -38314.574    32.148818    236.43682 
    9250    138.03751   -536.76652    134957.51    -35649.61    2669.5758   -38319.185    32.410902    240.23267 
    9300     140.8468   -636.42715    135010.52   -35546.286     2723.906   -38270.192     32.61725    245.12178 
    9350    141.43514   -739.26841     134988.6   -35550.782    2735.2842   -38286.066    32.770396     246.1457 
    9400    140.69232   -545.52695    134882.39    -35617.22    2720.9186   -38338.139    32.878367    244.85295 
    9450    137.57569   -779.16591    134967.82   -35610.428    2660.6444   -38271.072    32.871004    239.42893 
    9500    138.43744   -863.43205    134980.43   -35608.377    2677.3103   -38285.688    32.911377    240.92868 
    9550    137.33628   -1111.6434    134884.25   -35592.127    2656.0144   -38248.142     33.15087    239.01228 
    9600    139.23593   -991.73738    134822.41   -35535.649    2692.7526   -38228.402    33.337434    242.31832 
    9650    138.69619    -981.3183     134780.6   -35524.248    2682.3143   -38206.562    33.654501    241.37898 
    9700    139.11806   -251.83866    134806.55   -35553.773    2690.4731   -38244.246    33.923044    242.11319 
    9750    139.71228   -671.93768    134901.11   -35501.558    2701.9651   -38203.523    34.272072    243.14735 
    9800    140.80137   -489.79104    134982.05   -35565.962    2723.0275    -38288.99    34.708379    245.04273 
    9850    138.17881   -682.18794    135070.12   -35620.436    2672.3085   -38292.744    35.017047    240.47857 
    9900    138.68253   -720.64858    135095.32   -35614.254    2682.0502   -38296.304    35.356636    241.35522 
    9950    137.76463   -583.71069    135148.46   -35652.536    2664.2984   -38316.834    35.527692    239.75775 
   10000    139.88235   -607.11952    135201.39   -35715.178    2705.2542   -38420.432    35.822656    243.44332 
   10050    139.56015   -357.28761    135249.56   -35712.216    2699.0228   -38411.239    36.002087    242.88257 
   10100    139.24151   -580.62326    135251.45   -35723.772    2692.8606   -38416.633    36.207793    242.32804 
   10150    136.93646   -665.21228    135332.69   -35668.413     2648.282   -38316.695    36.382903    238.31645 
   10200    138.30924   -597.17404    135361.95   -35647.979    2674.8309   -38322.809    36.346231    240.70556 
   10250    137.56264   -761.43858    135412.44   -35652.836    2660.3921   -38313.228    36.332914    239.40623 
   10300    139.12445   -706.55188    135411.04   -35614.618    2690.5967   -38305.215    36.630555    242.12431 
   10350    139.18522   -782.81206    135384.39   -35552.048    2691.7719    -38243.82    36.731011    242.23007 
   10400    139.34985   -618.09431    135442.84   -35549.605    2694.9558   -38244.561    36.899657    242.51658 
   10450    137.71044   -670.17779     135439.9   -35586.436    2663.2505   -38249.687    36.975507    239.66346 
   10500    136.25047   -895.65297    135418.55   -35618.774    2635.0153    -38253.79    37.276858    237.12259 
   10550    135.32111   -690.25111    135362.65   -35644.206    2617.0419   -38261.248    37.588935    235.50519 
   10600    136.56039   -797.58241    135350.86   -35647.912    2641.0091   -38288.921    37.507025    237.66197 
   10650    137.94091   -723.65162    135327.15   -35613.546    2667.7076   -38281.254    37.667914    240.06455 
   10700    135.08674   -1064.2228    135281.02   -35627.221    2612.5094   -38239.731    37.747267    235.09731 
   10750    137.27529   -902.15624    135262.87   -35595.676    2654.8348   -38250.511    37.710085    238.90613 
   10800    138.83728   -789.58262    135261.15   -35595.118    2685.0429   -38280.161    37.804494    241.62453 
   10850     138.4009   -620.20038    135275.22   -35614.446    2676.6036    -38291.05    37.993972    240.86508 
   10900    138.88209    -699.2466    135282.75   -35626.184    2685.9095   -38312.093    38.268757    241.70252 
   10950    135.93408   -654.29094    135277.01   -35599.506    2628.8965   -38228.402    38.431022    236.57197 
   11000    137.55551    -695.0431    135300.81   -35600.678    2660.2543   -38260.933    38.579586    239.39382 
   11050    136.44381   -1032.9679    135371.34   -35611.162    2638.7545   -38249.917    38.750963    237.45908 
   11100    138.96842   -879.81234    135346.08   -35634.233    2687.5792   -38321.812    38.819387    241.85277 
   11150    139.23659   -933.18654    135361.28   -35593.827    2692.7654   -38286.592    39.085858    242.31948 
   11200    137.00556   -486.73308    135406.02   -35595.402    2649.6184   -38245.021    39.485843    238.43672 
   11250    135.48962   -805.83211    135449.68   -35621.198    2620.3009   -38241.499     39.87487    235.79846 
   11300    138.41643   -945.41522     135372.9   -35662.959     2676.904   -38339.863     39.88535    240.89212 
   11350    138.95314   -819.80284     135310.1   -35601.475    2687.2836   -38288.759    40.170816    241.82617 
   11400    135.50663   -789.98744    135254.64   -35674.012    2620.6299   -38294.642     40.51573    235.82807 
   11450    135.74694    -747.5798    135147.44   -35661.988    2625.2774   -38287.266    40.678098    236.24629 
   11500    135.87973    -594.6558    135097.44   -35673.895    2627.8454    -38301.74     40.73527    236.47738 
   11550    138.45883   -773.17243    135162.69   -35649.388    2677.7239   -38327.112    40.923003     240.9659 
   11600    137.24613   -803.28206    135160.35   -35678.187     2654.271   -38332.458    41.004849    238.85539 
   11650    134.86276   -536.43854    135215.73   -35676.593    2608.1778   -38284.771    41.288543    234.70751 
   11700    140.64143   -672.64764     135322.5   -35597.264    2719.9343   -38317.198     41.57604    244.76438 
   11750    139.01676   -506.06371    135419.29   -35617.323    2688.5141   -38305.837    41.782297     241.9369 
   11800    139.10118   -683.34427    135504.24    -35641.44    2690.1467   -38331.587    41.763319    242.08381 
   11850    141.95293    -509.8396    135546.16   -35620.717     2745.298   -38366.015    41.934642    247.04684 
   11900    140.05842   -882.34349     135573.3   -35633.282    2708.6592   -38341.942    42.077334    243.74974 
   11950    134.72128   -607.84221     135550.6   -35692.999    2605.4417    -38298.44     42.31708    234.46129 
   12000    138.84477   -666.71443    135594.99     -35728.5    2685.1878   -38413.688    42.519439    241.63757 
   12050    134.54937   -804.67498     135560.6    -35765.98    2602.1169   -38368.097    42.622744     234.1621 
   12100    137.55047   -769.58402    135448.06   -35766.676    2660.1568   -38426.833    42.706095    239.38505 
   12150    137.63362   -725.16644    135416.94   -35749.993    2661.7648   -38411.758    42.665575    239.52976 
   12200    135.83377    -746.3542    135443.54   -35755.476    2626.9567   -38382.433    42.872347     236.3974 
   12250    133.58633   -833.72632    135443.99    -35768.09    2583.4923   -38351.582     43.15416    232.48608 
   12300     141.3935    -430.3377    135503.83   -35738.181     2734.479    -38472.66    43.344443    246.07324 
   12350    135.27895   -844.25837    135606.58   -35775.433    2616.2266    -38391.66    43.609918    235.43182 
   12400     137.5484   -699.47492    135669.65   -35732.058    2660.1166   -38392.175      43.6899    239.38143 
   12450    137.53443   -635.28832    135676.98   -35718.289    2659.8464   -38378.135    43.699017    239.35712 
   12500    136.53856   -701.97468    135787.64   -35699.387    2640.5868   -38339.974    43.984328    237.62397 
   12550    138.81477   -712.58383    135811.45   -35746.572    2684.6076    -38431.18    44.143805    241.58536 
   12600    137.50051   -699.20329    135791.55   -35744.542    2659.1904   -38403.733    44.107597    239.29809 
   12650    136.54631   -845.84984    135750.66   -35757.279    2640.7368   -38398.016    44.131633    237.63746 
   12700    138.33562   -978.62011    135684.55   -35720.597    2675.3412   -38395.939    44.102394    240.75148 
   12750    135.29317   -674.42794    135740.46   -35698.135    2616.5016   -38314.636    44.186998    235.45656 
   12800    137.78785   -716.59132    135713.88   -35685.661    2664.7476   -38350.409    44.211021    239.79817 
   12850    140.81062   -713.84963    135645.06   -35657.844    2723.2064    -38381.05    44.234898    245.05883 
   12900    139.32175   -765.66162     135649.5    -35681.69    2694.4123   -38376.102    44.355196    242.46767 
   12950    135.32699   -765.59075    135628.86   -35712.968    2617.1557   -38330.124    44.454796    235.51543 
   13000    134.64166   -542.73447    135597.05   -35712.582    2603.9019   -38316.484    44.717119    234.32272 
   13050    138.12727   -778.69326    135586.21   -35734.139    2671.3117   -38405.451    44.747876    240.38887 
   13100    138.95512   -403.42386    135613.88   -35740.465     2687.322   -38427.787    44.873481    241.82962 
   13150     137.3015   -445.03039     135648.7   -35708.872    2655.3417   -38364.214    45.117016    238.95175 
   13200    137.41466   -542.21738    135679.76   -35761.232    2657.5302   -38418.762    45.128816    239.14869 
   13250    137.22459   -678.48653    135775.25   -35748.607    2653.8543   -38402.461     45.28932     238.8179 
   13300    135.62623   -716.31431    135724.77   -35741.302    2622.9429   -38364.245    45.490168    236.03621 
   13350     136.8061   -809.97753    135634.18   -35765.128     2645.761   -38410.889     45.73446    238.08959 
   13400    138.36512   -880.53882    135652.77   -35718.359    2675.9116   -38394.271    46.023581    240.80281 
   13450    137.66298   -780.83697     135602.1   -35678.333    2662.3326   -38340.666    46.055098    239.58085 
   13500    138.11504   -635.20016    135582.36   -35688.685    2671.0753    -38359.76    46.150338     240.3676 
   13550    140.96906   -480.94331    135574.39   -35678.969    2726.2705    -38405.24    46.404057    245.33456 
   13600    141.29857   -586.47284    135626.98   -35731.186    2732.6431   -38463.829    46.499566    245.90803 
   13650    138.79592   -893.37585    135604.68   -35703.358    2684.2431   -38387.601    46.617092    241.55256 
   13700    139.31531   -749.79169     135606.8   -35704.133    2694.2879   -38398.421    46.789202    242.45648 
   13750    139.40976   -908.17052    135579.53     -35671.9    2696.1145   -38368.014    46.871491    242.62086 
   13800    139.04899   -807.49609    135486.93   -35677.169    2689.1373   -38366.306     47.03224    241.99298 
   13850    138.50727   -1169.6295    135423.24    -35671.99    2678.6608   -38350.651    47.200118    241.05021 
   13900    139.00913   -929.32153    135231.44   -35654.157    2688.3664   -38342.523    47.338211    241.92361 
   13950     137.2408   -864.99139    135085.52   -35699.003    2654.1679   -38353.171    47.581255    238.84611 
   14000    141.20783   -665.94188    135105.39    -35643.28    2730.8883   -38374.168    47.784355    245.75012 
   14050     138.8639   -779.65337    135177.38   -35636.167    2685.5578   -38321.725     48.00047    241.67087 
   14100    138.56951   -677.69197    135268.61   -35631.328    2679.8645   -38311.192     48.19155    241.15853 
   14150    138.99047   -1032.3996    135293.84   -35688.192    2688.0055   -38376.198    48.418079    241.89114 
   14200     138.5123   -893.53523    135264.39   -35689.425    2678.7579   -38368.183    48.539046    241.05895 
   14250    138.59827   -881.77755    135161.54   -35652.448    2680.4206   -38332.869     48.65263    241.20858 
   14300    136.93321   -840.62141    135253.64   -35667.563    2648.2191   -38315.782    48.774476    238.31079 
   14350    137.54083   -942.92579    135212.66   -35617.996    2659.9702   -38277.966    48.875716    239.36826 
   14400     139.3573   -907.34182    135200.49   -35623.008    2695.0999   -38318.108    49.201061    242.52955 
   14450    138.66962   -714.40491    135129.26   -35627.494    2681.8006   -38309.295    49.313855    241.33276 
   14500    138.59778   -770.00593    135203.49   -35621.497    2680.4111   -38301.908     49.50396    241.20772 
   14550    138.84755   -776.91711    135266.62   -35606.772    2685.2415   -38292.013    49.823189     241.6424 
   14600     141.6289   -567.63886    135248.75   -35598.347    2739.0315   -38337.379    50.218124    246.48291 
   14650    138.96666   -745.54726    135215.22    -35642.52    2687.5452   -38330.066    50.240249    241.84971 
   14700     140.8725   -678.90715    135238.55   -35584.497    2724.4031     -38308.9    50.436087    245.16652 
   14750    137.10745   -887.76716    135225.14   -35602.808    2651.5888   -38254.397    50.682495    238.61403 
   14800    136.96298   -943.31166    135211.59   -35666.829     2648.795   -38315.624    50.577413    238.36261 
   14850    136.20185   -1212.3911    135187.08   -35693.867    2634.0751   -38327.942    50.675294    237.03798 
   14900    135.12475    -957.4913       135159   -35731.277    2613.2445   -38344.521    50.867865    235.16345 
   14950    135.66397   -1109.1445    135006.62   -35696.551    2623.6727   -38320.224    51.000175    236.10188 
   15000    138.34115   -513.55287    134935.27    -35728.26    2675.4481   -38403.708    51.249903     240.7611 
   15050    137.28083   -743.97741    134970.23   -35727.333     2654.942   -38382.275    51.587993    238.91577 
   15100    137.93616   -1009.9787    135039.33   -35733.221    2667.6158   -38400.837    51.446099    240.05628 
   15150    135.56902   -828.37327    134974.34   -35703.218    2621.8364   -38325.054    51.429189    235.93663 
   15200    133.99139   -829.45162    134912.86   -35713.267    2591.3258   -38304.592    51.400609    233.19102 
   15250    136.55706   -1039.5641    134830.33   -35720.119    2640.9447   -38361.064    51.526025    237.65618 
   15300     135.4459   -726.17343    134881.94   -35718.139    2619.4554   -38337.594    51.804798    235.72237 
   15350     135.5059   -697.54661    134921.53   -35759.052    2620.6158   -38379.668    52.006509    235.82679 
   15400    134.67544   -517.85549    134937.23   -35769.875    2604.5551    -38374.43    52.327367    234.38151 
   15450    136.42472    -955.3455    134941.82   -35766.761    2638.3853   -38405.146    52.455891    237.42586 
   15500    134.59735   -791.65298    134879.65    -35815.47    2603.0449   -38418.515    52.656924     234.2456 
   15550    135.78116   -658.84783    134933.89    -35829.72    2625.9392    -38455.66    52.785479    236.30584 
   15600    132.56817   -677.99327    134853.64   -35772.733    2563.8016   -38336.534    52.780216    230.71414 
   15650     137.5849   -620.01751    134901.39   -35740.777    2660.8225     -38401.6    52.881394    239.44496 
   15700    136.94881   -862.39977    134861.76   -35766.548     2648.521   -38415.069    53.158159    238.33795 
   15750    135.70373    -986.2285    134850.37   -35753.127    2624.4416   -38377.568    53.395534    236.17108 
   15800    139.89553   -788.44676    134816.43   -35659.297     2705.509   -38364.806     53.40988    243.46626 
   15850    137.94264   -769.63646    134790.48   -35646.822    2667.7412   -38314.563    53.538458    240.06756 
   15900     139.5852   -857.00059    134698.61   -35658.017    2699.5075   -38357.524    53.907078    242.92618 
   15950    136.74396   -580.72707    134652.33   -35649.603    2644.5592   -38294.163    53.980028    237.98144 
   16000    137.79413   -607.96398    134709.35   -35663.615    2664.8689   -38328.484    54.021721    239.80909 
   16050    138.45598    -718.2909    134794.62    -35709.03    2677.6689   -38386.699    54.372031    240.96095 
   16100    136.94324   -594.66611    134725.89   -35725.534    2648.4132   -38373.947    54.315031    238.32825 
   16150    137.14135   -544.02103    134747.23   -35711.076    2652.2446   -38363.321    54.441403    238.67304 
   16200    137.67467   -685.35991    134811.85   -35747.298    2662.5586   -38409.857    54.692012    239.60119 
   16250    138.00612   -732.87416    134767.81   -35700.305    2668.9688   -38369.274    54.974832    240.17804 
   16300    138.55122   -511.97406    134812.92   -35719.717    2679.5107   -38399.228    55.192104    241.12669 
   16350    139.22331   -589.92635    134837.12   -35694.774    2692.5087   -38387.282    55.604309    242.29637 
   16400    136.23719   -468.81461    134823.01   -35757.704    2634.7586   -38392.463    55.751117    237.09949 
   16450    135.37318   -506.03944    134908.93   -35809.521    2618.0489    -38427.57    55.891613    235.59581 
   16500    138.25901   -692.91462     134953.9   -35781.643    2673.8595   -38455.503    56.198925    240.61815 
   16550     137.4069   -796.92333    134898.16   -35786.283    2657.3801   -38443.663    56.374407    239.13518 
   16600    136.68323   -563.66002       134956   -35787.284    2643.3848   -38430.668    56.712278    237.87575 
   16650      135.706   -587.46257    134957.12   -35767.851    2624.4856   -38392.337    57.024088    236.17503 
   16700    136.32541   -662.09765    134881.35   -35832.844    2636.4646   -38469.309    57.193403    237.25302 
   16750    135.67206   -612.58156     134889.5   -35753.552    2623.8292   -38377.382    57.254122    236.11597 
   16800    136.56537   -579.14921    134902.34   -35792.439    2641.1053   -38433.544    57.414823    237.67063 
   16850     136.3976   -584.72333    135025.93   -35793.819    2637.8608    -38431.68    57.813624    237.37866 
   16900     137.3432   -379.98467    135089.77   -35766.365    2656.1482   -38422.514    57.992396    239.02432 
   16950    138.78608   -907.99734    135063.36   -35728.361    2684.0527   -38412.414    57.882147    241.53542 
   17000    135.31953   -719.16927     134986.9   -35766.805    2617.0114   -38383.817    57.974162    235.50244 
   17050    137.71813   -360.42219    134973.22   -35774.809    2663.3992   -38438.208    57.922297    239.67683 
   17100    138.15004   -529.31259    135041.81   -35818.519    2671.7521   -38490.271    58.237523    240.42851 
   17150    137.97417   -720.67333     135042.8   -35809.005    2668.3509   -38477.356    58.188235    240.12243 
   17200    135.51791   -835.23072    134970.83   -35826.956    2620.8481   -38447.804    58.139245     235.8477 
   17250    135.03589   -512.66551    134911.34   -35806.861     2611.526   -38418.387      58.2347    235.00881 
   17300    135.44498   -767.65005    135008.41   -35783.518    2619.4377   -38402.956    58.289115    235.72078 
   17350    135.39306   -861.59642    134984.54   -35810.126    2618.4334    -38428.56    58.565946    235.63041 
   17400    136.06351   -655.46525    135045.87   -35812.296    2631.3997   -38443.695    58.389424    236.79723 
   17450    139.75645   -709.47126    134987.51   -35755.871    2702.8193   -38458.691    58.401015    243.22422 
   17500    136.53659   -603.88218    135067.39   -35759.838    2640.5487   -38400.387    58.482676    237.62054 
   17550    138.24806   -729.84835    135010.24   -35783.773    2673.6478   -38457.421    58.658066     240.5991 
   17600    137.37839   -497.69507     135040.3   -35711.349    2656.8287   -38368.178    58.972622    239.08556 
   17650    137.33224   -628.87202     135157.6   -35747.591    2655.9362   -38403.528    59.152263    239.00525 
   17700    139.02565     -673.092    135211.68   -35749.738    2688.6859   -38438.424    59.360168    241.95236 
   17750    137.32747   -772.10624    135258.64   -35686.913     2655.844   -38342.757    59.512489    238.99695 
   17800    139.06289   -688.22289    135246.89   -35685.606    2689.4061   -38375.012    59.582284    242.01717 
   17850    140.25477   -843.78767    135212.93   -35687.754    2712.4565    -38400.21    59.556069    244.09145 
   17900    139.93133   -686.28452    135298.04   -35672.251    2706.2013   -38378.452    59.817211    243.52856 
   17950    140.61584   -865.68163     135413.2   -35669.646    2719.4394   -38389.086    60.172136    244.71984 
   18000    139.63667   -680.29855    135370.21   -35596.881    2700.5028   -38297.384    60.338972    243.01576 
   18050    140.49029   -899.34692    135399.47   -35605.147    2717.0114   -38322.158    60.491035    244.50135 
   18100    139.36732   -959.79671    135352.27   -35595.132    2695.2937   -38290.426    60.478088    242.54699 
   18150    137.79964   -879.46911    135296.73   -35613.787    2664.9755   -38278.763    60.515149    239.81868 
   18200    138.32192   -944.25015    135278.73   -35624.185    2675.0763   -38299.262    60.663488    240.72764 
   18250    140.58948   -638.51797    135259.11   -35591.298    2718.9296   -38310.228    60.908764    244.67397 
   18300    137.44685    -646.5482    135243.34   -35636.994    2658.1528   -38295.147    61.331268    239.20471 
   18350    138.41854   -548.18232    135288.59   -35594.497    2676.9448   -38271.442    61.728126    240.89579 
   18400    141.34722   -791.37464    135328.41   -35600.781    2733.5839   -38334.365    61.906758    245.99269 
   18450    139.34452   -658.26302    135359.96   -35600.792    2694.8527   -38295.645    62.221499    242.50731 
   18500    140.73434   -768.15307    135367.79   -35619.127    2721.7311   -38340.858     62.33311    244.92607 
   18550      138.401   -598.03942    135417.49   -35655.391    2676.6056   -38331.996    62.254484    240.86526 
   18600    139.78819   -699.39606    135540.06    -35609.19     2703.433   -38312.623    62.287504    243.27944 
   18650    137.44692   -503.67111    135696.35   -35583.791    2658.1542   -38241.945    62.541578    239.20484 
   18700    138.02002   -837.49313    135696.96   -35656.785    2669.2376   -38326.023    62.619449    240.20222 
   18750    138.11503   -812.10285    135589.45   -35645.481     2671.075   -38316.556    62.809108    240.36757 
   18800    137.75708   -749.58009       135571   -35669.323    2664.1525   -38333.476    62.849269    239.74463 
   18850    139.19998   -831.29898    135462.46   -35624.279    2692.0574   -38316.336    63.047951    242.25575 
   18900    139.50341   -917.83327    135364.01   -35642.628    2697.9256   -38340.554    63.270529    242.78383 
   18950    140.88137   -743.11674    135293.01   -35611.134    2724.5746   -38335.708    63.703403    245.18195 
   19000    140.44542    -874.1269    135251.57    -35669.24    2716.1436   -38385.383    64.169558    244.42326 
   19050    138.97001   -796.08789    135289.32    -35669.19    2687.6099     -38356.8    64.315955    241.85554 
   19100    136.79678   -690.41869     135328.2   -35714.171    2645.5806   -38359.751    64.678561    238.07336 
   19150    136.51103   -896.28781    135309.48   -35735.835    2640.0544    -38375.89    65.001545    237.57606 
   19200    136.54677   -574.08921    135334.93   -35720.381    2640.7457   -38361.127    65.189827    237.63827 
   19250    139.59887   -729.48373    135340.41   -35643.963    2699.7718   -38343.734      65.6186    242.94997 
   19300    135.10151   -552.03471    135355.55   -35693.858     2612.795   -38306.653    65.670946    235.12301 
   19350    136.52623    -718.9264    135360.92   -35651.353    2640.3484   -38291.702    65.774132    237.60252 
   19400    140.07008   -729.46753    135347.68    -35606.74    2708.8847   -38315.625    66.304041    243.77003 
   19450    138.64822   -826.91859    135259.25   -35693.593    2681.3866    -38374.98    66.630369     241.2955 
   19500    138.43346   -834.30889    135305.03   -35723.197    2677.2334    -38400.43    66.943738    240.92176 
   19550     137.8177   -800.08123     135292.8   -35758.064    2665.3247   -38423.389    67.331353    239.85011 
   19600    139.39025   -624.72098    135338.72     -35754.4     2695.737   -38450.137    67.359175    242.58689 
   19650    137.95152   -656.14164    135375.54   -35764.516    2667.9128   -38432.428    67.733798      240.083 
   19700    139.40472   -741.67972    135430.59   -35770.086    2696.0169   -38466.103    68.161391    242.61207 
   19750    139.43098   -583.24596    135457.98   -35741.898    2696.5248   -38438.423     68.59002    242.65777 
   19800    136.75344   -608.25225    135538.99   -35812.509    2644.7425   -38457.251     68.84965    237.99793 
   19850    139.05754   -265.31545    135697.76   -35733.256    2689.3026   -38422.559    69.245893    242.00786 
   19900    138.59599   -814.65465    135819.96   -35749.665    2680.3766   -38430.042    69.432714    241.20461 
   19950    139.56255   -912.93644    135739.05   -35813.888    2699.0692   -38512.958    69.399676    242.88675 
   20000    136.17818   -921.28332    135708.56   -35849.034    2633.6172   -38482.652    69.463392    236.99678 
   20050    135.47485   -617.02292     135716.1   -35844.999    2620.0153   -38465.014    69.328829    235.77276 
   20100    136.68652   -738.07934    135794.06    -35800.25    2643.4484   -38443.699    69.521404    237.88148 
   20150    136.44803   -725.15178    135763.84   -35810.312     2638.836   -38449.148    69.650988    237.46641 
   20200    133.32281   -767.20477     135707.4   -35825.905     2578.396   -38404.301      69.7295    232.02747 
   20250    137.25785   -642.22757    135784.23   -35799.937    2654.4977   -38454.435    69.978797    238.87579 
   20300    138.15001   -791.53307    135871.54   -35761.325    2671.7515   -38433.076    70.200987    240.42845 
   20350    135.46201   -779.30301    135895.35   -35778.551    2619.7669   -38398.317    70.593908     235.7504 
   20400    139.67455   -712.89371    135919.01   -35778.328    2701.2354   -38479.563    70.717935    243.08168 
   20450    139.06142   -876.01019    135946.89   -35743.976    2689.3778   -38433.353    70.719103    242.01462 
   20500    139.60492   -791.84155    135918.05   -35721.562    2699.8887   -38421.451    70.807849    242.96049 
   20550    138.90458   -581.97614    135933.12   -35687.505    2686.3446   -38373.849     70.83688    241.74167 
   20600    136.63211   -850.64273    135915.45   -35693.532     2642.396   -38335.928    70.901105    237.78678 
   20650    137.38001   -768.03813    135844.39   -35670.852    2656.8601   -38327.712      70.8723    239.08839 
   20700    137.86372   -676.08693    135784.38   -35687.249    2666.2148   -38353.464    70.999591    239.93021 
   20750    140.17697   -440.45368    135794.09   -35680.346    2710.9519   -38391.298    70.899163    243.95606 
   20800     137.5485   -762.38937    135797.89   -35717.278    2660.1186   -38377.397    70.737039    239.38162 
   20850    137.08134   -918.43991    135736.95   -35739.641     2651.084   -38390.725    70.859439     238.5686 
   20900    137.47011   -780.45468    135783.14   -35733.559    2658.6026   -38392.162     70.79722     239.2452 
   20950    134.56977   -893.61132    135731.87    -35747.18    2602.5114   -38349.692    70.647499     234.1976 
   21000    139.28344    -820.4662    135665.01   -35719.784    2693.6714   -38413.455    70.859624      242.401 
   21050    137.84408   -767.75312    135684.85   -35712.249     2665.835   -38378.084    71.065073    239.89603 
   21100    137.39444   -713.63279    135656.59   -35694.403    2657.1391   -38351.542    71.184674    239.11349 
   21150    135.90806   -495.44086    135701.36   -35677.655    2628.3933   -38306.048    71.496933    236.52669 
   21200    137.55631   -840.30655    135728.46   -35666.925    2660.2696   -38327.194    71.605419     239.3952 
   21250     136.5524   -1003.4914    135635.75    -35698.73    2640.8546   -38339.585    71.826545    237.64807 
   21300    135.92264   -982.76374     135525.3   -35706.319    2628.6753   -38334.995    71.973194    236.55206 
   21350    135.85362   -684.67084    135555.92    -35718.31    2627.3406   -38345.651    72.045389    236.43195 
   21400    138.72165   -863.20858    135568.87   -35699.116    2682.8068   -38381.923    72.238295    241.42331 
   21450    140.51962   -555.91978    135620.01   -35667.652    2717.5786    -38385.23    72.767787    244.55239 
   21500     139.1662   -798.18322    135640.16   -35669.305     2691.404   -38360.709    73.084348    242.19696 
   21550    136.95148   -536.27906    135600.21   -35756.203    2648.5725   -38404.776    73.539401     238.3426 
   21600    137.28055   -510.29182    135570.54   -35690.941    2654.9366   -38345.877    73.954528    238.91529 
   21650    136.77771   -575.68073    135533.69   -35646.511    2645.2119   -38291.723    74.205321    238.04018 
   21700    138.39087   -317.65382    135563.16    -35647.23    2676.4097    -38323.64    74.478998    240.84764 
   21750    141.26222   -881.58675    135589.94   -35647.818    2731.9401   -38379.758    74.869784    245.84476 
   21800    138.10847   -695.53363    135551.71   -35690.471    2670.9482   -38361.419    75.195588    240.35616 
   21850     137.0216   -872.02303    135559.18   -35642.817    2649.9285   -38292.745    75.392277    238.46462 
   21900    140.82783   -775.77195    135555.69   -35597.778    2723.5391   -38321.317     75.61765    245.08877 
   21950    139.22657   -701.22252    135612.32   -35650.372    2692.5716   -38342.944    75.942973    242.30203 
   22000    136.48936   -665.75499    135562.46   -35654.751    2639.6353   -38294.386    76.129755    237.53834 
   22050    138.91823   -744.01778    135551.65   -35634.651    2686.6085    -38321.26    76.317863    241.76542 
   22100    137.36495   -807.42536    135672.39   -35604.065    2656.5689   -38260.634    76.569322    239.06218 
   22150    142.11292   -722.94692    135655.64   -35600.258    2748.3922    -38348.65    76.775024    247.32527 
   22200    139.81402    -903.6418    135564.47   -35604.572    2703.9327   -38308.505    76.966097     243.3244 
   22250    145.50758   -897.53955    135428.45   -35577.708    2814.0431   -38391.751    76.902522    253.23314 
   22300    141.54456   -802.54275    135484.26   -35554.546    2737.4003   -38291.947    76.789406    246.33613 
   22350     139.6286   -698.03137    135526.78   -35620.219    2700.3466   -38320.566    76.893598     243.0017 
   22400    141.90813   -591.44149    135531.32   -35627.978    2744.4317    -38372.41    77.065107    246.96888 
   22450    139.05478   -863.55199    135411.35   -35623.108    2689.2493   -38312.358    77.206025    242.00306 
   22500     138.9756   -918.70052    135420.86   -35654.814    2687.7181   -38342.532     77.16609    241.86527 
   22550    138.65149   -767.32827    135423.52   -35661.963    2681.4499   -38343.413    77.315382     241.3012 
   22600    138.55412   -600.94733    135437.34     -35711.7    2679.5668   -38391.266    77.329899    241.13174 
   22650    139.56269   -994.49074    135338.16   -35743.601    2699.0721   -38442.673    77.491101      242.887 
   22700    138.58711   -664.45257    135214.87   -35762.822    2680.2047   -38443.027    77.664215    241.18915 
   22750    135.34148   -382.44749    135227.49   -35792.809     2617.436   -38410.245    77.631653    235.54065 
   22800    134.62886   -369.43849    135288.45    -35780.62    2603.6543   -38384.275    77.916225    234.30045 
   22850    137.26622   -527.25593    135350.19   -35842.326    2654.6595   -38496.985    78.157966    238.89035 
   22900    138.03133   -822.95821    135361.53   -35842.229    2669.4562   -38511.685    78.217411     240.2219 
   22950    137.74049   -757.26343    135375.93   -35757.634    2663.8317   -38421.466    78.332205    239.71575 
   23000    135.62092   -549.37661     135348.9   -35773.268    2622.8402   -38396.109    78.621634    236.02696 
   23050    136.09285   -496.90333    135423.34   -35793.155     2631.967   -38425.122     79.09119    236.84828 
   23100    135.26507   -695.40095    135469.57   -35799.525    2615.9581   -38415.483    79.353461    235.40766 
   23150    137.59974   -688.30446    135478.14   -35792.252    2661.1095   -38453.361    79.681295    239.47079 
   23200    136.03011   -597.64875    135449.55   -35806.957    2630.7538   -38437.711    79.911784     236.7391 
   23250    134.91699   -852.15445    135391.68   -35846.158    2609.2265   -38455.385    79.765037    234.80189 
   23300    138.15219   -690.69638    135318.99   -35827.444    2671.7936   -38499.237    79.767538    240.43224 
   23350    135.60386   -933.79907     135291.1    -35805.55    2622.5103   -38428.061    79.928908    235.99728 
   23400      136.621   -819.88519    135264.25   -35794.723    2642.1813   -38436.904    80.100975    237.76745 
   23450    137.96129    -607.4068    135239.38   -35807.027    2668.1017   -38475.129    80.439061    240.10001 
   23500     139.3376   -582.86507    135241.27   -35834.652    2694.7189    -38529.37    80.793848    242.49527 
   23550    134.76087   -518.53694    135212.18   -35874.931    2606.2073   -38481.139    81.232308    234.53019 
   23600    136.72736    -690.5364    135269.32   -35855.021    2644.2382   -38499.259    81.554737    237.95255 
   23650    136.60399    -981.8744    135267.31   -35846.577    2641.8523   -38488.429    81.689271    237.73785 
   23700    138.23662   -591.21805     135278.7   -35806.981    2673.4264   -38480.407    81.922751    240.57917 
   23750    139.11147   -573.80657    135368.66   -35813.072    2690.3456   -38503.418     81.86586    242.10172 
   23800     138.0926   -770.51353    135381.66   -35798.721    2670.6412   -38469.362    81.932354    240.32853 
   23850    135.61252   -688.02113    135362.02   -35822.563    2622.6777   -38445.241     82.15758    236.01234 
   23900    134.74172   -766.99632    135421.73   -35808.227     2605.837   -38414.064    82.364414    234.49686 
   23950    135.55031   -826.51832    135375.93   -35757.799    2621.4746   -38379.274    82.480656    235.90408 
   24000    140.07905   -725.66279    135284.01   -35736.079    2709.0582   -38445.137    82.760793    243.78565 
   24050    139.73945   -704.23129    135332.38   -35761.041    2702.4904   -38463.532    82.807657    243.19462 
   24100    137.41937   -910.45429    135333.28   -35800.982    2657.6213   -38458.604    83.022028    239.15688 
   24150    139.06219   -773.51252    135290.84   -35802.838    2689.3926   -38492.231    83.420339    242.01596 
   24200    137.01394   -620.20625     135202.4   -35785.448    2649.7805   -38435.228    83.712468     238.4513 
   24250    137.31989   -550.60284     135120.1    -35801.29    2655.6973   -38456.988    83.859824    238.98375 
   24300    138.08902   -683.36161    135124.39   -35814.734    2670.5719   -38485.306    84.258459     240.3223 
   24350    136.81956   -645.71615    135172.72   -35824.577    2646.0214   -38470.598     84.40807    238.11302 
   24400    137.34128   -641.03901    135189.63    -35850.54    2656.1112   -38506.651    84.685673    239.02099 
   24450     134.2707    -910.6558    135153.33   -35824.184    2596.7276   -38420.912    85.085181    233.67712 
   24500     135.6525   -919.56814    135128.96   -35755.182    2623.4508   -38378.633    85.400994    236.08192 
   24550    135.18913   -698.83933    135142.98   -35794.321    2614.4897    -38408.81    85.250545    235.27551 
   24600    133.73958   -698.54839    135257.15   -35846.312     2586.456   -38432.768    85.364141    232.75278 
   24650    137.86047   -699.91014    135352.42   -35722.243     2666.152   -38388.395    85.339008    239.92456 
   24700    137.81131   -818.45496    135363.06   -35753.911    2665.2011   -38419.112     85.29912    239.83899 
   24750    140.05618   -758.05478    135253.12   -35703.457    2708.6158   -38412.073    85.635895    243.74583 
   24800    137.76023   -666.75269    135301.74   -35699.333    2664.2135   -38363.546    85.758641    239.75011 
   24850    136.81646   -590.59527     135302.8   -35670.961    2645.9613   -38316.923    86.063076    238.10761 
   24900    139.60874   -786.20261    135295.37   -35650.396    2699.9627   -38350.359    86.563743    242.96715 
   24950    138.31073   -623.15153     135319.2   -35652.001    2674.8597   -38326.861    87.002975    240.70816 
   25000    139.42671   -696.77306    135292.61   -35692.215    2696.4423   -38388.657    86.992782    242.65035 
   25050    140.29612   -439.36562    135275.45   -35624.463    2713.2562   -38337.719     87.06652    244.16342 
   25100    137.78689   -494.24077    135336.09   -35662.367    2664.7289   -38327.096       87.363    239.79649 
   25150    140.52576   -742.83965    135314.31   -35631.745    2717.6973   -38349.443    87.430538    244.56307 
   25200    140.05304   -602.77499    135307.41   -35633.007    2708.5552   -38341.563    87.420542    243.74038 
   25250    140.10652   -614.76754    135348.98   -35660.463    2709.5894   -38370.052    87.513562    243.83345 
   25300     138.2429   -630.45584    135381.27   -35624.111    2673.5479   -38297.659    87.620951    240.59011 
   25350    138.41326   -620.50918    135421.41   -35688.248    2676.8427    -38365.09    87.553962     240.8866 
   25400    140.22484   -718.78769    135422.05   -35607.898    2711.8777   -38319.776    87.565851    244.03937 
   25450    140.53306   -765.42017    135414.65   -35589.656    2717.8385   -38307.495    87.745882    244.57577 
   25500    139.72168    -723.6231    135427.47   -35567.523    2702.1468    -38269.67    87.765774     243.1637 
   25550    140.72665   -806.17618    135385.85   -35581.289    2721.5824   -38302.871     87.83754    244.91269 
   25600     138.2601   -855.09673    135320.16   -35590.794    2673.8806   -38264.675    87.736457    240.62005 
   25650     137.3719   -595.37674    135267.98   -35646.291    2656.7033   -38302.994    87.863537    239.07427 
   25700    136.88909   -1082.2446    135175.92   -35661.264    2647.3659    -38308.63      88.0091    238.23402 
   25750    136.98985   -949.85083    135088.04   -35676.502    2649.3147   -38325.817    87.932973    238.40938 
   25800    137.13596   -723.05619    135066.32   -35625.563    2652.1403   -38277.704    88.106571    238.66366 
   25850    136.59662   -694.76963    135050.56   -35629.568    2641.7096   -38271.278     88.47392    237.72501 
   25900    139.27947   -816.16071    135043.56   -35602.743    2693.5948   -38296.337    88.625698    242.39411 
   25950    140.77356   -393.50129    135109.48   -35618.982    2722.4897   -38341.472    88.604551    244.99433 
   26000    141.25347      -509.89    135132.58   -35629.646    2731.7708   -38361.417    88.892682    245.82954 
   26050    135.97082   -522.86935    135172.81   -35635.929     2629.607   -38265.536     88.90986    236.63591 
   26100    139.41275   -767.04932    135239.53   -35633.319    2696.1723   -38329.491    88.889282    242.62605 
   26150    138.68087    -845.9162    135153.65    -35645.37    2682.0181   -38327.388     88.71868    241.35233 
   26200    139.26251    -629.9839    135095.43   -35601.552    2693.2668   -38294.819    88.963977    242.36459 
   26250    139.96273   -510.22051    135177.65   -35596.918    2706.8087   -38303.727    89.019428    243.58321 
   26300    138.82564   -846.57557    135221.61     -35640.4    2684.8178   -38325.218    89.216015    241.60427 
   26350    133.75339   -532.75173    135248.03     -35699.2    2586.7231   -38285.923    89.166266    232.77683 
   26400    136.95059   -522.27356    135328.76   -35674.358    2648.5553   -38322.913    89.057408    238.34104 
   26450    137.26344   -642.63912    135373.36   -35700.805    2654.6057    -38355.41    89.183377    238.88552 
   26500    138.42618   -656.38915    135355.22   -35689.618    2677.0925    -38366.71    89.284177    240.90908 
   26550    137.04301   -635.17467    135405.35   -35679.944    2650.3428   -38330.287    89.584963     238.5019 
   26600    134.92886   -653.14493    135524.02   -35688.363    2609.4561   -38297.819    89.759677    234.82254 
   26650    135.80766    -708.0811    135523.47   -35667.749    2626.4516   -38294.201    89.856769    236.35196 
   26700    134.51508   -607.74377    135476.33   -35689.564    2601.4539   -38291.018    89.887007    234.10243 
   26750    139.81174   -512.32759    135589.83   -35673.276    2703.8885   -38377.164    89.984428    243.32043 
   26800    137.47986   -870.35094    135584.48   -35680.859    2658.7912    -38339.65    90.199103    239.26216 
   26850    136.34142   -744.58502    135515.55   -35681.088    2636.7742   -38317.862    90.486735    237.28088 
   26900    139.19392   -1031.8016    135431.61   -35663.433    2691.9402   -38355.373    90.289117    242.24521 
   26950     136.9493   -846.30491    135343.23   -35643.912    2648.5303   -38292.443    90.178386     238.3388 
   27000    140.23322   -1065.7073    135240.87   -35676.885    2712.0397   -38388.924    90.249046    244.05395 
   27050    137.59658   -807.06878    135118.77   -35667.145    2661.0485   -38328.194    90.345122     239.4653 
   27100    135.62763    -828.3626    135126.99   -35664.299    2622.9699   -38287.268     90.66675    236.03864 
   27150    135.85923   -866.34892    135178.93   -35668.904    2627.4489   -38296.353    90.795452     236.4417 
   27200    135.82561   -805.78638    135202.79   -35701.297    2626.7989   -38328.095    90.915573     236.3832 
   27250    138.11784   -886.65015    135106.11   -35681.033    2671.1294   -38352.162    91.103975    240.37247 
   27300    137.95945    -585.4238     135031.4   -35704.889    2668.0661   -38372.956    91.188574     240.0968 
   27350    137.83827   -781.70796    135037.81   -35670.493    2665.7226   -38336.216    91.074538    239.88591 
   27400    136.14397   -751.71375    134954.97   -35656.297    2632.9558   -38289.253    91.126862    236.93726 
   27450     139.4821   -688.77702    134940.96   -35641.994    2697.5135   -38339.507    91.363659    242.74675 
   27500     138.7281   -787.16184    134941.85   -35674.862    2682.9316   -38357.793    91.388288    241.43453 
   27550    135.96872   -745.06456    134941.96   -35663.447    2629.5664   -38293.013     91.57137    236.63225 
   27600    138.33142   -623.38095    134955.91    -35712.25    2675.2599    -38387.51    91.817671    240.74417 
   27650    137.81575   -866.21279     134960.2   -35687.232    2665.2871   -38352.519    92.048997    239.84672 
   27700    137.76433   -720.93722     134963.1   -35710.722    2664.2926   -38375.015    92.199956    239.75723 
   27750    139.02858   -705.23686    134878.95   -35705.378    2688.7426   -38394.121    92.362599    241.95747 
   27800    139.21099   -496.44108    134811.27   -35686.557    2692.2704   -38378.827    92.388531    242.27493 
   27850    138.01856   -561.32264    134788.63    -35718.99    2669.2093   -38388.199    92.598291    240.19968 
   27900    135.08753   -587.10783    134811.47   -35723.264    2612.5246   -38335.789    92.908902    235.09868 
   27950    138.44859   -445.09143    134801.94    -35705.49     2677.526   -38383.016     93.21551    240.94809 
   28000    137.83265   -782.79486    134830.41   -35694.395    2665.6139   -38360.009    93.515402    239.87613 
   28050    136.88253   -863.95218     134821.4   -35738.757     2647.239   -38385.996    93.633175    238.22259 
   28100    137.12932   -623.24059    134787.17   -35730.929    2652.0118    -38382.94    93.812531     238.6521 
   28150    137.15325   -557.54172    134779.74   -35751.286    2652.4747   -38403.761    93.761697    238.69375 
   28200    137.63287   -605.41905    134814.09   -35713.296    2661.7504   -38375.046    94.107356    239.52846 
   28250    140.11054   -813.66232    134798.31   -35693.012    2709.6673   -38402.679    94.247111    243.84045 
   28300    140.00432    -922.2219    134679.96   -35670.953    2707.6129   -38378.566    94.393379    243.65558 
   28350    140.04181   -835.89172    134698.14   -35719.494    2708.3379   -38427.832    94.639851    243.72083 
   28400    140.56367   -551.11657    134722.25   -35707.313    2718.4305   -38425.743    94.746055    244.62905 
   28450    136.36936   -852.83154     134696.9   -35704.844    2637.3147   -38342.159    94.797026    237.32951 
   28500    136.86871   -688.41161    134644.51   -35675.288    2646.9718    -38322.26    95.153708    238.19855 
   28550    139.70958   -730.72235    134696.36   -35640.828    2701.9127    -38342.74     95.29192    243.14263 
   28600    138.39058   -855.82089    134735.84   -35737.178     2676.404   -38413.582    95.551898    240.84713 
   28650    136.42603   -610.07223    134722.63   -35718.422    2638.4106   -38356.832    95.665176    237.42813 
   28700    138.31411   -849.16976     134753.4   -35686.236    2674.9251   -38361.161    95.982916    240.71404 
   28750    136.56418   -707.12979    134791.72   -35733.645    2641.0823   -38374.727    96.335489    237.66856 
   28800     138.2087   -886.63564       134876   -35719.309    2672.8866   -38392.196    96.552832    240.53059 
   28850    136.58796   -727.75907    134882.82    -35708.07    2641.5423   -38349.612    96.535941    237.70995 
   28900    139.32884   -806.99652    134894.83   -35712.043    2694.5494   -38406.593    96.425067    242.48001 
   28950    135.77506    -923.8247    134861.38   -35707.259    2625.8212    -38333.08    96.462984    236.29522 
   29000    137.71141   -781.66724    134715.51   -35717.193    2663.2693   -38380.463    96.494948    239.66514 
   29050    138.84663    -737.3218    134781.41    -35666.19    2685.2239   -38351.414    96.456346    241.64082 
   29100    137.61619   -918.59889    134757.79   -35684.126    2661.4276   -38345.553    96.382025    239.49941 
   29150    136.84495   -532.85024    134769.65   -35751.367    2646.5124   -38397.879    96.601296    238.15721 
   29200    137.83682   -714.22503    134868.41   -35740.473    2665.6946   -38406.168    96.812026     239.8834 
   29250    134.20221   -644.48667    134864.34   -35745.664    2595.4031   -38341.067    97.235884    233.55793 
   29300    136.90903   -528.74709    134889.02   -35820.303    2647.7516   -38468.055    97.133769    238.26872 
   29350    135.79922     -587.302    134810.53   -35847.968    2626.2884   -38474.256    97.426908    236.33726 
   29400    136.88054     -712.292    134860.92   -35829.556    2647.2007   -38476.757      97.4583    238.21914 
   29450    136.91061   -633.40404    135003.56   -35750.286    2647.7822   -38398.069    97.601975    238.27147 
   29500    135.18696   -806.35474    135009.88   -35773.613    2614.4475   -38388.061    97.683174    235.27172 
   29550    136.51998    -682.0627    135080.89   -35788.288    2640.2276   -38428.516    97.747577    237.59164 
   29600    136.66584   -624.43714       135063   -35804.203    2643.0483   -38447.252    97.754229    237.84548 
   29650    136.03057   -513.55381    135061.63   -35747.098    2630.7627   -38377.861    98.003818     236.7399 
   29700    138.72035   -609.93113    135126.31   -35727.637    2682.7815   -38410.418     98.21653    241.42103 
   29750    138.86861   -548.74573    135246.97   -35749.069    2685.6489   -38434.717    98.364212    241.67906 
   29800    139.47434   -604.38831    135250.58   -35724.264    2697.3635   -38421.628    98.684194    242.73325 
   29850    136.09597   -314.34788     135311.8   -35800.945    2632.0273   -38432.972    98.929976    236.85371 
   29900    138.36577   -437.19104    135407.27   -35699.475    2675.9242   -38375.399    99.280714    240.80395 
   29950    142.26062   -699.69454    135397.35   -35685.418    2751.2487   -38436.667    99.703467    247.58233 
   30000    140.46703   -633.22328     135433.8   -35687.539    2716.5616   -38404.101     99.87455    244.46087 
   30050    136.18312   -848.31873    135474.73   -35748.448    2633.7129    -38382.16    100.09123    237.00539 
   30100    134.92767   -568.06788    135613.38   -35752.756    2609.4331   -38362.189     100.4784    234.82047 
   30150     137.8142   -604.86827    135671.79   -35747.844     2665.257   -38413.101    100.45919    239.84402 
   30200    138.97905   -840.73562    135640.47   -35734.984    2687.7847   -38422.768     100.6263    241.87126 
   30250       138.78   -842.91832    135590.78   -35758.457    2683.9352   -38442.392    100.52775    241.52485 
   30300    137.44313   -738.67959    135575.38   -35732.601    2658.0807   -38390.682    100.43699    239.19823 
   30350    136.60043   -608.57849    135627.39   -35761.879    2641.7833   -38403.662    100.28553    237.73164 
   30400    137.26381   -652.64043    135591.91   -35746.746    2654.6129   -38401.359    100.24783    238.88616 
   30450    135.78351   -778.25492    135619.07   -35763.642    2625.9846   -38389.627    100.50293    236.30993 
   30500    136.94702   -572.74229    135684.74   -35776.335    2648.4862   -38424.821    101.09214    238.33483 
   30550    136.02238   -755.85745    135692.94   -35747.973    2630.6042   -38378.577    100.91273    236.72564 
   30600    137.72955   -494.52723    135741.02   -35752.409    2663.6201   -38416.029    101.16079    239.69671 
   30650    139.41696   -886.62911    135765.12   -35723.265    2696.2538   -38419.519    101.38058    242.63339 
   30700    139.67223   -613.75769     135731.6   -35743.555    2701.1906   -38444.745    101.38433    243.07764 
   30750    140.20782   -916.52399    135634.59   -35751.823    2711.5484   -38463.372    101.31923    244.00974 
   30800    137.43141   -809.25077    135607.49    -35739.47    2657.8542   -38397.324    101.28004    239.17784 
   30850     139.9025   -885.78633    135627.35   -35752.271    2705.6439   -38457.915    101.53645    243.47839 
   30900    138.63708   -789.81551    135572.23   -35735.014    2681.1712   -38416.185    101.97566    241.27612 
   30950    135.34218   -628.19727    135608.66   -35827.845    2617.4495   -38445.295    102.02558    235.54186 
   31000    138.70716   -525.76858    135725.13   -35835.169    2682.5266   -38517.695    102.05251    241.39809 
   31050    140.48686   -689.68723     135743.5   -35747.012     2716.945   -38463.957    102.26346    244.49537 
   31100    139.81704   -554.34539    135725.65   -35717.355    2703.9911   -38421.346    102.42364    243.32966 
   31150     139.5727   -680.98719    135803.66   -35675.824    2699.2655   -38375.089    102.45701    242.90441 
   31200    139.46895    -503.5864    135755.19    -35641.56    2697.2591   -38338.819    102.21854    242.72386 
   31250    137.96368   -425.41941    135710.32    -35669.88    2668.1479   -38338.028    102.48505    240.10417 
   31300    139.17265    -738.0262    135766.17   -35706.294    2691.5289   -38397.823    102.63339     242.2082 
   31350    138.09768    -750.5493    135732.34   -35739.657    2670.7394   -38410.396     102.7608    240.33737 
   31400    139.21023   -862.69939    135636.56   -35715.488    2692.2556   -38407.744    103.00384     242.2736 
   31450    137.64574   -729.83413    135539.37   -35762.515    2661.9992   -38424.514    103.37228    239.55085 
   31500    137.91642   -770.34081    135569.07   -35783.045    2667.2339   -38450.279    103.49731    240.02192 
   31550    137.26048   -989.59511    135695.59   -35747.546    2654.5484   -38402.095    103.87243    238.88036 
   31600    136.93891   -765.65387    135671.49   -35795.228    2648.3295   -38443.557    104.19022    238.32073 
   31650    134.53738   -1003.1276    135723.54   -35826.855    2601.8851    -38428.74     104.3404    234.14124 
   31700    135.91884   -875.86315    135698.85   -35812.857    2628.6019   -38441.459     104.6435    236.54546 
   31750    135.76625    -745.5147    135689.67   -35811.252    2625.6508   -38436.903    104.84629    236.27989 
   31800    136.61685   -864.46735    135677.25   -35755.608    2642.1011    -38397.71    105.09486    237.76023 
   31850    137.96574   -767.23741    135581.68   -35763.727    2668.1878   -38431.914    105.25301    240.10776 
   31900    138.88497   -685.04449    135566.48   -35750.402    2685.9652   -38436.367    105.15655    241.70753 
   31950    138.16284   -821.57999    135576.01   -35742.471    2671.9997    -38414.47    105.39857    240.45078 
   32000     136.4701     -630.469    135582.46   -35796.251    2639.2628   -38435.514    105.86582    237.50482 
   32050    136.90846   -869.30005    135561.02    -35757.54    2647.7405   -38405.281     105.8755    238.26772 
   32100    140.36762   -582.81894    135644.64   -35713.035    2714.6389   -38427.674     106.1738    244.28785 
   32150    140.46226   -737.16983    135690.71   -35673.443    2716.4693   -38389.912    106.29069    244.45257 
   32200    138.11294   -818.58396    135587.71   -35709.225    2671.0347    -38380.26    106.44477    240.36394 
   32250    142.00051   -630.46985    135555.07    -35644.73    2746.2183   -38390.948    106.79237    247.12965 
   32300    139.18674   -792.11353    135578.79   -35682.526    2691.8014   -38374.328    106.78648    242.23272 
   32350    141.03598   -1088.2504    135462.61   -35700.192    2727.5648   -38427.757    106.89266    245.45104 
   32400    137.57143   -908.96846    135426.51    -35774.56     2660.562   -38435.122    106.97327    239.42152 
   32450    138.05413   -1014.3136     135344.9   -35796.717    2669.8973   -38466.615      106.979    240.26159 
   32500    137.06825   -997.70562    135287.93   -35770.102    2650.8308   -38420.933    107.06567    238.54582 
   32550    136.06571   -661.78236    135169.16   -35740.507    2631.4423   -38371.949    107.05592    236.80106 
   32600    141.26749   -671.60801     135140.3   -35721.255     2732.042   -38453.297    107.00256    245.85394 
   32650    138.52238   -616.94832    135261.57   -35761.276    2678.9529   -38440.229    107.14514     241.0765 
   32700    138.16009    -460.5184    135305.83   -35760.023    2671.9465   -38431.969    107.23034      240.446 
   32750    139.07246   -928.03892    135336.86   -35735.237    2689.5912   -38424.828    107.66464    242.03383 
   32800    138.65356   -770.12493    135239.19    -35806.13      2681.49    -38487.62    107.61208    241.30481 
   32850    136.87911   -666.82164    135181.78    -35815.11     2647.173   -38462.283    107.52811    238.21666 
   32900    136.70145   -547.65112    135127.42   -35823.375    2643.7372   -38467.112    107.49735    237.90747 
   32950    138.67468   -587.76329    135149.72   -35854.537    2681.8984   -38536.435    107.58581    241.34156 
   33000    137.89624   -771.22881    135141.01   -35833.551    2666.8437   -38500.395     107.8887     239.9868 
   33050    138.30949   -574.63153    135122.92   -35809.232    2674.8358   -38484.068    107.65797      240.706 
   33100    136.07486   -789.48341    135118.01   -35814.733    2631.6191   -38446.352    107.56218    236.81698 
   33150    137.73604   -703.71162    135185.74   -35847.057    2663.7455   -38510.803     107.7244      239.708 
   33200    134.90977   -532.54813    135151.82    -35867.01    2609.0869   -38476.097    107.74148    234.78932 
   33250    139.41108   -579.82202    135204.01   -35828.043      2696.14   -38524.183    107.84827    242.62314 
   33300    137.23994   -456.21977    135238.98   -35779.152    2654.1513   -38433.303    107.86021    238.84462 
   33350    137.11837   -714.71012    135186.75   -35802.926    2651.8002   -38454.726    107.76882    238.63305 
   33400    136.27064   -786.38535    135179.82   -35849.044    2635.4054   -38484.449     108.0022     237.1577 
   33450    137.50022   -599.02445     135237.1    -35808.78    2659.1849   -38467.964    108.29065    239.29759 
   33500    137.10754   -654.96372    135394.03   -35792.745    2651.5906   -38444.335    108.35046    238.61419 
   33550    139.42263   -645.42954     135430.6   -35743.554    2696.3633   -38439.917    108.58358    242.64324 
   33600    138.94347   -667.13623     135463.2   -35702.954    2687.0967   -38390.051    108.91543    241.80935 
   33650    138.28476   -890.04082    135508.22    -35720.91    2674.3576   -38395.268    109.17653    240.66297 
   33700    137.17355   -962.77036    135422.49   -35686.625    2652.8673   -38339.492    109.33693    238.72908 
   33750    137.27309   -606.13021    135431.31    -35759.77    2654.7924   -38414.562    109.52144    238.90232 
   33800    138.28647   -852.65753    135401.73    -35759.57    2674.3906   -38433.961    109.67618    240.66594 
   33850    138.80736   -792.74131    135378.71   -35705.437    2684.4644   -38389.901     109.7569    241.57247 
   33900    142.37069    -900.9057    135300.59   -35705.111    2753.3774   -38458.489    110.18452    247.77389 
   33950     138.1014   -387.66912    135300.29   -35762.084    2670.8114   -38432.895    110.30388    240.34385 
[...]
   92000    140.50753   -510.56179    134752.57    -35614.39    2717.3448   -38331.735    275.89044    244.53135 
   92050    138.57643   -728.05712    134834.85   -35690.004    2679.9982   -38370.003    275.97747    241.17056 
   92100    138.63231   -473.41703    134905.47   -35706.835    2681.0789   -38387.914     275.9063    241.26781 
   92150     136.6789   -751.77162    135041.86   -35682.005    2643.3011   -38325.306    276.40305    237.86822 
   92200    138.75003     -836.826    135012.91    -35714.33    2683.3555   -38397.685    276.28492    241.47268 
   92250    138.40043   -790.42283       134976   -35681.434    2676.5944   -38358.029    276.61564    240.86426 
   92300    139.89581   -697.87039    134938.21   -35693.174    2705.5144   -38398.688    276.71803    243.46674 
   92350    141.19437   -823.75761     134905.5   -35686.348     2730.628   -38416.976    276.73306    245.72669 
   92400     138.1919   -607.50248    134884.33   -35641.952    2672.5617   -38314.514    276.50232    240.50136 
   92450    139.64682   -804.90062    134904.02   -35666.717    2700.6991   -38367.416     276.6899    243.03342 
   92500    140.19719   -741.70312     134840.4   -35628.603    2711.3428   -38339.946    276.91271    243.99124 
   92550    136.21625    -652.0212    134763.58   -35699.101    2634.3537   -38333.454    277.32177    237.06305 
   92600    136.86002   -612.24795    134901.59    -35731.28    2646.8037   -38378.083    277.79547    238.18342 
   92650    136.24826   -673.39367    134913.41   -35784.569    2634.9726   -38419.541    278.16853    237.11875 
   92700    135.35012   -753.13521    134960.79   -35809.899    2617.6031   -38427.502    278.43391    235.55568 
   92750    134.52166   -629.80677    135027.42   -35840.521    2601.5811   -38442.102    278.37398    234.11388 
   92800    136.72744   -767.83291    135068.88   -35800.436    2644.2396   -38444.676    278.74943    237.95268 
   92850    137.67151   -614.58586    135097.57   -35808.909    2662.4975   -38471.407    278.32836    239.59569 
   92900     137.2793   -787.36204    135106.72   -35801.441    2654.9123   -38456.353    278.62691    238.91311 
   92950    135.11314   -845.50974    135099.26   -35804.528      2613.02   -38417.548    278.86354    235.14326 
   93000    135.51959   -783.49492    135115.09   -35793.964    2620.8804   -38414.844    279.28195    235.85061 
   93050     139.1753   -776.03235    135132.63   -35763.255      2691.58   -38454.835    279.54695     242.2128 
   93100    137.11384   -846.35796    135138.66   -35775.211    2651.7126   -38426.924    279.65436    238.62517 
   93150    138.86833   -577.99652    135129.17   -35766.225    2685.6434   -38451.868    279.93355    241.67857 
   93200    139.28468   -743.99279    135139.82   -35758.133    2693.6954   -38451.829    279.98794    242.40317 
   93250    139.84048   -680.54974    135070.15   -35758.783    2704.4443   -38463.228    280.31272    243.37044 
   93300    135.76922   -626.06211    135117.28   -35784.994    2625.7083   -38410.703    280.70414    236.28506 
   93350     135.8314   -379.33216    135035.54   -35780.955    2626.9107   -38407.866    280.41899    236.39326 
   93400    134.62434    -710.9338    135040.63     -35807.3    2603.5668   -38410.867    280.84737    234.29257 
   93450    137.92047   -875.91573    135103.44   -35773.603    2667.3123   -38440.915    280.92398    240.02897 
   93500    135.77027   -761.12221    135092.43   -35776.877    2625.7285   -38402.605    281.05785    236.28688 
   93550    136.22521   -760.91661    135065.52   -35767.334    2634.5269   -38401.861    281.10112    237.07864 
   93600    137.11469   -760.94217    134981.96   -35762.854     2651.729   -38414.583     281.1128    238.62664 
   93650    137.92334     -718.677    134944.87   -35724.797    2667.3678   -38392.165    281.72699    240.03396 
   93700    140.76761   -714.76795    134904.75    -35719.99    2722.3745   -38442.364    281.83115    244.98397 
   93750    140.21927   -620.04786    134859.39   -35724.186    2711.7701   -38435.956     281.7541    244.02968 
   93800     137.7052   -758.23597       134815    -35717.39    2663.1492   -38380.539    282.05203    239.65433 
   93850    137.63169    -766.7435    134853.08    -35719.49    2661.7275   -38381.218    282.19484     239.5264 
   93900    139.83319   -565.74458     134869.2    -35733.65    2704.3034   -38437.953    282.39868    243.35777 
   93950    136.51317   -633.94703    134951.53   -35769.498    2640.0959   -38409.594    282.45553     237.5798 
   94000     137.3661   -545.79018    134959.92   -35778.169    2656.5912    -38434.76    282.74723    239.06419 
   94050    138.28481   -898.07768    134929.82     -35806.4    2674.3586   -38480.758    282.61886    240.66306 
   94100    137.93611   -746.77429    134931.65   -35858.901    2667.6149   -38526.515    282.71935     240.0562 
   94150    134.15045   -945.70104    134875.07    -35925.29    2594.4021   -38519.693     283.0109    233.46785 
   94200    134.17786   -1051.0831    134781.24   -35917.358    2594.9321    -38512.29    282.86926    233.51554 
   94250    134.18228   -577.42732    134817.11   -35905.908    2595.0176   -38500.926    283.16554    233.52323 
   94300    136.62064   -568.45628    134933.75   -35824.132    2642.1743   -38466.306    283.26836    237.76682 
   94350    136.04849   -592.05687    135027.47    -35799.23    2631.1092   -38430.339    283.35187    236.77109 
   94400    139.08037   -621.77702    135040.86   -35747.221    2689.7443   -38436.966    282.97697     242.0476 
   94450    136.42389    -724.6501    135042.46   -35752.962    2638.3693   -38391.331    283.05537    237.42442 
   94500    136.57743   -812.59332    135023.93   -35678.847    2641.3386   -38320.185    283.23048    237.69162 
   94550    140.78799    -644.9342    135034.04   -35680.519    2722.7686   -38403.288     283.6336    245.01943 
   94600    139.36598   -509.26176    135104.03   -35726.189    2695.2677   -38421.457    283.83532    242.54465 
   94650    140.04184   -635.18163    135206.88   -35707.017    2708.3386   -38415.356    284.10469    243.72089 
   94700    137.96136   -648.83202     135111.4   -35704.465    2668.1031   -38372.568    284.44425    240.10013 
   94750     137.7297   -573.57917    135122.37   -35753.309    2663.6229   -38416.932    284.25939    239.69697 
   94800    136.39166    -824.8567     135069.4   -35753.769     2637.746   -38391.515    284.17389    237.36833 
   94850    136.14567   -793.40359    134998.32   -35770.329    2632.9885   -38403.318     284.2292     236.9402 
   94900    132.31476   -822.40413    134914.98   -35772.139    2558.9008    -38331.04    284.03658    230.27312 
   94950    133.41279   -876.64565    134830.64   -35796.707     2580.136   -38376.843    284.37332    232.18405 
   95000    136.17583   -707.17114    134768.74   -35798.565    2633.5718   -38432.136    284.48591    236.99269 
   95050    137.79463   -558.32433    134853.04   -35765.618    2664.8786   -38430.497    284.69511    239.80997 
   95100    140.19241   -681.46167    134939.05   -35698.043    2711.2504   -38409.293    284.71283    243.98292 
   95150    137.63217   -761.47376    135057.34     -35735.7    2661.7367   -38397.436    284.97665    239.52723 
   95200    136.82729   -579.56617    135116.75   -35785.445    2646.1707   -38431.616    285.18918    238.12646 
   95250    134.77298   -915.49415    135140.78   -35746.074    2606.4415   -38352.516    285.38838    234.55127 
   95300    135.42782   -800.90834    135050.51    -35725.62    2619.1057   -38344.725    285.29133     235.6909 
   95350    135.73132   -789.80187    134962.22   -35727.942    2624.9754   -38352.917    285.86137    236.21911 
   95400    138.69509   -799.57734    134879.45   -35757.654     2682.293   -38439.947    285.66788    241.37707 
   95450    137.23233   -729.32133    134841.59   -35751.966    2654.0041    -38405.97    285.88545    238.83138 
   95500    138.47489   -580.94191    134869.23   -35728.872    2678.0345   -38406.907    286.08673    240.99385 
   95550    137.42627   -851.23005    134835.53   -35739.828    2657.7547   -38397.583    286.57919    239.16889 
   95600    137.21843   -638.68114    134922.96   -35739.523    2653.7352   -38393.258    286.72113    238.80718 
   95650    139.07258   -492.43576    134923.64   -35735.935    2689.5936   -38425.528    287.07358    242.03404 
   95700    140.22398   -414.80437    134990.13    -35718.14    2711.8611   -38430.001    287.20756    244.03788 
   95750    137.93535   -863.38631    134999.79   -35773.187    2667.6001   -38440.788    287.44887    240.05487 
   95800    138.48138   -531.66019    135004.88   -35780.459      2678.16    -38458.62    287.27659    241.00515 
   95850    136.19614   -624.93041    135014.81   -35796.562    2633.9646   -38430.526    287.14013    237.02804 
   95900    138.33111   -449.90061    135133.12   -35775.822    2675.2538   -38451.076    287.38839    240.74362 
   95950    138.64219   -558.52051    135138.94    -35770.17      2681.27    -38451.44    287.63606    241.28501 
   96000    138.59944   -603.40475    135181.52   -35716.824    2680.4432   -38397.267    287.91377    241.21061 
   96050    137.16637   -628.34403    135207.81   -35754.454    2652.7283   -38407.182    288.53456    238.71657 
   96100    135.83673   -826.19759    135260.85   -35797.423    2627.0139   -38424.437    288.98055    236.40255 
   96150    139.06301   -523.74223    135237.47   -35769.221    2689.4084    -38458.63    289.37868    242.01738 
   96200    134.99795   -642.14569    135149.45   -35804.488    2610.7923   -38415.281    289.98114    234.94279 
   96250    137.51552   -950.12483    135085.95   -35774.241    2659.4808   -38433.722    289.36518    239.32422 
   96300    139.95287   -612.28028    135102.88   -35680.653     2706.618   -38387.271     289.7791    243.56605 
   96350    140.83854   -700.66722    135048.93   -35714.462    2723.7464   -38438.209    290.01586    245.10742 
   96400    138.81779   -610.75323    135045.99   -35715.815     2684.666   -38400.481    289.44504    241.59062 
   96450    136.04057   -491.31389    135098.17   -35739.541    2630.9559   -38370.497    289.49443    236.75729 
   96500    138.04307   -605.86157    135107.13    -35752.41    2669.6834   -38422.094     289.5588    240.24234 
   96550    137.89594   -744.95559    135129.41    -35746.88    2666.8379   -38413.718     289.7644    239.98628 
   96600    137.93586   -894.06044    135133.58    -35789.32      2667.61    -38456.93     290.3127    240.05576 
   96650    134.50329   -941.86118    135099.39   -35814.629    2601.2259   -38415.855    290.59256    234.08191 
   96700    136.13614   -868.50882    135028.54   -35793.398    2632.8044   -38426.203    290.92268    236.92363 
   96750    138.38613   -858.50623    135005.33   -35742.188     2676.318   -38418.506    291.19291    240.83939 
   96800    136.27788   -518.93017    135068.58   -35784.389    2635.5455   -38419.935    291.45422     237.1703 
   96850    138.21116    -720.6477    135104.63    -35761.55    2672.9342   -38434.485    291.23409    240.53488 
   96900    135.16615   -768.49732    135179.82   -35737.558    2614.0451   -38351.604    291.24112     235.2355 
   96950    139.80595   -877.79196    135204.37   -35695.867    2703.7766   -38399.643    291.61207    243.31036 
   97000    135.87863   -580.88125    135264.34   -35694.546    2627.8241    -38322.37    291.82127    236.47546 
   97050    139.40839   -620.00191    135294.52   -35675.998    2696.0879   -38372.086    291.98576    242.61846 
   97100    137.37977   -752.42022     135299.5   -35671.994    2656.8554    -38328.85     292.5266    239.08797 
   97150    136.72351   -938.46956     135233.9   -35691.556    2644.1637    -38335.72    292.46623    237.94585 
   97200    137.48739   -840.85996    135169.08   -35701.553    2658.9367    -38360.49    292.67921    239.27526 
   97250    136.13791   -881.06413    135128.52   -35703.786    2632.8384   -38336.625    292.80211     236.9267 
   97300    138.33877   -698.88338    135184.72   -35665.277    2675.4021   -38340.679    292.60119    240.75696 
   97350    139.36083   -751.83436     135269.8   -35653.139    2695.1682   -38348.307    292.83109     242.5357 
   97400     138.3149   -997.89034    135275.96   -35689.613    2674.9405   -38364.553    293.19883    240.71542 
   97450    136.44665   -931.23716    135207.59   -35718.589    2638.8095   -38357.398    293.09214    237.46403 
   97500    138.23705   -718.96839    135173.41   -35747.731    2673.4349   -38421.166    293.35176    240.57994 
   97550    136.96571   -838.30885    135156.38   -35742.343    2648.8478    -38391.19    293.40977    238.36737 
   97600    134.95633   -928.08811    135155.78   -35680.567    2609.9874   -38290.554    293.42028    234.87035 
   97650    136.54533   -848.58744    135188.59   -35693.241    2640.7177   -38333.959    293.72153    237.63575 
   97700    139.82585   -948.29147    135189.52   -35667.607    2704.1614   -38371.768    294.04143    243.34499 
   97750    137.79228   -742.10688    135141.51   -35657.817    2664.8333   -38322.651    293.98442    239.80588 
   97800     141.0051   -645.52158    135254.81   -35652.679    2726.9676   -38379.647    294.63041     245.3973 
   97850    142.05722   -710.32186    135328.56    -35621.18    2747.3149   -38368.495    294.62324    247.22833 
   97900    138.27884    -625.7046    135373.49   -35620.053    2674.2431   -38294.297    294.67893    240.65267 
   97950    138.09599   -655.71374    135428.41   -35634.805    2670.7068   -38305.512    294.77829    240.33444 
   98000    140.25363   -838.22955    135463.39   -35630.301    2712.4345   -38342.735    295.05221    244.08948 
   98050    136.42246   -732.61416    135499.95   -35681.567    2638.3417   -38319.909    294.68161    237.42193 
   98100    140.04792   -723.08366    135521.72   -35667.814    2708.4561    -38376.27    295.13558    243.73146 
   98150    137.69098   -686.65463    135585.51    -35700.15    2662.8741   -38363.024    295.46615    239.62958 
   98200     135.2925   -757.05404    135644.55   -35711.042    2616.4887   -38327.531    295.83072     235.4554 
   98250     137.2019    -681.2261    135624.66   -35690.672    2653.4155   -38344.087    295.53747    238.77841 
   98300     138.6584   -1021.4008    135552.95   -35700.182    2681.5834   -38381.765    295.03303    241.31322 
   98350    135.87975   -925.41503    135438.01   -35700.572    2627.8459   -38328.418    295.47238    236.47742 
   98400    138.51473   -578.13062    135405.47   -35670.912     2678.805   -38349.717    295.86509    241.06319 
   98450    138.34637   -560.70972    135390.89   -35668.728     2675.549   -38344.276     295.6344    240.77018 
   98500    139.62298   -768.55384    135395.43   -35654.992    2700.2379    -38355.23    295.64631    242.99192 
   98550    140.41818   -629.93804    135300.43   -35653.065    2715.6167   -38368.681    295.83352    244.37584 
   98600    134.65448   -503.19053    135384.12   -35708.749    2604.1496   -38312.898    296.04251    234.34502 
   98650    139.04229   -649.67064    135572.47   -35725.514    2689.0077   -38414.521    296.30235    241.98132 
   98700    139.98834   -684.26456    135607.49   -35736.455     2707.304   -38443.759    296.38319    243.62778 
   98750    135.96599   -482.34104    135770.62   -35701.125    2629.5137   -38330.639    296.49427    236.62751 
   98800    137.09188   -559.60028    135912.14   -35691.347    2651.2878   -38342.635    296.65781    238.58694 
   98850    138.51193   -537.30653     135926.3   -35670.921    2678.7508   -38349.672    296.59096    241.05831 
   98900    137.36452   -809.43004    135995.19    -35647.67    2656.5605   -38304.231    297.11222    239.06143 
   98950    142.49741   -734.65891    135956.14    -35659.55     2755.828   -38415.378     297.2961    247.99441 
   99000     139.5111   -813.99625    135927.12   -35648.304    2698.0742   -38346.378    297.88218    242.79721 
   99050    138.84732   -811.97502    135918.13   -35645.954    2685.2372   -38331.191    298.13774    241.64202 
   99100    139.41439   -978.68965     136032.1   -35707.027     2696.204   -38403.231    297.95816    242.62891 
   99150    136.49835   -685.49119    136058.33    -35731.96    2639.8092   -38371.769    298.08797      237.554 
   99200    139.53475   -638.15039    136118.98   -35721.229    2698.5316   -38419.761    298.85419    242.83837 
   99250    137.98584    -1028.687    136052.28   -35758.498    2668.5766   -38427.075    299.06397    240.14274 
   99300    135.95923   -580.85131    136072.71   -35810.151     2629.383   -38439.534    299.48043    236.61574 
   99350    137.49096   -840.43398    135999.73   -35763.554    2659.0059    -38422.56    299.35636    239.28148 
   99400    137.74681   -399.85536    135939.06   -35760.155    2663.9538   -38424.108    299.07447    239.72674 
   99450    136.34684   -754.76842    136031.62   -35776.955    2636.8792   -38413.834    299.36098    237.29032 
   99500    133.96192     -908.702    135964.93   -35839.925     2590.756   -38430.681    299.11383    233.13974 
   99550    137.04954    -879.0029    135978.03   -35830.449    2650.4689   -38480.918    299.44274    238.51325 
   99600    136.64781   -659.81148    135980.71   -35813.844    2642.6997   -38456.543    299.57935    237.81411 
   99650     132.6421   -895.77649    135975.88   -35835.174    2565.2313   -38400.406    299.76746    230.84279 
   99700    138.93912   -802.44619    136013.03   -35824.591    2687.0124   -38511.603    299.59501    241.80177 
   99750     137.4687   -708.16748    136088.67   -35772.834    2658.5754   -38431.409    299.66065    239.24274 
   99800    139.06754   -635.87237    136130.16   -35794.852     2689.496   -38484.348    300.13215    242.02526 
   99850    137.37655   -702.83558    136187.96   -35820.107    2656.7931     -38476.9    300.28721    239.08236 
   99900    136.91226   -757.98316    136204.52    -35859.97     2647.814   -38507.784    300.18644    238.27434 
   99950    136.66254   -915.11747    136201.34   -35876.591    2642.9846   -38519.575    299.73622    237.83974 
  100000    138.59969   -1026.3694    136131.73   -35862.652     2680.448     -38543.1    299.75469    241.21104 
Loop time of 50.4173 on 128 procs for 100000 steps with 6489 atoms

Performance: 856.849 ns/day, 0.028 hours/ns, 1983.446 timesteps/s
96.6% CPU use with 128 MPI tasks x no OpenMP threads

MPI task timing breakdown:
Section |  min time  |  avg time  |  max time  |%varavg| %total
---------------------------------------------------------------
Pair    | 5.4141     | 12.936     | 34.562     | 300.8 | 25.66
Neigh   | 0.4438     | 0.95083    | 2.8944     |  80.9 |  1.89
Comm    | 5.684      | 14.731     | 38.224     | 303.9 | 29.22
Output  | 0.16475    | 0.16771    | 0.17778    |   0.4 |  0.33
Modify  | 3.6873     | 20.872     | 36.679     | 334.9 | 41.40
Other   |            | 0.7599     |            |       |  1.51

Nlocal:    50.6953 ave 137 max 28 min
Histogram: 94 2 0 5 11 0 0 0 3 13
Nghost:    571.086 ave 955 max 377 min
Histogram: 64 0 0 32 0 0 0 0 9 23
Neighs:    0 ave 0 max 0 min
Histogram: 128 0 0 0 0 0 0 0 0 0
FullNghs:  4046.89 ave 17233 max 1034 min
Histogram: 96 0 0 3 13 0 0 0 2 14

Total # of neighbors = 518002
Ave neighs/atom = 79.8277
Neighbor list builds = 5987
Dangerous builds = 0

write_data		${DIR}/data.eq-${NAME}-${TEMP}
write_data		run_19/data.eq-${NAME}-${TEMP}
write_data		run_19/data.eq-het_freeze_19-${TEMP}
write_data		run_19/data.eq-het_freeze_19-240
undump          1

reset_timestep  0

unfix           2
unfix           3
unfix           4


################################################
#######         Run Simulation         #########
################################################

log				${DIR}/log.run_${NAME}
log				run_19/log.run_${NAME}
log				run_19/log.run_het_freeze_19
