LAMMPS data file via write_data, version 16 Mar 2018, timestep = 6000000

6768 atoms
2 atom types

0.0000000000000000e+00 4.9219999999999999e+01 xlo xhi
0.0000000000000000e+00 4.9019635930410494e+01 ylo yhi
1.8723981003482493e-01 5.9874760189973799e+01 zlo zhi

Masses

1 18.015
2 12.01

Atoms # atomic

3619 1 1.1852821999396388e+00 3.2760188879531205e+00 1.7432243142878803e+00 2 2 0
3736 1 2.8012641051234985e+00 1.2352462084311018e+00 2.6666188779034452e+00 2 -1 0
6676 1 5.3619798302694273e+00 1.6291217810834686e+00 1.9109788459023342e+00 0 1 1
5476 1 5.4698213823437607e+00 4.0416573009149186e+00 2.4093451534817909e+00 1 0 0
368 1 9.9953121308202739e+00 2.4410078813384786e+00 2.5703582538926679e+00 1 0 0
152 1 1.9913420971755609e+00 5.8977222708773560e+00 2.3473371696234544e+00 -2 0 0
3428 1 6.3330763783144362e-01 8.0825581501246884e+00 1.6415657725694006e+00 1 0 1
1434 1 4.4377808044485221e+00 6.2519722325287796e+00 1.4295274374059417e+00 1 2 1
3483 1 8.3723356861393441e+00 4.6125693195593120e+00 1.6989738884464143e+00 0 3 0
538 1 8.5692721945406554e+00 6.9818382501338849e+00 3.0289702182290887e+00 0 -1 0
3130 1 1.3287472121919000e+00 1.0430709268662048e+01 2.8341610263325427e+00 -2 -1 1
2134 1 4.0730628963285920e+00 1.1429675502136023e+01 2.9490980882683426e+00 0 2 0
241 1 6.0591164484843576e+00 8.0192984782867054e+00 2.6844768933646841e+00 2 -1 0
6673 1 6.4336489820865586e+00 1.0446030028663982e+01 1.8073380463927562e+00 -1 -1 1
1771 1 8.9425091818366251e+00 1.1062095372740117e+01 2.4514948768683946e+00 -1 2 1
2232 1 1.0273050640914512e+01 8.8658493541090149e+00 1.7273388752217782e+00 1 -1 0
1967 1 1.1352515992281609e+00 1.4664917919158293e+01 2.8690084324040246e+00 0 0 0
233 1 3.4658553176288533e+00 1.3767626642347741e+01 2.0277209634779023e+00 0 2 0
307 1 5.6663726382227626e+00 1.5471622187694864e+01 1.7208570620338364e+00 3 0 0
6498 1 8.0483109024481063e+00 1.5128614066676324e+01 2.7567017026656746e+00 1 -1 1
3604 1 1.3165079784939593e-01 1.9063939978691067e+01 5.0666766488189001e+00 1 1 0
246 1 9.9785326765792508e+00 1.3350506585082522e+01 1.9237104679794077e+00 -1 -1 0
1729 1 2.8440876429551949e+00 1.9214652894222745e+01 1.9187803075894387e+00 0 0 0
5412 1 4.9793008858716075e+00 1.7949812353960759e+01 2.5812676078905201e+00 -1 1 0
5632 1 7.4702685676615799e+00 1.9196711236287115e+01 2.6173318626577822e+00 -1 1 0
138 1 9.0268532623019091e+00 1.7570762029200626e+01 1.4147158841627150e+00 -1 -2 1
4779 1 1.1164245203774939e+01 1.7868173115988995e+01 2.6539890373045649e+00 -1 1 1
3758 1 3.3592128704177604e+00 2.1865190005362486e+01 2.7918263884037366e+00 2 1 0
6530 1 2.1288201476454880e+00 2.3735673247933263e+01 1.8268557960843224e+00 2 1 1
4939 1 5.6378414612355998e+00 2.1590955896727738e+01 1.6060672616671792e+00 -2 2 1
5553 1 4.4050194771405931e+00 2.3528229028873781e+01 9.2812489749201248e+00 -1 1 0
6514 1 1.1081373320045891e+01 2.3149389519910773e+01 2.8168130222406145e+00 -2 2 1
1357 1 2.3896938997277135e+00 1.4398734479144364e+00 5.4190697023699235e+00 0 -2 1
3045 1 3.3726000565817111e+00 3.8936590981002239e+00 6.1598893825311487e+00 1 -1 1
5378 1 7.3762414651972996e+00 1.9190522824113623e+00 6.2067063657287260e+00 1 2 0
3377 1 5.7813675968152776e+00 3.7783301911530618e+00 5.1504238594349836e+00 0 1 0
1392 1 9.7502592806864143e+00 2.1825388411227107e+00 5.3181562236246052e+00 1 -1 1
4948 1 1.5685889758226756e-01 1.8868261029298530e+01 2.2285271099558979e+00 -1 0 1
2047 1 1.8757817539194765e+00 5.7731391761934399e+00 5.0394568945811038e+00 3 0 0
2210 1 2.7179482387076996e+00 8.1639591970159895e+00 6.1611578134189191e+00 1 0 0
3885 1 6.7666065606599313e+00 6.3897576352286798e+00 6.2764480133740816e+00 0 -1 1
1520 1 1.0655709470955511e+01 4.3843840863182306e+00 6.3441699832855241e+00 0 1 1
1348 1 9.5120740604665563e+00 6.5998904380478560e+00 5.6872092380464512e+00 -2 -1 1
324 1 9.9652682087711708e-01 1.0192519138831857e+01 5.5569965114547513e+00 1 1 0
3096 1 5.4170187423292395e+00 8.4487328197425580e+00 5.5199332088510538e+00 -2 0 1
436 1 6.4609970783618094e+00 1.0565190333594302e+01 6.5694278100820611e+00 -2 -2 0
488 1 8.9589501660667707e+00 1.1137686906163273e+01 5.3028794640049588e+00 -1 -1 0
251 1 1.0321499242125725e+01 9.0827201131759381e+00 6.5386496589674366e+00 -2 0 0
5072 1 2.1450541798424330e+00 1.2381790398635923e+01 6.6465655236860366e+00 0 1 1
1851 1 9.9208761838650195e-01 1.4564851291669466e+01 5.4816901880353726e+00 1 0 1
204 1 4.7030125452957989e+00 1.2405972626962196e+01 5.6588842773779797e+00 0 0 0
142 1 5.6117593757179076e+00 1.5090431720788059e+01 6.2692046566263935e+00 0 0 0
6670 1 8.4511554618206812e+00 1.5381242495534062e+01 5.5896746149692005e+00 2 -2 1
5422 1 1.1866263970935067e+01 2.0611238785233375e+01 1.7170333225776118e+00 2 2 0
4782 1 9.6073377177366961e+00 1.3213315989691573e+01 6.6660636700957152e+00 -1 0 1
3481 1 1.5591781278051864e+00 1.6961436182147011e+01 6.1809169334231155e+00 1 0 0
4807 1 4.0415848986773710e+00 1.7093181819680694e+01 5.2455084145082154e+00 1 1 1
1678 1 4.7655394737147452e+00 1.9555674187440694e+01 6.2049206877575314e+00 1 -1 1
1714 1 7.1974436569265476e+00 1.9809330502993401e+01 5.3244104929721514e+00 2 0 1
5126 1 8.5043753167162635e+00 1.7944633535734077e+01 6.5509541021795936e+00 -1 3 0
3898 1 1.0857355806928030e+01 1.7834840519105263e+01 5.4409147760851795e+00 0 0 1
2145 1 5.6407382582868815e-02 7.8816795088925753e+00 1.0066923268101938e+01 0 0 0
1459 1 3.3063537776734133e+00 2.1774117823790359e+01 5.4457718207293908e+00 0 2 1
5300 1 8.2598564936055285e-01 2.1207140866344602e+01 6.0485773478266456e+00 2 -1 0
1737 1 4.3016115733270341e+00 2.4180852328201315e+01 6.6245322955189412e+00 1 2 0
1577 1 1.2121178317316442e+01 2.0355122213863922e+01 8.6919833575801366e+00 2 2 1
6574 1 7.8748591083872901e+00 2.2065941288544643e+01 6.2040315796189418e+00 1 -2 1
2183 1 1.0474896173171800e+01 2.2362929447715544e+01 5.3707535205116752e+00 -1 0 0
1448 1 1.7861622696672317e+00 2.3655880959761639e+01 1.0224003261784269e+01 -2 -2 1
3180 1 1.0794807945947256e+00 3.4173874303328837e+00 1.0030235685212151e+01 2 0 0
3447 1 3.3113710167281876e+00 3.8335111632190704e+00 8.9385598833890310e+00 2 -2 1
1835 1 4.8721424476092361e+00 1.7500243684354526e+00 1.0271535120805272e+01 0 2 1
5367 1 7.3320056065110855e+00 2.2344515862413616e+00 8.9103157902514685e+00 1 1 0
2301 1 6.0417210194782038e+00 2.1521301783442127e+01 9.8855364166608233e+00 -1 -1 1
3783 1 2.3998131515169869e+00 8.6032572201361361e+00 8.9743982422341535e+00 1 -1 0
1320 1 6.5640041167851164e+00 2.4157462039451769e+01 2.4931778549182120e+00 3 0 1
3721 1 3.9907054858694826e+00 5.9953533390615874e+00 1.0071102359928259e+01 1 -1 0
3178 1 6.5959246441764812e+00 6.3750132482205366e+00 8.9753076592269974e+00 3 0 1
6601 1 8.0630999784701238e+00 4.2785541926882109e+00 1.0299900708280111e+01 1 -2 1
3847 1 1.1336318134578907e+01 6.5596477248231118e+00 1.0039364426010351e+01 -2 1 0
3533 1 1.0497596340844920e+01 4.4828989046102254e+00 8.9413276209161179e+00 -2 0 0
504 1 3.7016044622684725e+00 1.0616896785875356e+01 1.0090599669980627e+01 0 2 0
3232 1 6.2170399391280906e+00 1.0578167964656638e+01 9.1950385305768680e+00 0 1 1
5413 1 7.5170588531974083e+00 8.5562954371206086e+00 1.0177205177979372e+01 3 -1 0
5531 1 1.0179257854259379e+01 8.7687495432005118e+00 9.3356246152630558e+00 1 2 0
3524 1 1.1051619655073882e+01 1.1249961582438658e+01 1.0174097009440409e+01 0 0 0
5060 1 2.3650578032070739e+00 1.2381148852415766e+01 9.1378124091036952e+00 -3 -1 1
126 1 2.8987719072906208e+00 1.4742327647189130e+01 9.8797190203350382e+00 0 -1 0
5068 1 6.9203181572128925e+00 1.2938929027462532e+01 1.0390896394128283e+01 0 -1 0
388 1 5.5869005076982061e+00 1.5201741832432198e+01 8.9019572999946153e+00 3 -2 0
1488 1 1.0181722825470505e+01 1.5691285213000709e+01 1.0147979054663196e+01 0 1 1
5081 1 9.3477630324665668e+00 1.3278187378892158e+01 9.2599906568097037e+00 1 1 1
4783 1 2.3322053430573173e+00 1.9298075323838219e+01 9.9827321439132621e+00 0 -1 1
3682 1 1.5866337022367614e+00 1.6963744986232751e+01 8.9340718025899264e+00 2 1 0
604 1 4.8026996233920114e+00 1.9540795898068783e+01 8.9012474339544951e+00 0 -3 1
6557 1 6.3371987104733511e+00 1.7533009819756913e+01 1.0023568417739185e+01 -1 1 1
1387 1 9.8559333616427445e+00 2.0485036965266726e+01 1.0051614750245236e+01 -2 1 1
356 1 8.8839837566430297e+00 1.8092655893082259e+01 9.3296581848153242e+00 -2 1 0
3475 1 8.2925417101543797e+00 2.2154530488389764e+01 8.9445088801649035e+00 0 1 1
3620 1 7.3523541013813321e-01 2.1422757627074109e+01 8.9179846785121644e+00 1 2 0
242 1 1.1632309533171544e+01 4.5589352718460313e-01 6.0084636865924272e+00 -1 1 0
3288 1 9.2458899081966006e+00 2.3479162841566265e-01 1.0160790047072526e+01 -1 0 0
1637 1 1.1365294147826562e+01 3.8236822547643179e-01 8.8480283994213753e+00 0 0 1
506 1 1.1972853447067237e+01 2.0298694939955681e+01 5.9536334791269310e+00 0 1 0
1789 1 9.0750732700544336e+00 2.4490127605432509e+01 1.7968404791757284e+00 2 -1 0
4896 1 2.4542510525242816e+00 1.3666970243306611e+00 1.3785022727791015e+01 1 0 1
182 1 1.1771855187029072e+01 2.0223897957465507e+01 2.0227092312114593e+01 1 1 0
6750 1 5.6313602967878102e+00 4.0540982966643604e+00 1.3904761721061163e+01 -1 2 1
3539 1 4.9037564962575644e+00 1.6231670358044969e+00 1.2965232091416089e+01 0 1 0
2119 1 9.7384596907818057e+00 2.4842437747118802e+00 1.3729289106220307e+01 -1 1 0
5480 1 1.7295890541436503e+00 5.7110710058724852e+00 1.3869730823603362e+01 2 2 0
6421 1 1.7142709661932429e+00 5.6092919838315725e+00 1.6529184960039522e+01 3 2 1
2058 1 8.5888688012822119e+00 2.4038910651570767e+01 2.3670213681640089e+01 1 2 0
6472 1 1.1716833451881959e+01 1.3520521086420203e+01 1.6490342537343349e+01 -1 0 1
1481 1 7.9730906454233015e+00 4.1214060362124281e+00 1.2895999019111891e+01 1 -1 0
603 1 9.2276931483035334e+00 6.3589055471995533e+00 1.3789509301471339e+01 -1 -1 1
3954 1 1.1651614585138155e+01 6.5549743451379188e+00 1.2897479341634991e+01 1 -2 1
1871 1 1.1781982659742105e+00 9.9963219885256098e+00 1.3946929109652322e+01 1 0 0
1500 1 9.7840393142224968e+00 1.4824229862002353e+01 2.3080222981232961e+01 2 1 0
1354 1 5.4191437822055377e+00 8.4988831802535341e+00 1.3693776978659834e+01 0 0 1
5164 1 7.9775918266443808e+00 8.6730755641202268e+00 1.2839984455890200e+01 1 2 0
3484 1 8.6156661484329469e+00 1.0967958674653344e+01 1.3792921097285646e+01 -2 3 0
5214 1 1.1015179774006542e+01 1.1316285956196115e+01 1.2674757461112101e+01 -1 -1 1
1850 1 3.1612222494944309e+00 1.4766315849812587e+01 1.2890055930050204e+01 0 1 0
1371 1 6.3758761748420811e-01 1.4218454159246374e+01 1.3513995845262651e+01 -1 0 1
6719 1 7.1023509435507757e+00 1.2937762575858462e+01 1.2905351069080320e+01 1 1 1
257 1 4.7217347345372698e+00 1.2796007525958663e+01 1.3820862937828965e+01 1 -1 0
1686 1 7.8373421218401615e+00 1.5425564577025080e+01 1.3704563024656206e+01 0 0 1
3618 1 7.6762032249951275e+00 3.5804043634871610e+00 2.3839557100406658e+01 -2 -1 0
5405 1 1.0629099324828182e+01 1.5690155146727639e+01 1.2751211888526141e+01 0 0 0
2280 1 4.0385071941357307e+00 1.7068237305094161e+01 1.3799078218887738e+01 2 -2 1
366 1 2.5413544338185345e+00 1.9092292748768322e+01 1.2657922398216412e+01 1 1 0
3255 1 6.3982899824935817e+00 1.7431985337881414e+01 1.2693304219675992e+01 1 1 1
1931 1 6.7809485914234733e+00 1.9751796079841483e+01 1.3822583160683140e+01 0 1 0
6734 1 1.1210711014868380e+01 1.8231755205795391e+01 1.3581954040652718e+01 1 2 1
6618 1 9.5110989060015676e+00 2.0238519080575390e+01 1.2730160590937160e+01 0 1 1
503 1 3.2366238710127204e+00 2.1335242747162663e+01 1.3424192490409919e+01 0 -1 0
168 1 1.7686476690987736e+00 2.3400835352196005e+01 1.2741056698224972e+01 1 -1 0
2182 1 5.9536810215436136e+00 2.1676637006704745e+01 1.2656260750825783e+01 2 -3 0
1680 1 3.1125513577866672e+00 7.8785368807707918e+00 2.3760744945839885e+01 -1 1 0
3316 1 1.0692582239254953e+01 2.2361178428157544e+01 1.4174120780985961e+01 1 0 1
141 1 4.9778714499378030e+00 2.7230251783011026e+00 2.3799185899480246e+01 2 0 0
1416 1 1.0011699492637050e+01 2.2187120807497575e+01 1.6841254118536007e+01 0 1 1
3498 1 2.3223601121518529e+00 1.5293493040455308e+00 1.6668126814615121e+01 -1 -3 0
2207 1 3.4079701998679237e+00 3.9930832990986111e+00 2.0346598644506592e+01 -1 2 1
5597 1 3.3911867344985041e+00 4.0528904465303617e+00 1.7486078159141677e+01 1 -2 1
533 1 1.0971878532017049e+01 4.6587405926460773e-01 2.0319712759195912e+01 0 -1 1
6546 1 1.0837512168137911e+00 2.3334898187004175e+01 2.3345997901922058e+01 0 1 1
5075 1 7.4705481786322405e+00 2.1848191731112330e+00 1.7492591509173156e+01 2 0 1
1310 1 5.8276285705811617e+00 4.3138141342379983e+00 1.6576867449541901e+01 1 0 0
3058 1 7.3014584653621917e+00 2.2809140598612578e+00 2.0324416247109127e+01 0 0 1
4866 1 9.6748085099388046e+00 2.2684584634077272e+00 1.6345032423387455e+01 1 0 1
5454 1 4.9289215663865377e-01 1.4384733920077503e+01 1.6197225104136194e+01 2 1 0
319 1 2.7397401319915282e+00 8.0166605324788982e+00 2.0148050312136416e+01 0 3 0
3408 1 2.4958330402695816e+00 7.9913626240759248e+00 1.7137622764849993e+01 0 -2 1
1717 1 6.7790888631024178e+00 6.6355125471969885e+00 1.7603295618759095e+01 0 1 1
2297 1 9.3704577734027161e+00 6.7955185773723965e+00 1.6617842157986001e+01 0 1 1
5087 1 1.0572721191552043e+01 4.7093711112930174e+00 1.7394245601075482e+01 1 1 1
3904 1 1.1197033232525173e+00 1.0185195251491571e+01 1.6635462110183841e+01 0 -1 0
2034 1 5.0545883281883341e+00 8.3132494170114644e+00 1.6268411384758931e+01 2 1 0
6489 1 6.0666216919059170e+00 1.0625111068444079e+01 1.7528188067952204e+01 0 0 1
6509 1 6.4111508644284321e+00 9.7250316380084048e+00 2.0229022340660514e+01 0 -1 1
1927 1 8.6874077557285947e+00 1.1267832971192567e+01 1.6841923761797560e+01 3 -1 0
2072 1 1.0268446953221117e+01 9.2520817036316210e+00 1.7519466458158099e+01 -1 1 0
508 1 3.0900241634453902e+00 4.5015739677657791e+00 2.3710539136107393e+01 1 0 1
463 1 1.7200843678691005e+00 1.2563754241619311e+01 1.7257950779322755e+01 -2 -1 1
5077 1 4.3586774341482490e+00 1.2688664901025577e+01 1.6683860281889977e+01 -1 2 0
3013 1 5.0753978935012851e+00 1.5085556689577162e+01 1.7769535036727401e+01 3 -1 1
6397 1 7.6041463086707051e+00 1.5694086204624719e+01 1.6594452629325907e+01 2 0 1
3220 1 1.0702767587179189e-01 7.5027708439646021e+00 1.2870949649573415e+01 2 1 0
6745 1 9.2778104211418526e+00 1.4134980763212061e+01 1.7822420788444639e+01 0 0 0
5455 1 3.9977178190650147e+00 1.6964136095284452e+01 1.6402791947312732e+01 1 0 1
5338 1 1.4967352972786965e+00 1.6642135154940163e+01 1.7346957589004738e+01 3 2 0
5376 1 1.6303476218277673e+00 1.6396403605846199e+01 2.0054875822783110e+01 0 0 0
431 1 6.7547775796646343e+00 1.9685105802278461e+01 1.6519993452418898e+01 1 0 0
5186 1 4.0061019473063038e+00 1.9451150924696059e+01 1.7691526514592713e+01 -3 2 0
3906 1 1.1050847899001800e+01 1.8329470051534248e+01 1.6457956751084250e+01 0 1 1
111 1 8.6075979567631933e+00 1.7893565514046760e+01 1.7493701567172629e+01 0 0 0
5603 1 1.2129050115349388e+01 2.4723992694095411e+00 1.2339028757510315e+01 2 2 1
6608 1 3.8411255862939520e+00 1.0315811516513792e+01 1.2927670668419603e+01 -1 1 1
3007 1 2.7126008122514933e+00 2.1454304896459014e+01 1.6135792597226960e+01 0 -1 1
5198 1 3.9020352304947736e-01 2.1153116365392812e+01 1.7262316061835925e+01 2 1 0
1994 1 3.7566603434746693e+00 2.3733868641863403e+01 1.7231524352487170e+01 1 0 0
3129 1 8.9686295555702760e+00 1.9549474578677867e+01 2.4015434831306148e+01 -1 1 1
1670 1 7.5953989813402929e+00 2.2183096114578039e+01 1.7641341846274116e+01 -1 -1 0
5656 1 1.1896452297498368e+00 2.3475345966476162e+01 2.0525444140207266e+01 0 1 0
3581 1 7.0551484895939465e-01 3.4849117713206792e+00 2.1078659305810501e+01 0 1 0
5149 1 3.4930092371292182e-01 3.3350002708811823e+00 2.3568688241374989e+01 0 0 0
2051 1 4.9787179121513487e+00 1.8073211905065696e+00 2.1190671064396035e+01 -1 1 0
3510 1 8.8410863718230353e+00 2.4386144442120536e+01 2.0858726102912822e+01 1 0 0
6751 1 6.7158721049803241e+00 2.3987593560488623e+01 1.3718713892444795e+01 2 0 1
3062 1 1.1666421618953130e+01 1.3666943924969212e+01 1.3839141558845290e+01 1 1 1
5614 1 9.0943323179053035e+00 7.8389950434414005e-02 1.2848347911756111e+01 2 0 0
3109 1 3.5480781340953289e+00 2.3664873836586686e+01 1.9735034444919837e+01 -1 -1 1
9 1 5.2352571538492931e+00 2.1787270024544881e+01 2.1348353584756637e+01 2 -2 0
5542 1 7.6999179605436607e+00 2.2089673961292696e+01 2.0213865144328775e+01 -1 0 0
4846 1 4.2139632386871666e+00 6.3021096393383909e+00 2.1510551970467425e+01 -2 2 1
3287 1 6.8723199082289206e+00 6.7550536201871676e+00 2.0176321602476737e+01 0 0 0
3014 1 8.2577152855949674e+00 4.6385130757836173e+00 2.1086232757272054e+01 1 2 1
3480 1 1.0794812870780435e+01 4.9675287538642872e+00 2.0041800242548774e+01 1 1 0
3794 1 6.6639047161108544e-01 3.2752742623437774e+00 1.2828212118626773e+01 3 0 0
13 1 4.1990979669275443e+00 6.0699320622429305e+00 1.2754123514299467e+01 0 1 0
1843 1 1.1549734208432188e+01 1.8143713375944037e+00 2.3458413862031151e+01 0 -1 0
41 1 3.3169534577639959e+00 1.0404561440630134e+01 2.0850506323682701e+01 0 1 0
2299 1 1.2256897382072593e+01 2.6752503912760015e+00 2.0906944588248518e+01 -1 1 1
3117 1 1.0992289686048242e+01 9.3823841321102552e+00 2.0375875010691310e+01 1 0 1
2315 1 6.4819068773533619e+00 2.4183197996464443e+01 1.6355946590078304e+01 0 0 1
6394 1 2.2100350649628706e+00 1.2849750963757730e+01 1.9836435883031829e+01 1 4 0
6620 1 3.8057607502097235e+00 1.4929485076329284e+01 2.0664892885398068e+01 2 2 1
1580 1 1.0302216350507337e+01 1.5295842631432343e+01 2.0468086944517331e+01 0 0 1
3691 1 4.0906866136940323e+00 1.0382614564372352e+01 2.3352231118369801e+01 1 1 0
2082 1 1.5702042769605165e+00 1.8956240917303731e+01 2.0956483685648937e+01 1 0 0
3729 1 2.1951197396641695e+00 1.8799855860635603e+01 2.3509850790790548e+01 -1 2 0
5349 1 4.2879771415280112e+00 1.9481537022091125e+01 2.0241796182057353e+01 1 -1 0
252 1 5.7799769633218565e+00 1.7392990489378988e+01 2.0981503740371494e+01 0 1 0
3145 1 5.5647063301139763e+00 1.7205982542717607e+01 2.3640121643898350e+01 -1 1 0
1755 1 1.1980353823511095e+01 7.0972348769178000e+00 2.1344714302286416e+01 1 0 1
1758 1 3.5845670041530200e+00 1.4798258304030226e+01 2.3365212859744929e+01 0 2 0
5472 1 8.4398820454603882e+00 1.7570494089938318e+01 2.0176983235515902e+01 -2 -1 0
1436 1 9.0356702161078246e+00 1.9963934187638955e+01 2.1092997965747784e+01 2 -1 1
1613 1 2.8054580305605620e-01 2.1077209159316844e+01 1.9786214876584701e+01 -1 -1 1
3642 1 4.8883066636339043e+00 1.9628448146311310e+01 2.3937490715677626e+01 1 -1 0
1337 1 1.1222496705429641e+01 4.6342388428210102e-01 1.7555340232296402e+01 -3 1 1
4928 1 1.1738778434156425e+01 2.0074635925016629e+01 2.4051396271686421e+01 0 -2 0
3548 1 1.1873006212480096e+01 2.0520288265903215e+01 1.7447463099670244e+01 1 0 0
5291 1 9.3256388024122110e+00 2.4293548249890499e+01 1.2777373167190685e+01 2 1 0
3070 1 8.4986068596258999e+00 2.5758482079758804e-01 2.1146922796896160e+01 1 1 1
6570 1 8.6807297795768683e+00 1.0959927932448932e+00 2.3788984811041402e+01 -1 -1 1
5688 1 3.9701228161717261e+00 2.2963255807369436e+01 2.3939539884316133e+01 0 1 1
94 1 1.1127066515432915e-01 7.7849405494841433e+00 2.3408829460250551e+01 0 0 0
3900 1 1.1560950163415384e-01 7.8911762240411196e+00 2.0814641079002900e+01 1 1 0
6677 1 1.1305969423994918e+01 2.4336307378449916e+01 1.7476407257329107e+01 1 0 1
5343 1 7.2122123243116194e+00 2.1522068891691401e+01 2.3847574469536021e+01 2 2 0
363 1 8.1583354257508951e+00 1.6872327007986755e+01 2.3955072176544061e+01 0 -1 0
623 2 0.0000000000000000e+00 2.8417180249513345e+00 2.6842841880678360e+01 0 0 0
625 2 0.0000000000000000e+00 0.0000000000000000e+00 2.6842841880678360e+01 0 0 0
627 2 1.2305000000000001e+00 7.1042950623783474e-01 2.6842841880678360e+01 0 0 0
634 2 1.2305000000000001e+00 2.1312885187134998e+00 2.6842841880678360e+01 0 0 0
636 2 2.4610000000000003e+00 2.8417180249513345e+00 2.6842841880678360e+01 0 0 0
638 2 2.4610000000000003e+00 0.0000000000000000e+00 2.6842841880678360e+01 0 0 0
640 2 3.6915000000000004e+00 7.1042950623783474e-01 2.6842841880678360e+01 0 0 0
655 2 3.6914999999999996e+00 2.1312885187134998e+00 2.6842841880678360e+01 0 0 0
657 2 4.9220000000000006e+00 2.8417180249513332e+00 2.6842841880678360e+01 0 0 0
659 2 4.9220000000000006e+00 0.0000000000000000e+00 2.6842841880678360e+01 0 0 0
661 2 6.1524999999999999e+00 7.1042950623783407e-01 2.6842841880678360e+01 0 0 0
684 2 6.1524999999999999e+00 2.1312885187134989e+00 2.6842841880678360e+01 0 0 0
686 2 7.3829999999999991e+00 2.8417180249513345e+00 2.6842841880678360e+01 0 0 0
688 2 7.3829999999999991e+00 0.0000000000000000e+00 2.6842841880678360e+01 0 0 0
690 2 8.6134999999999984e+00 7.1042950623783407e-01 2.6842841880678360e+01 0 0 0
721 2 8.6134999999999984e+00 2.1312885187135002e+00 2.6842841880678360e+01 0 0 0
723 2 9.8440000000000012e+00 2.8417180249513332e+00 2.6842841880678360e+01 0 0 0
725 2 9.8440000000000012e+00 0.0000000000000000e+00 2.6842841880678360e+01 0 0 0
727 2 1.1074500000000002e+01 7.1042950623783330e-01 2.6842841880678360e+01 0 0 0
766 2 1.1074500000000002e+01 2.1312885187135002e+00 2.6842841880678360e+01 0 0 0
279 1 8.3615800690586184e+00 6.1748681292439747e+00 3.5814430983086226e+01 1 -2 -1
628 2 0.0000000000000000e+00 7.1042950623783341e+00 2.6842841880678360e+01 0 0 0
630 2 0.0000000000000000e+00 4.2625770374269996e+00 2.6842841880678360e+01 0 0 0
632 2 1.2305000000000001e+00 4.9730065436648339e+00 2.6842841880678360e+01 0 0 0
647 2 1.2305000000000001e+00 6.3938655561404980e+00 2.6842841880678360e+01 0 0 0
649 2 2.4610000000000003e+00 7.1042950623783341e+00 2.6842841880678360e+01 0 0 0
651 2 2.4610000000000003e+00 4.2625770374269996e+00 2.6842841880678360e+01 0 0 0
653 2 3.6914999999999996e+00 4.9730065436648339e+00 2.6842841880678360e+01 0 0 0
676 2 3.6914999999999996e+00 6.3938655561404980e+00 2.6842841880678360e+01 0 0 0
678 2 4.9220000000000006e+00 7.1042950623783341e+00 2.6842841880678360e+01 0 0 0
680 2 4.9220000000000006e+00 4.2625770374269978e+00 2.6842841880678360e+01 0 0 0
682 2 6.1524999999999999e+00 4.9730065436648339e+00 2.6842841880678360e+01 0 0 0
713 2 6.1524999999999999e+00 6.3938655561404980e+00 2.6842841880678360e+01 0 0 0
715 2 7.3830000000000009e+00 7.1042950623783341e+00 2.6842841880678360e+01 0 0 0
717 2 7.3829999999999991e+00 4.2625770374269996e+00 2.6842841880678360e+01 0 0 0
719 2 8.6135000000000002e+00 4.9730065436648339e+00 2.6842841880678360e+01 0 0 0
758 2 8.6135000000000002e+00 6.3938655561404980e+00 2.6842841880678360e+01 0 0 0
760 2 9.8440000000000012e+00 7.1042950623783341e+00 2.6842841880678360e+01 0 0 0
762 2 9.8440000000000012e+00 4.2625770374270004e+00 2.6842841880678360e+01 0 0 0
764 2 1.1074500000000002e+01 4.9730065436648339e+00 2.6842841880678360e+01 0 0 0
805 2 1.1074500000000002e+01 6.3938655561404980e+00 2.6842841880678360e+01 0 0 0
641 2 0.0000000000000000e+00 1.1366872099805333e+01 2.6842841880678360e+01 0 0 0
643 2 0.0000000000000000e+00 8.5251540748539991e+00 2.6842841880678360e+01 0 0 0
645 2 1.2305000000000001e+00 9.2355835810918343e+00 2.6842841880678360e+01 0 0 0
668 2 1.2305000000000001e+00 1.0656442593567498e+01 2.6842841880678360e+01 0 0 0
670 2 2.4610000000000003e+00 1.1366872099805333e+01 2.6842841880678360e+01 0 0 0
672 2 2.4610000000000003e+00 8.5251540748539991e+00 2.6842841880678360e+01 0 0 0
674 2 3.6915000000000004e+00 9.2355835810918343e+00 2.6842841880678360e+01 0 0 0
705 2 3.6914999999999996e+00 1.0656442593567499e+01 2.6842841880678360e+01 0 0 0
707 2 4.9220000000000006e+00 1.1366872099805333e+01 2.6842841880678360e+01 0 0 0
709 2 4.9220000000000006e+00 8.5251540748539991e+00 2.6842841880678360e+01 0 0 0
711 2 6.1524999999999999e+00 9.2355835810918343e+00 2.6842841880678360e+01 0 0 0
750 2 6.1524999999999999e+00 1.0656442593567499e+01 2.6842841880678360e+01 0 0 0
752 2 7.3829999999999991e+00 1.1366872099805333e+01 2.6842841880678360e+01 0 0 0
754 2 7.3830000000000009e+00 8.5251540748539991e+00 2.6842841880678360e+01 0 0 0
756 2 8.6134999999999984e+00 9.2355835810918343e+00 2.6842841880678360e+01 0 0 0
797 2 8.6134999999999984e+00 1.0656442593567498e+01 2.6842841880678360e+01 0 0 0
799 2 9.8440000000000012e+00 1.1366872099805333e+01 2.6842841880678360e+01 0 0 0
801 2 9.8440000000000012e+00 8.5251540748539956e+00 2.6842841880678360e+01 0 0 0
803 2 1.1074500000000002e+01 9.2355835810918343e+00 2.6842841880678360e+01 0 0 0
844 2 1.1074500000000002e+01 1.0656442593567498e+01 2.6842841880678360e+01 0 0 0
846 2 1.2304999999999998e+01 1.1366872099805333e+01 2.6842841880678360e+01 0 0 0
662 2 0.0000000000000000e+00 1.5629449137232333e+01 2.6842841880678360e+01 0 0 0
664 2 0.0000000000000000e+00 1.2787731112280996e+01 2.6842841880678360e+01 0 0 0
666 2 1.2305000000000001e+00 1.3498160618518829e+01 2.6842841880678360e+01 0 0 0
697 2 1.2305000000000001e+00 1.4919019630994494e+01 2.6842841880678360e+01 0 0 0
699 2 2.4610000000000003e+00 1.5629449137232328e+01 2.6842841880678360e+01 0 0 0
701 2 2.4610000000000003e+00 1.2787731112280996e+01 2.6842841880678360e+01 0 0 0
703 2 3.6915000000000004e+00 1.3498160618518829e+01 2.6842841880678360e+01 0 0 0
742 2 3.6915000000000004e+00 1.4919019630994494e+01 2.6842841880678360e+01 0 0 0
744 2 4.9220000000000006e+00 1.5629449137232333e+01 2.6842841880678360e+01 0 0 0
746 2 4.9220000000000006e+00 1.2787731112280996e+01 2.6842841880678360e+01 0 0 0
748 2 6.1524999999999990e+00 1.3498160618518829e+01 2.6842841880678360e+01 0 0 0
789 2 6.1524999999999990e+00 1.4919019630994494e+01 2.6842841880678360e+01 0 0 0
791 2 7.3829999999999991e+00 1.5629449137232333e+01 2.6842841880678360e+01 0 0 0
793 2 7.3829999999999991e+00 1.2787731112280996e+01 2.6842841880678360e+01 0 0 0
795 2 8.6135000000000002e+00 1.3498160618518835e+01 2.6842841880678360e+01 0 0 0
836 2 8.6135000000000002e+00 1.4919019630994494e+01 2.6842841880678360e+01 0 0 0
838 2 9.8440000000000012e+00 1.5629449137232328e+01 2.6842841880678360e+01 0 0 0
840 2 9.8440000000000012e+00 1.2787731112280996e+01 2.6842841880678360e+01 0 0 0
842 2 1.1074500000000002e+01 1.3498160618518829e+01 2.6842841880678360e+01 0 0 0
878 2 1.1074500000000002e+01 1.4919019630994494e+01 2.6842841880678360e+01 0 0 0
691 2 0.0000000000000000e+00 1.9892026174659328e+01 2.6842841880678360e+01 0 0 0
693 2 0.0000000000000000e+00 1.7050308149707998e+01 2.6842841880678360e+01 0 0 0
695 2 1.2305000000000001e+00 1.7760737655945832e+01 2.6842841880678360e+01 0 0 0
734 2 1.2305000000000001e+00 1.9181596668421495e+01 2.6842841880678360e+01 0 0 0
736 2 2.4610000000000003e+00 1.9892026174659328e+01 2.6842841880678360e+01 0 0 0
738 2 2.4610000000000003e+00 1.7050308149707998e+01 2.6842841880678360e+01 0 0 0
740 2 3.6914999999999996e+00 1.7760737655945832e+01 2.6842841880678360e+01 0 0 0
781 2 3.6914999999999996e+00 1.9181596668421495e+01 2.6842841880678360e+01 0 0 0
3870 1 6.5088920729756139e-01 2.1026481685046942e+01 2.4580331509908621e+01 1 -1 0
783 2 4.9220000000000006e+00 1.9892026174659328e+01 2.6842841880678360e+01 0 0 0
785 2 4.9220000000000006e+00 1.7050308149707998e+01 2.6842841880678360e+01 0 0 0
787 2 6.1524999999999999e+00 1.7760737655945832e+01 2.6842841880678360e+01 0 0 0
828 2 6.1524999999999999e+00 1.9181596668421495e+01 2.6842841880678360e+01 0 0 0
830 2 7.3829999999999991e+00 1.9892026174659328e+01 2.6842841880678360e+01 0 0 0
832 2 7.3830000000000009e+00 1.7050308149707998e+01 2.6842841880678360e+01 0 0 0
216 1 2.2908844806072102e+00 1.1863766091388257e+01 2.4351061029487877e+01 0 0 0
834 2 8.6134999999999984e+00 1.7760737655945832e+01 2.6842841880678360e+01 0 0 0
870 2 8.6135000000000002e+00 1.9181596668421495e+01 2.6842841880678360e+01 0 0 0
872 2 9.8440000000000012e+00 1.9892026174659335e+01 2.6842841880678360e+01 0 0 0
874 2 9.8440000000000012e+00 1.7050308149707998e+01 2.6842841880678360e+01 0 0 0
876 2 1.1074500000000002e+01 1.7760737655945835e+01 2.6842841880678360e+01 0 0 0
904 2 1.1074500000000002e+01 1.9181596668421495e+01 2.6842841880678360e+01 0 0 0
908 2 1.2304999999999998e+01 1.7050308149707998e+01 2.6842841880678360e+01 0 0 0
1092 2 8.6134999999999984e+00 2.3444173705848499e+01 3.3219158119301369e+01 0 0 0
1093 2 9.8440000000000012e+00 2.4154603212086336e+01 3.3219158119301369e+01 0 0 0
728 2 0.0000000000000000e+00 2.4154603212086325e+01 2.6842841880678360e+01 0 0 0
730 2 0.0000000000000000e+00 2.1312885187134999e+01 2.6842841880678360e+01 0 0 0
732 2 1.2304999999999993e+00 2.2023314693372832e+01 2.6842841880678360e+01 0 0 0
773 2 1.2304999999999993e+00 2.3444173705848499e+01 2.6842841880678360e+01 0 0 0
775 2 2.4610000000000003e+00 2.4154603212086325e+01 2.6842841880678360e+01 0 0 0
777 2 2.4610000000000003e+00 2.1312885187134995e+01 2.6842841880678360e+01 0 0 0
779 2 3.6914999999999996e+00 2.2023314693372832e+01 2.6842841880678360e+01 0 0 0
820 2 3.6915000000000004e+00 2.3444173705848499e+01 2.6842841880678360e+01 0 0 0
822 2 4.9220000000000006e+00 2.4154603212086325e+01 2.6842841880678360e+01 0 0 0
824 2 4.9220000000000006e+00 2.1312885187134995e+01 2.6842841880678360e+01 0 0 0
826 2 6.1524999999999990e+00 2.2023314693372832e+01 2.6842841880678360e+01 0 0 0
862 2 6.1524999999999999e+00 2.3444173705848499e+01 2.6842841880678360e+01 0 0 0
864 2 7.3830000000000009e+00 2.4154603212086336e+01 2.6842841880678360e+01 0 0 0
866 2 7.3829999999999991e+00 2.1312885187134999e+01 2.6842841880678360e+01 0 0 0
1095 2 1.1074500000000002e+01 2.2023314693372832e+01 3.3219158119301369e+01 0 0 0
868 2 8.6135000000000002e+00 2.2023314693372832e+01 2.6842841880678360e+01 0 0 0
896 2 8.6134999999999984e+00 2.3444173705848499e+01 2.6842841880678360e+01 0 0 0
898 2 9.8440000000000012e+00 2.4154603212086336e+01 2.6842841880678360e+01 0 0 0
900 2 9.8440000000000012e+00 2.1312885187134999e+01 2.6842841880678360e+01 0 0 0
902 2 1.1074500000000002e+01 2.2023314693372832e+01 2.6842841880678360e+01 0 0 0
922 2 1.1074500000000002e+01 2.3444173705848499e+01 2.6842841880678360e+01 0 0 0