LAMMPS data file via write_data, version 16 Mar 2018, timestep = 100000

6768 atoms
2 atom types

0.0000000000000000e+00 4.9219999999999999e+01 xlo xhi
0.0000000000000000e+00 4.9019635930410494e+01 ylo yhi
-2.4356827105002310e-01 6.0305568271051612e+01 zlo zhi

Masses

1 18.015
2 12.01

Atoms # atomic

2089 1 1.7335152145956230e+00 8.4121060920415647e-01 2.2737573963201769e+00 -1 1 0
307 1 2.3076456636630023e+00 3.8439717392054193e+00 2.1783504930132547e+00 2 -1 0
3786 1 5.0332800815078445e+00 3.2327148659409475e+00 2.3211520945162984e+00 1 -1 0
186 1 5.5424762741920741e+00 1.3704916544217260e+01 6.8952933109939829e-02 0 0 0
2290 1 8.8949683795202972e-01 2.4404706008253388e+01 6.3492812386840356e+00 1 -1 1
3350 1 5.5585342638100519e+00 2.0570409826436457e+01 4.3783954280191895e-01 0 1 0
1545 1 9.1750325701452358e+00 2.0363650576563566e+00 2.0802669107877190e+00 0 0 1
3554 1 1.9754391770159357e-01 1.2496600589159396e+01 4.2565154374144827e+00 1 0 0
3401 1 1.1242998592713425e+01 2.1631815721171455e+00 9.7310141316518912e+00 2 0 1
54 1 7.7141316257429970e-01 9.9895615869132914e+00 1.6038356186419929e+00 1 0 1
3194 1 1.1778650237082509e+01 2.3526930118019536e+01 1.1423973309045661e+00 -1 1 1
3122 1 4.3058503740608902e+00 2.5261426493307981e-01 1.0968765578816226e+01 2 1 1
607 1 3.2194231569138636e+00 6.4621661132075330e+00 3.4549471977282535e+00 0 -1 1
128 1 4.7909955316465442e+00 8.8226142493876072e+00 2.4453693757820574e+00 0 0 0
352 1 7.3012166919456272e+00 2.4452180339719007e+01 7.6234916783818418e+00 1 0 0
2018 1 8.9953949940647178e+00 6.9092381142171284e+00 2.4225833224531050e+00 -1 1 0
3039 1 3.3765380281170460e-01 5.0891863103119865e+00 7.5811467755257267e-01 1 0 1
5451 1 1.1084329516395541e+00 7.5855258752350050e+00 3.3048384862329416e-01 1 1 0
2179 1 3.3586770852157768e+00 1.1084463897847984e+01 1.9703753657658059e+00 1 1 0
3262 1 3.7678839530133074e-01 8.7032654755392240e+00 1.0946768429066644e+01 0 1 1
2014 1 5.2877256578749687e+00 6.7108240257264651e+00 3.8020527776093482e-01 0 0 0
4928 1 7.4932536716191178e+00 9.2098356065680580e+00 1.5724445220684600e+00 0 0 0
2099 1 9.5357923872792529e+00 1.1471037525286780e+01 3.6837562416529501e-01 0 0 0
3518 1 1.3853484371381584e+00 1.6667730217665166e+01 8.8142446734630386e+00 1 0 1
5338 1 3.3065984708719167e+00 1.7537825604571601e+01 1.2193473559608927e+00 1 2 0
2321 1 2.7811227272008838e+00 1.5359302205780249e+01 3.3306436597074502e+00 0 0 0
403 1 9.2940883970459538e+00 6.1948663609811794e+00 1.1609869760347658e+01 2 1 0
6595 1 5.6014711947438398e+00 1.5070853972128415e+01 2.5098311619512081e+00 0 0 1
258 1 7.0308699043243070e+00 1.7304640978784345e+01 3.0667344957813354e+00 0 1 0
3737 1 9.5178006982554209e+00 1.4088893091834487e+01 8.0482255625059942e+00 0 1 0
4938 1 3.3681250497012455e-01 1.1707636500453370e+01 1.0395571029610252e+01 0 -1 1
5142 1 8.5187353479278247e+00 1.6411547468262352e+01 9.6839500926017550e+00 0 0 1
106 1 5.0411450700699811e+00 1.9396296976156666e+01 2.6564285570910218e+00 0 0 0
466 1 4.4473784722618150e+00 2.1892615085363254e+01 3.8379487482356627e+00 0 0 1
5140 1 8.6094443956055837e+00 1.7695404376703905e+01 9.5830568799514393e-01 0 -1 1
6546 1 5.9577541457293375e+00 5.5761214037592577e-01 2.6470713035766198e+00 0 1 1
3066 1 1.0083150846484541e+01 2.1476571933095254e+01 9.6910215279649048e+00 0 1 1
5181 1 1.1280450766307931e+01 1.8860812780157708e+01 6.7797861436856943e-01 0 0 0
5059 1 8.8052916395672387e+00 2.1488432565092104e+01 5.1411780423033591e+00 0 -1 1
3634 1 1.1833672210218564e+01 9.9136850690746190e+00 4.9915848676994230e+00 0 1 0
5300 1 2.0455914901918555e+00 2.2755474162538217e+01 2.2684048334075619e+00 1 0 0
1563 1 2.9201254379092334e+00 2.1378237400636028e+01 -1.7135764882380861e-02 1 0 0
256 1 1.0757255468198361e+01 9.5863668816684766e-01 5.6933949777095743e+00 0 0 0
3544 1 6.8283253765489125e+00 2.2721496525323495e+01 3.3504193680377021e+00 1 1 0
5375 1 6.0389672086744350e-01 1.5158084477548725e+01 1.0158846627282954e+00 0 0 0
209 1 1.1734374852725395e+01 1.4698056789481120e+01 8.2665716586795512e-01 0 -1 0
160 1 1.1787795855363552e+01 2.1108228098372823e+01 3.2978824940479785e+00 1 0 0
2057 1 8.2765654184777881e-01 2.2426842569848532e+01 4.7380904504403452e+00 2 0 0
5008 1 2.4855785024354984e+00 3.1201167094175188e+00 6.3279282530584666e+00 1 0 1
6491 1 5.0900897482344465e-01 1.9498946316396847e+01 5.2868832481001382e+00 1 -1 1
3270 1 1.1663539751542313e+01 7.5277813141186627e+00 1.3304430812707291e+00 -1 0 0
5327 1 5.8218911350790590e+00 1.8852649796793326e+00 6.2153341097472437e+00 1 1 0
6734 1 6.0068260750721265e+00 4.4056492102754774e+00 4.5871558957497554e+00 1 2 1
4746 1 1.0693677357852087e+01 3.4905050578176753e+00 4.1582638571862640e+00 0 1 1
1737 1 1.7647250351854809e+00 7.1465346224254125e+00 7.0315295699989822e+00 0 2 0
1383 1 5.9943876510834038e+00 6.3155219679703789e+00 7.9487413626734220e+00 0 0 1
1469 1 4.0216161736933946e+00 5.3720969237492486e+00 6.1100219821022783e+00 1 -1 1
3105 1 8.4529665760386923e+00 5.3300621342544758e+00 4.3347775650167577e+00 0 2 1
1810 1 1.1397814648974613e+01 1.2117722231754495e+01 8.5394663800944457e+00 1 -1 0
5287 1 2.9847542754904213e+00 1.2784256236590283e+01 4.3075550794809754e+00 0 1 0
3909 1 4.4447661545087378e+00 9.7577104540589694e+00 5.0595472616870758e+00 1 0 0
5652 1 7.2520558152478305e+00 1.0603753799853200e+01 4.1468610342882677e+00 0 0 1
3709 1 7.2061826111730838e+00 1.3335988563987170e+01 4.1651552945282191e+00 1 0 0
3677 1 9.2301176442467199e+00 9.6614856253763897e+00 6.0920272235164603e+00 1 0 0
1323 1 1.2427365474660963e+00 1.9621620330013368e+01 9.8923446846507357e+00 1 0 1
2124 1 3.3592342484713895e+00 6.0497366341290115e-01 6.4287111095747980e+00 1 2 0
4730 1 1.5131982085935141e+00 2.3932410870772181e+01 8.8812410058275848e+00 -1 -1 1
6451 1 5.4720083550108045e+00 1.2444996320212661e+01 6.5863681783192680e+00 0 0 1
2129 1 4.3289275810549466e+00 1.6271647187419738e+01 8.5463064082981006e+00 0 0 1
3678 1 1.1443040254359911e+01 1.4075076563519666e+01 3.6406837584775689e+00 1 0 0
3242 1 9.4148568508496009e+00 1.4671158889850735e+01 5.3603426093210791e+00 0 1 1
211 1 3.2998727341815326e+00 1.4254628561433185e+01 6.9170366629660132e+00 0 0 0
3719 1 1.9605873977465453e+00 1.6342229644129986e+01 5.7019973900369259e+00 1 -1 0
513 1 3.1930384482281005e+00 1.8513643920255770e+01 6.3155992563644219e+00 0 -1 1
3344 1 4.1220245281023532e-01 7.1622489087366343e+00 4.1838638496201508e+00 0 0 0
3264 1 8.3015120686365922e+00 1.7153191050817082e+01 5.2553287955590919e+00 1 1 1
567 1 7.0396517804991454e+00 1.7648843038770547e+01 7.6251290616105658e+00 0 1 1
6757 1 5.9011631679382415e+00 2.0012512093155866e+01 7.9700846745282234e+00 2 1 1
1482 1 1.0089459511274304e+01 1.9089255926761705e+01 4.9465073437556564e+00 1 -1 1
5412 1 5.3582687364193413e+00 2.0806462167843836e+01 1.0560339533636602e+01 0 0 0
4917 1 4.0414930121709896e+00 2.1829836003176332e+01 6.4224282575157643e+00 1 0 1
2053 1 1.6240491082231494e+00 2.0903314909708115e+01 7.7950011896443101e+00 0 0 0
6658 1 4.7093658152345723e+00 2.4183543049057754e+01 7.7129093068970578e+00 0 1 0
4939 1 6.4117600956106025e-01 3.2311133602281581e+00 4.4672336871427616e+00 0 1 1
1984 1 8.1910567686382691e+00 2.1899095327055306e+01 7.8696205058673687e+00 -1 1 0
4988 1 1.0751638171098696e+01 2.3613706423990195e+01 4.6983399186617500e+00 1 0 1
3755 1 9.6676020525330166e+00 1.8890679234745814e+01 1.0885718908666822e+01 0 0 0
1662 1 7.7111917461788826e-01 1.5042480933322822e+00 9.9179790897347306e+00 0 0 0
1350 1 1.1065199376675555e+01 1.1548680400059506e+01 2.7937233819902265e+00 0 0 1
1321 1 6.7968974539693097e+00 2.3218689515377378e+00 8.5278591580664003e+00 1 0 1
340 1 7.0352432756146301e+00 2.3293313911034719e+01 3.9718267552061282e-01 0 1 0
2054 1 5.7911382666557873e+00 3.3578579852588804e+00 1.0770109077760422e+01 1 1 0
3852 1 9.5982068402553757e+00 2.9646054224523914e+00 7.6890079213989173e+00 0 1 0
604 1 1.1912645021200653e+01 2.3592261651552398e+01 1.0256905448250910e+01 -1 -1 1
327 1 4.2475990357619766e+00 1.2365312326575925e+01 1.1739832767357154e+01 0 0 0
369 1 2.2847227452819419e+00 5.9707556867625691e+00 1.0572469342728638e+01 0 1 0
3308 1 4.2154083339712001e+00 2.3293572007766841e+01 1.0383810164584490e+01 1 1 0
5686 1 4.9516946632767471e+00 6.0049156204840175e+00 1.0358558966881263e+01 0 -1 1
3097 1 3.4980355996160042e+00 1.9033989667882537e+01 1.1045661065878017e+01 0 1 1
229 1 8.5277157911500066e+00 7.0493880086366456e+00 6.5804821477595965e+00 1 0 0
1682 1 1.0728109097310595e+01 5.8317507035892779e+00 7.2698812152696899e+00 0 1 1
5522 1 1.0791464993855529e+01 7.4303018523063802e+00 9.6162021260978463e+00 0 0 0
5572 1 2.4440567253369996e+00 9.3612588662423271e+00 8.3230262429588997e+00 2 0 0
3605 1 4.2165560890320259e+00 9.6211618137965775e+00 1.0944608640048495e+01 1 1 0
228 1 5.3212502087789906e+00 9.0851536663784689e+00 7.8688306191018373e+00 0 1 0
249 1 7.2162547284464660e+00 9.9499107842425936e+00 9.6673536325648772e+00 2 0 0
6564 1 7.0869683923024756e+00 1.2458165003397614e+01 8.7342186194460467e+00 0 1 1
3406 1 1.0007582592082072e+01 9.6976574551136441e+00 8.8255884257292561e+00 0 1 1
1319 1 1.1581278240939920e+01 1.6161796397579344e+01 9.2554412701984159e+00 1 2 1
1478 1 1.5630668870194038e+00 1.2240082125627334e+01 8.2514609493568098e+00 1 1 1
6613 1 5.6225937361925853e+00 1.4355112620991797e+01 1.0394293045686382e+01 -2 0 1
3212 1 6.2354640788273423e+00 3.7565156342676298e+00 -5.4677721749763125e-02 1 1 1
5504 1 8.2550365119601157e+00 5.7298007941726361e+00 1.4034086929286593e-02 0 1 1
6537 1 4.8203918470018664e-01 5.7207578683139753e+00 8.8665273291093936e+00 1 0 1
6697 1 9.9126966004699180e-01 1.5986064127317997e+01 1.1721617360027833e+01 1 -1 1
5089 1 5.2506161899758235e+00 2.2419934186058615e-01 1.5581913372173858e+01 1 1 1
5033 1 7.3378195087980691e+00 2.3309305466890509e+00 1.5188749953203878e+01 -1 -1 0
6586 1 8.8972800152450233e+00 2.2792960582187046e+01 1.3138817426845044e+01 0 1 1
1673 1 1.1559578810075484e+01 3.1339291881792466e+00 1.4432042278189140e+01 1 1 0
1636 1 2.1846132834069829e+00 2.0714314728028025e+01 2.1184217711109191e+01 1 1 1
7 1 6.8575801968651606e-01 2.2998287049847203e+01 1.8614493126007680e+01 0 1 1
3762 1 3.3383233259198604e+00 3.6503354170003486e+00 1.7944467389591431e+01 0 -2 0
1438 1 1.3620620617550452e+00 5.9398748409185291e+00 1.3998694420717509e+01 1 2 1
1949 1 1.0186770675006901e+01 3.5921151375313798e+00 1.2008771365107846e+01 0 1 0
5359 1 4.7721182004768972e+00 3.8958856032092481e+00 1.5034789274731262e+01 1 -1 0
5077 1 5.7275476975776440e+00 6.2857198326124095e+00 1.4879387765794929e+01 0 1 0
1394 1 8.6433079267329234e+00 2.2286928775268184e+01 2.0725229852163380e+01 -1 0 1
1606 1 1.1345429879555075e+01 6.2452030042475846e+00 2.0139105874462949e+01 2 1 0
2036 1 1.0692081112631723e+01 1.9032432713748406e+01 2.0845034632776542e+01 -1 -1 0
4724 1 2.1440792784955729e+00 8.4821430343241122e+00 1.2893425300235782e+01 1 0 1
4796 1 5.4050773488504262e+00 1.2041218668233206e+01 1.4265805052289092e+01 1 0 1
2304 1 4.5729004955926058e+00 9.1520777619598590e+00 1.4670774021176818e+01 0 0 1
5106 1 1.1674587957403736e+01 1.0337468637339059e+01 1.3213186914533832e+01 -1 1 0
5608 1 1.0968939190948406e+01 1.2697563487832706e+01 1.4472148506205118e+01 2 1 0
5487 1 9.4514081324473658e+00 8.5748367755483876e+00 1.3362602609492599e+01 0 0 0
3780 1 1.7067069937378827e+00 1.3883365025564993e+01 1.4839997407382777e+01 1 0 0
1823 1 7.7025492769234907e+00 2.6686472325280981e+00 1.2454264555910974e+01 2 0 0
448 1 6.1084257761053111e+00 1.4536761376090185e+01 1.4734226299197594e+01 1 0 0
110 1 6.7372819448918344e+00 1.6144916020432248e+01 1.1993874479004186e+01 1 0 0
2216 1 1.1014489167654746e+01 6.7280445110856157e-01 1.8190286143937605e+01 0 2 0
4848 1 7.1131262781494105e+00 9.6493375699954314e+00 1.2701462486431273e+01 1 -1 1
220 1 1.8610211004762773e+00 2.2557244845957420e+01 1.2115042029667068e+01 2 0 0
1569 1 5.9898598373288559e-01 1.8467377581094059e+01 1.3378135341366900e+01 1 1 1
3651 1 6.1749835514856102e+00 1.8775290168639014e+01 1.3981060051645946e+01 2 0 0
397 1 3.7099787412995857e+00 1.7719969721373381e+01 1.4816220140566992e+01 1 0 0
3146 1 8.6873411849681546e+00 1.7505407340843064e+01 1.5049185581409963e+01 0 2 1
5103 1 1.0823306090734844e+01 1.8845273618999883e+01 1.5134266530783792e+01 1 -1 0
3043 1 1.1881412957446853e+01 7.6752881487863425e+00 1.7665340389175910e+01 0 1 1
577 1 2.7987748227023204e+00 2.0271711778535416e+01 1.3335161388223757e+01 0 0 1
5213 1 4.3409554959419232e+00 2.2533052873053158e+01 1.5532795398828730e+01 1 -1 1
4772 1 6.4271259315988241e+00 2.0697013068790064e+01 1.6001349072081730e+01 1 0 1
3697 1 8.4957768435454390e+00 2.2387311418397690e+01 1.5664509947382241e+01 1 0 0
3764 1 1.0360952506461755e+01 2.0896425225642020e+01 1.6665267043110706e+01 1 0 0
5003 1 7.7357044481893462e+00 2.0456614903544104e+01 1.1931683548744211e+01 1 0 1
2300 1 3.0977716122932142e+00 1.1015132243456993e+00 1.6984848984457969e+01 0 1 1
2256 1 7.2238386110367072e+00 2.2481906773253115e+00 1.9037540282841803e+01 0 1 1
42 1 3.1347644364563019e+00 1.7121217903720543e+00 2.0934340488676735e+01 -1 -1 0
3204 1 8.7440571487421401e+00 1.9282724497309911e+01 2.2891382843282504e+01 0 1 1
3564 1 1.0540778739305736e+01 2.8633402599404754e+00 1.6846523079289966e+01 0 -1 1
5164 1 8.0305388407572487e+00 3.9089825707310015e+00 1.7326414102430981e+01 0 1 0
6744 1 4.8864081502736258e+00 3.5397902359929900e+00 1.9768612320989753e+01 1 0 1
5705 1 2.2212150450541475e+00 5.8520547483107883e+00 1.6480939870054041e+01 1 0 0
3434 1 7.5846324416858657e+00 6.4499554239421011e+00 1.6855127973219066e+01 1 0 1
2104 1 6.3057383857779099e+00 7.3531843186658596e+00 1.8907530458575096e+01 0 0 1
5590 1 5.9858047315378382e+00 2.1357843821710993e+01 2.1626743222205139e+01 0 -1 1
1721 1 9.5228905931151022e+00 8.5590139605964008e+00 1.6223648273539887e+01 0 -1 0
3726 1 1.4496929097093385e+00 8.3912433415053957e+00 1.7231421139861379e+01 0 1 0
349 1 3.2266250514258070e+00 1.2265200158466865e+01 1.9697185334374645e+01 0 -1 0
5606 1 4.4281375102207070e+00 8.9480730546780940e+00 1.7685391025992097e+01 1 0 1
468 1 5.0939528541571866e+00 1.1952309275000022e+01 1.7372848923887066e+01 1 0 0
3940 1 8.1235206696275011e+00 1.0861214281607587e+01 1.7641296499193992e+01 1 0 1
1598 1 3.5573930114413344e+00 1.5307046191573294e+01 1.5969446162536439e+01 1 0 1
4966 1 3.4607644422816248e+00 1.4689276747068531e+01 1.8782788344792952e+01 1 1 1
2175 1 8.8445831327234767e+00 1.3279855820957437e+01 1.6337240657969048e+01 0 0 0
3215 1 6.3039304082836800e+00 1.5371109092630343e+01 1.9257157715825151e+01 0 1 0
3520 1 1.0752382019989035e+01 1.2414848835906010e+01 1.8637319340844392e+01 1 0 0
3443 1 1.9193426995765626e+00 1.9202610046665260e+01 1.6891198486208896e+01 0 0 0
5325 1 2.6631320341698927e+00 1.8628609659784512e+01 1.9421318669224839e+01 1 1 0
5362 1 8.4451548042015840e+00 1.5643576070652584e+01 1.7560872585085225e+01 0 1 0
2246 1 1.0428805107251591e+01 1.6350485209834581e+01 1.9972545227848844e+01 0 2 0
6397 1 1.6611571227095570e+00 2.1859655509804256e+01 1.6350486086434991e+01 1 0 1
5424 1 3.4970085740458767e+00 2.4087014632126884e+00 1.2721462835968211e+01 1 1 0
1852 1 2.9544209975625821e+00 2.3255826403642086e+01 1.9782772882526473e+01 1 1 0
2123 1 5.1997953506688486e+00 2.2544872874800983e+01 1.8803923085449046e+01 0 1 0
159 1 6.5903669322207614e+00 1.9924703752628542e+01 1.8577340341684938e+01 0 -1 0
5232 1 9.0841436853936433e+00 2.0293433122346151e+01 1.8918146748177097e+01 -1 0 1
2027 1 1.1758906766425719e+00 3.8552724184400597e+00 2.1143760687954810e+01 0 0 0
3701 1 3.6252387384554835e-01 2.0503792597314274e+00 1.5712728769744249e+01 1 0 0
3422 1 4.7263035423627695e+00 2.2689116107901238e+01 2.3626772414987943e+01 1 2 0
306 1 2.0326475988203310e+00 1.1265543588920188e+01 1.5295455160557347e+01 0 -1 1
437 1 1.4475926175092064e+00 3.5923577017352120e+00 1.1902378821622280e+01 1 -1 0
3506 1 7.5818696488383637e+00 4.0131591645658506e+00 2.3647199745049591e+01 1 0 0
2339 1 8.9418626771059806e+00 1.5259070617236230e+01 1.3638530505846841e+01 -1 0 1
2173 1 1.9174313701901529e+00 1.3362529639134458e+01 1.2227120681103282e+01 0 -1 0
1409 1 1.0033800139859220e+01 1.7747967266543521e+00 2.1358333104117865e+01 -1 0 1
3068 1 2.3505558689241668e+00 6.4394220414725520e+00 2.1280746212140553e+01 -1 0 1
5428 1 5.3105828662636698e+00 1.7898316059271266e+01 1.9907618245924724e+01 0 1 0
2230 1 4.9903674497812416e+00 5.8445040111618143e+00 2.0891663291840985e+01 1 0 1
2040 1 8.1275973668515924e+00 3.9119119379514289e+00 2.1106222007555200e+01 1 1 0
5532 1 1.2109776424199783e+01 1.9816370977465056e+01 1.2936007025902315e+01 1 0 0
174 1 8.7595721300826224e+00 7.2612288379942926e+00 2.1027439639490868e+01 0 -1 0
3914 1 1.1281534420208645e+01 2.4504947200575298e+01 1.7971924778718527e+01 1 -1 1
3160 1 1.3948115219473465e+00 8.5281887783596861e+00 2.0045275141813686e+01 0 1 1
6764 1 1.4551908408661274e+00 1.0945730480722474e+01 2.1001946720169755e+01 1 0 1
4791 1 5.8601752410761510e+00 1.8712656632040801e+01 2.2408854492701696e+01 1 -2 1
6489 1 1.0945620914160433e+01 2.3663339218480459e+01 2.0265629149850607e+01 0 0 1
4883 1 5.4939817567911104e+00 1.1399726092111596e+01 2.1102034013151734e+01 1 0 1
3379 1 7.8316792999165772e+00 9.9196986712167998e+00 2.0123432406522586e+01 -1 -1 0
3251 1 9.0675188545922012e+00 7.7864394471713085e+00 2.3629933797479193e+01 0 -1 0
3312 1 1.0196642747193472e+01 1.0457804965480523e+01 2.2586177820600632e+01 1 1 1
339 1 1.9240323573009444e+00 1.6421068941769935e+01 2.0567167134618757e+01 0 0 0
5432 1 1.6347079134053792e+00 1.6160046020549419e+01 2.3541565892264032e+01 2 2 1
253 1 7.0862464180203508e+00 1.3634842837637349e+01 2.1187249783003974e+01 1 1 0
6440 1 1.1605774086361876e+01 1.4578063159875093e+01 1.2529896676975358e+01 0 -1 1
5526 1 1.1663448393101662e+01 2.2765371859446734e+01 1.2726752943491753e+01 0 1 0
1314 1 9.8812657801513613e+00 1.3803722435177123e+01 2.0949401268334118e+01 2 0 1
3200 1 1.1219111928862132e+01 1.0019498293583837e+01 1.9854870408247333e+01 1 0 0
325 1 1.0513175303165420e+01 1.5419872060669899e+01 2.3663866569617724e+01 1 0 0
3842 1 7.2014760980656725e+00 2.4260759407986122e+01 1.9416589414430504e+01 1 -1 0
6651 1 6.2835996004634376e-01 2.4344986262604287e+01 2.3668933843400570e+01 1 0 1
1872 1 3.8448210429312866e+00 1.6684263605545073e+01 1.2101246385025300e+01 1 0 0
1911 1 2.2588865306610484e+00 1.0621025468029391e+01 2.3497570126900417e+01 1 1 0
6737 1 1.0085655942657168e+00 3.7765303317325243e+00 2.3957091992461987e+01 -1 2 0
2297 1 2.9907577160869101e+00 2.0592795334932124e+01 2.3698573353402367e+01 0 0 1
1912 1 8.9179147789796911e+00 2.2078012417478796e+01 2.3735980027225708e+01 0 0 0
4859 1 1.1210608282537018e+01 2.7120898186548859e+00 2.3679941098475048e+01 0 1 1
617 1 6.4348516017739401e+00 6.9924000323024886e+00 1.2461497054635110e+01 0 1 0
3590 1 3.0708527770866012e+00 2.0079690549154439e+00 2.3857132222208794e+01 1 0 0
6509 1 6.3057094310413264e+00 8.2437842536899382e+00 2.3692543577607850e+01 1 -1 1
1967 1 1.0548448345269472e+00 1.3173394271160120e+01 2.3888740628188163e+01 0 0 0
554 1 6.7513886641896717e+00 1.3193588955850929e+01 2.3929238068868468e+01 0 0 1
623 2 0.0000000000000000e+00 2.8417180249513345e+00 2.6796819386438671e+01 0 0 0
625 2 0.0000000000000000e+00 0.0000000000000000e+00 2.6796819386438671e+01 0 0 0
627 2 1.2305000000000001e+00 7.1042950623783474e-01 2.6796819386438671e+01 0 0 0
634 2 1.2305000000000001e+00 2.1312885187134998e+00 2.6796819386438671e+01 0 0 0
636 2 2.4610000000000003e+00 2.8417180249513345e+00 2.6796819386438671e+01 0 0 0
638 2 2.4610000000000003e+00 0.0000000000000000e+00 2.6796819386438671e+01 0 0 0
640 2 3.6915000000000004e+00 7.1042950623783474e-01 2.6796819386438671e+01 0 0 0
655 2 3.6914999999999996e+00 2.1312885187134998e+00 2.6796819386438671e+01 0 0 0
657 2 4.9220000000000006e+00 2.8417180249513332e+00 2.6796819386438671e+01 0 0 0
659 2 4.9220000000000006e+00 0.0000000000000000e+00 2.6796819386438671e+01 0 0 0
661 2 6.1524999999999999e+00 7.1042950623783407e-01 2.6796819386438671e+01 0 0 0
684 2 6.1524999999999999e+00 2.1312885187134989e+00 2.6796819386438671e+01 0 0 0
686 2 7.3829999999999991e+00 2.8417180249513345e+00 2.6796819386438671e+01 0 0 0
688 2 7.3829999999999991e+00 0.0000000000000000e+00 2.6796819386438671e+01 0 0 0
690 2 8.6134999999999984e+00 7.1042950623783407e-01 2.6796819386438671e+01 0 0 0
721 2 8.6134999999999984e+00 2.1312885187135002e+00 2.6796819386438671e+01 0 0 0
723 2 9.8440000000000012e+00 2.8417180249513332e+00 2.6796819386438671e+01 0 0 0
725 2 9.8440000000000012e+00 0.0000000000000000e+00 2.6796819386438671e+01 0 0 0
727 2 1.1074500000000002e+01 7.1042950623783330e-01 2.6796819386438671e+01 0 0 0
766 2 1.1074500000000002e+01 2.1312885187135002e+00 2.6796819386438671e+01 0 0 0
1105 2 1.1074500000000002e+01 2.3444173705848499e+01 3.3265180613566415e+01 0 0 0
3336 1 8.6761057234170149e+00 1.7056339618293958e+01 2.4357315968917895e+01 0 2 0
628 2 0.0000000000000000e+00 7.1042950623783341e+00 2.6796819386438671e+01 0 0 0
630 2 0.0000000000000000e+00 4.2625770374269996e+00 2.6796819386438671e+01 0 0 0
632 2 1.2305000000000001e+00 4.9730065436648339e+00 2.6796819386438671e+01 0 0 0
647 2 1.2305000000000001e+00 6.3938655561404980e+00 2.6796819386438671e+01 0 0 0
649 2 2.4610000000000003e+00 7.1042950623783341e+00 2.6796819386438671e+01 0 0 0
651 2 2.4610000000000003e+00 4.2625770374269996e+00 2.6796819386438671e+01 0 0 0
653 2 3.6914999999999996e+00 4.9730065436648339e+00 2.6796819386438671e+01 0 0 0
676 2 3.6914999999999996e+00 6.3938655561404980e+00 2.6796819386438671e+01 0 0 0
1078 2 8.6135000000000002e+00 2.2023314693372832e+01 3.3265180613566415e+01 0 0 0
678 2 4.9220000000000006e+00 7.1042950623783341e+00 2.6796819386438671e+01 0 0 0
680 2 4.9220000000000006e+00 4.2625770374269978e+00 2.6796819386438671e+01 0 0 0
682 2 6.1524999999999999e+00 4.9730065436648339e+00 2.6796819386438671e+01 0 0 0
713 2 6.1524999999999999e+00 6.3938655561404980e+00 2.6796819386438671e+01 0 0 0
715 2 7.3830000000000009e+00 7.1042950623783341e+00 2.6796819386438671e+01 0 0 0
717 2 7.3829999999999991e+00 4.2625770374269996e+00 2.6796819386438671e+01 0 0 0
719 2 8.6135000000000002e+00 4.9730065436648339e+00 2.6796819386438671e+01 0 0 0
758 2 8.6135000000000002e+00 6.3938655561404980e+00 2.6796819386438671e+01 0 0 0
760 2 9.8440000000000012e+00 7.1042950623783341e+00 2.6796819386438671e+01 0 0 0
762 2 9.8440000000000012e+00 4.2625770374270004e+00 2.6796819386438671e+01 0 0 0
764 2 1.1074500000000002e+01 4.9730065436648339e+00 2.6796819386438671e+01 0 0 0
805 2 1.1074500000000002e+01 6.3938655561404980e+00 2.6796819386438671e+01 0 0 0
6543 1 3.8641289254789024e+00 1.8101780083735829e+01 2.4509657818899232e+01 0 1 1
641 2 0.0000000000000000e+00 1.1366872099805333e+01 2.6796819386438671e+01 0 0 0
643 2 0.0000000000000000e+00 8.5251540748539991e+00 2.6796819386438671e+01 0 0 0
645 2 1.2305000000000001e+00 9.2355835810918343e+00 2.6796819386438671e+01 0 0 0
668 2 1.2305000000000001e+00 1.0656442593567498e+01 2.6796819386438671e+01 0 0 0
670 2 2.4610000000000003e+00 1.1366872099805333e+01 2.6796819386438671e+01 0 0 0
672 2 2.4610000000000003e+00 8.5251540748539991e+00 2.6796819386438671e+01 0 0 0
674 2 3.6915000000000004e+00 9.2355835810918343e+00 2.6796819386438671e+01 0 0 0
705 2 3.6914999999999996e+00 1.0656442593567499e+01 2.6796819386438671e+01 0 0 0
1092 2 8.6134999999999984e+00 2.3444173705848499e+01 3.3265180613566415e+01 0 0 0
707 2 4.9220000000000006e+00 1.1366872099805333e+01 2.6796819386438671e+01 0 0 0
709 2 4.9220000000000006e+00 8.5251540748539991e+00 2.6796819386438671e+01 0 0 0
711 2 6.1524999999999999e+00 9.2355835810918343e+00 2.6796819386438671e+01 0 0 0
750 2 6.1524999999999999e+00 1.0656442593567499e+01 2.6796819386438671e+01 0 0 0
752 2 7.3829999999999991e+00 1.1366872099805333e+01 2.6796819386438671e+01 0 0 0
754 2 7.3830000000000009e+00 8.5251540748539991e+00 2.6796819386438671e+01 0 0 0
3749 1 1.1799545085868834e+01 2.2521646370360980e+01 2.4162534834661535e+01 1 2 0
756 2 8.6134999999999984e+00 9.2355835810918343e+00 2.6796819386438671e+01 0 0 0
797 2 8.6134999999999984e+00 1.0656442593567498e+01 2.6796819386438671e+01 0 0 0
799 2 9.8440000000000012e+00 1.1366872099805333e+01 2.6796819386438671e+01 0 0 0
801 2 9.8440000000000012e+00 8.5251540748539956e+00 2.6796819386438671e+01 0 0 0
803 2 1.1074500000000002e+01 9.2355835810918343e+00 2.6796819386438671e+01 0 0 0
844 2 1.1074500000000002e+01 1.0656442593567498e+01 2.6796819386438671e+01 0 0 0
846 2 1.2304999999999998e+01 1.1366872099805333e+01 2.6796819386438671e+01 0 0 0
662 2 0.0000000000000000e+00 1.5629449137232333e+01 2.6796819386438671e+01 0 0 0
664 2 0.0000000000000000e+00 1.2787731112280996e+01 2.6796819386438671e+01 0 0 0
666 2 1.2305000000000001e+00 1.3498160618518829e+01 2.6796819386438671e+01 0 0 0
697 2 1.2305000000000001e+00 1.4919019630994494e+01 2.6796819386438671e+01 0 0 0
699 2 2.4610000000000003e+00 1.5629449137232328e+01 2.6796819386438671e+01 0 0 0
701 2 2.4610000000000003e+00 1.2787731112280996e+01 2.6796819386438671e+01 0 0 0
703 2 3.6915000000000004e+00 1.3498160618518829e+01 2.6796819386438671e+01 0 0 0
742 2 3.6915000000000004e+00 1.4919019630994494e+01 2.6796819386438671e+01 0 0 0
1077 2 7.3829999999999991e+00 2.1312885187134999e+01 3.3265180613566415e+01 0 0 0
744 2 4.9220000000000006e+00 1.5629449137232333e+01 2.6796819386438671e+01 0 0 0
746 2 4.9220000000000006e+00 1.2787731112280996e+01 2.6796819386438671e+01 0 0 0
748 2 6.1524999999999990e+00 1.3498160618518829e+01 2.6796819386438671e+01 0 0 0
789 2 6.1524999999999990e+00 1.4919019630994494e+01 2.6796819386438671e+01 0 0 0
791 2 7.3829999999999991e+00 1.5629449137232333e+01 2.6796819386438671e+01 0 0 0
793 2 7.3829999999999991e+00 1.2787731112280996e+01 2.6796819386438671e+01 0 0 0
795 2 8.6135000000000002e+00 1.3498160618518835e+01 2.6796819386438671e+01 0 0 0
836 2 8.6135000000000002e+00 1.4919019630994494e+01 2.6796819386438671e+01 0 0 0
838 2 9.8440000000000012e+00 1.5629449137232328e+01 2.6796819386438671e+01 0 0 0
840 2 9.8440000000000012e+00 1.2787731112280996e+01 2.6796819386438671e+01 0 0 0
842 2 1.1074500000000002e+01 1.3498160618518829e+01 2.6796819386438671e+01 0 0 0
878 2 1.1074500000000002e+01 1.4919019630994494e+01 2.6796819386438671e+01 0 0 0
3024 1 9.6020145667507588e+00 1.2767131245996762e+01 2.4154463055818471e+01 2 0 1
1093 2 9.8440000000000012e+00 2.4154603212086336e+01 3.3265180613566415e+01 0 0 0
691 2 0.0000000000000000e+00 1.9892026174659328e+01 2.6796819386438671e+01 0 0 0
693 2 0.0000000000000000e+00 1.7050308149707998e+01 2.6796819386438671e+01 0 0 0
695 2 1.2305000000000001e+00 1.7760737655945832e+01 2.6796819386438671e+01 0 0 0
734 2 1.2305000000000001e+00 1.9181596668421495e+01 2.6796819386438671e+01 0 0 0
736 2 2.4610000000000003e+00 1.9892026174659328e+01 2.6796819386438671e+01 0 0 0
738 2 2.4610000000000003e+00 1.7050308149707998e+01 2.6796819386438671e+01 0 0 0
740 2 3.6914999999999996e+00 1.7760737655945832e+01 2.6796819386438671e+01 0 0 0
781 2 3.6914999999999996e+00 1.9181596668421495e+01 2.6796819386438671e+01 0 0 0
783 2 4.9220000000000006e+00 1.9892026174659328e+01 2.6796819386438671e+01 0 0 0
785 2 4.9220000000000006e+00 1.7050308149707998e+01 2.6796819386438671e+01 0 0 0
787 2 6.1524999999999999e+00 1.7760737655945832e+01 2.6796819386438671e+01 0 0 0
828 2 6.1524999999999999e+00 1.9181596668421495e+01 2.6796819386438671e+01 0 0 0
830 2 7.3829999999999991e+00 1.9892026174659328e+01 2.6796819386438671e+01 0 0 0
832 2 7.3830000000000009e+00 1.7050308149707998e+01 2.6796819386438671e+01 0 0 0
1056 2 4.9220000000000006e+00 2.1312885187134995e+01 3.3265180613566415e+01 0 0 0
3689 1 1.2011597294790668e+01 1.3239127014227781e+01 3.5367969971711887e+01 0 -1 -1
834 2 8.6134999999999984e+00 1.7760737655945832e+01 2.6796819386438671e+01 0 0 0
870 2 8.6135000000000002e+00 1.9181596668421495e+01 2.6796819386438671e+01 0 0 0
872 2 9.8440000000000012e+00 1.9892026174659335e+01 2.6796819386438671e+01 0 0 0
874 2 9.8440000000000012e+00 1.7050308149707998e+01 2.6796819386438671e+01 0 0 0
876 2 1.1074500000000002e+01 1.7760737655945835e+01 2.6796819386438671e+01 0 0 0
904 2 1.1074500000000002e+01 1.9181596668421495e+01 2.6796819386438671e+01 0 0 0
908 2 1.2304999999999998e+01 1.7050308149707998e+01 2.6796819386438671e+01 0 0 0
728 2 0.0000000000000000e+00 2.4154603212086325e+01 2.6796819386438671e+01 0 0 0
730 2 0.0000000000000000e+00 2.1312885187134999e+01 2.6796819386438671e+01 0 0 0
732 2 1.2304999999999993e+00 2.2023314693372832e+01 2.6796819386438671e+01 0 0 0
773 2 1.2304999999999993e+00 2.3444173705848499e+01 2.6796819386438671e+01 0 0 0
775 2 2.4610000000000003e+00 2.4154603212086325e+01 2.6796819386438671e+01 0 0 0
777 2 2.4610000000000003e+00 2.1312885187134995e+01 2.6796819386438671e+01 0 0 0
779 2 3.6914999999999996e+00 2.2023314693372832e+01 2.6796819386438671e+01 0 0 0
820 2 3.6915000000000004e+00 2.3444173705848499e+01 2.6796819386438671e+01 0 0 0
1095 2 1.1074500000000002e+01 2.2023314693372832e+01 3.3265180613566415e+01 0 0 0
822 2 4.9220000000000006e+00 2.4154603212086325e+01 2.6796819386438671e+01 0 0 0
824 2 4.9220000000000006e+00 2.1312885187134995e+01 2.6796819386438671e+01 0 0 0
826 2 6.1524999999999990e+00 2.2023314693372832e+01 2.6796819386438671e+01 0 0 0
862 2 6.1524999999999999e+00 2.3444173705848499e+01 2.6796819386438671e+01 0 0 0
864 2 7.3830000000000009e+00 2.4154603212086336e+01 2.6796819386438671e+01 0 0 0
866 2 7.3829999999999991e+00 2.1312885187134999e+01 2.6796819386438671e+01 0 0 0
868 2 8.6135000000000002e+00 2.2023314693372832e+01 2.6796819386438671e+01 0 0 0
896 2 8.6134999999999984e+00 2.3444173705848499e+01 2.6796819386438671e+01 0 0 0
898 2 9.8440000000000012e+00 2.4154603212086336e+01 2.6796819386438671e+01 0 0 0
900 2 9.8440000000000012e+00 2.1312885187134999e+01 2.6796819386438671e+01 0 0 0