LAMMPS data file via write_data, version 16 Mar 2018, timestep = 100000

4063 atoms
2 atom types

0.0000000000000000e+00 4.9219999999999999e+01 xlo xhi
0.0000000000000000e+00 4.9019635930410494e+01 ylo yhi
1.7695069187284496e+00 2.6170493081271367e+01 zlo zhi

Masses

1 18.015
2 12.01

Atoms # atomic

53 2 0.0000000000000000e+00 2.8417180249513345e+00 3.2914682248876366e+00 0 0 0
55 2 0.0000000000000000e+00 0.0000000000000000e+00 3.2914682248876366e+00 0 0 0
57 2 1.2305000000000001e+00 7.1042950623783474e-01 3.2914682248876366e+00 0 0 0
64 2 1.2305000000000001e+00 2.1312885187134998e+00 3.2914682248876366e+00 0 0 0
66 2 2.4610000000000003e+00 2.8417180249513345e+00 3.2914682248876366e+00 0 0 0
68 2 2.4610000000000003e+00 0.0000000000000000e+00 3.2914682248876366e+00 0 0 0
70 2 3.6915000000000004e+00 7.1042950623783474e-01 3.2914682248876366e+00 0 0 0
85 2 3.6914999999999996e+00 2.1312885187134998e+00 3.2914682248876366e+00 0 0 0
87 2 4.9220000000000006e+00 2.8417180249513332e+00 3.2914682248876366e+00 0 0 0
89 2 4.9220000000000006e+00 0.0000000000000000e+00 3.2914682248876366e+00 0 0 0
60 2 0.0000000000000000e+00 4.2625770374269996e+00 3.2914682248876366e+00 0 0 0
81 2 2.4610000000000003e+00 4.2625770374269996e+00 3.2914682248876366e+00 0 0 0
110 2 4.9220000000000006e+00 4.2625770374269978e+00 3.2914682248876366e+00 0 0 0
62 2 1.2305000000000001e+00 4.9730065436648339e+00 3.2914682248876366e+00 0 0 0
77 2 1.2305000000000001e+00 6.3938655561404980e+00 3.2914682248876366e+00 0 0 0
83 2 3.6914999999999996e+00 4.9730065436648339e+00 3.2914682248876366e+00 0 0 0
106 2 3.6914999999999996e+00 6.3938655561404980e+00 3.2914682248876366e+00 0 0 0
58 2 0.0000000000000000e+00 7.1042950623783341e+00 3.2914682248876366e+00 0 0 0
73 2 0.0000000000000000e+00 8.5251540748539991e+00 3.2914682248876366e+00 0 0 0
75 2 1.2305000000000001e+00 9.2355835810918343e+00 3.2914682248876366e+00 0 0 0
79 2 2.4610000000000003e+00 7.1042950623783341e+00 3.2914682248876366e+00 0 0 0
102 2 2.4610000000000003e+00 8.5251540748539991e+00 3.2914682248876366e+00 0 0 0
104 2 3.6915000000000004e+00 9.2355835810918343e+00 3.2914682248876366e+00 0 0 0
108 2 4.9220000000000006e+00 7.1042950623783341e+00 3.2914682248876366e+00 0 0 0
139 2 4.9220000000000006e+00 8.5251540748539991e+00 3.2914682248876366e+00 0 0 0
54 2 0.0000000000000000e+00 1.4208590124756650e+00 6.2049796194801417e+00 0 0 0
56 2 0.0000000000000000e+00 0.0000000000000000e+00 6.2049796194801417e+00 0 0 0
65 2 1.2305000000000001e+00 2.1312885187134998e+00 6.2049796194801417e+00 0 0 0
67 2 2.4610000000000003e+00 1.4208590124756650e+00 6.2049796194801417e+00 0 0 0
69 2 2.4610000000000003e+00 0.0000000000000000e+00 6.2049796194801417e+00 0 0 0
86 2 3.6914999999999996e+00 2.1312885187134998e+00 6.2049796194801417e+00 0 0 0
382 2 0.0000000000000000e+00 2.8417180249513345e+00 9.1184910140725872e+00 0 0 0
383 2 0.0000000000000000e+00 0.0000000000000000e+00 9.1184910140725872e+00 0 0 0
384 2 1.2305000000000001e+00 7.1042950623783474e-01 9.1184910140725872e+00 0 0 0
388 2 1.2305000000000001e+00 2.1312885187134998e+00 9.1184910140725872e+00 0 0 0
389 2 2.4610000000000003e+00 2.8417180249513345e+00 9.1184910140725872e+00 0 0 0
390 2 2.4610000000000003e+00 0.0000000000000000e+00 9.1184910140725872e+00 0 0 0
391 2 3.6915000000000004e+00 7.1042950623783474e-01 9.1184910140725872e+00 0 0 0
399 2 3.6914999999999996e+00 2.1312885187134998e+00 9.1184910140725872e+00 0 0 0
88 2 4.9220000000000006e+00 1.4208590124756650e+00 6.2049796194801417e+00 0 0 0
90 2 4.9220000000000006e+00 0.0000000000000000e+00 6.2049796194801417e+00 0 0 0
400 2 4.9220000000000006e+00 2.8417180249513332e+00 9.1184910140725872e+00 0 0 0
401 2 4.9220000000000006e+00 0.0000000000000000e+00 9.1184910140725872e+00 0 0 0
61 2 0.0000000000000000e+00 4.2625770374269996e+00 6.2049796194801417e+00 0 0 0
63 2 1.2305000000000001e+00 3.5521475311891644e+00 6.2049796194801417e+00 0 0 0
82 2 2.4610000000000003e+00 4.2625770374269996e+00 6.2049796194801417e+00 0 0 0
84 2 3.6914999999999996e+00 3.5521475311891644e+00 6.2049796194801417e+00 0 0 0
386 2 0.0000000000000000e+00 4.2625770374269996e+00 9.1184910140725872e+00 0 0 0
397 2 2.4610000000000003e+00 4.2625770374269996e+00 9.1184910140725872e+00 0 0 0
111 2 4.9220000000000006e+00 4.2625770374269978e+00 6.2049796194801417e+00 0 0 0
412 2 4.9220000000000006e+00 4.2625770374269978e+00 9.1184910140725872e+00 0 0 0
59 2 0.0000000000000000e+00 5.6834360499026637e+00 6.2049796194801417e+00 0 0 0
78 2 1.2305000000000001e+00 6.3938655561404980e+00 6.2049796194801417e+00 0 0 0
80 2 2.4610000000000003e+00 5.6834360499026637e+00 6.2049796194801417e+00 0 0 0
107 2 3.6914999999999996e+00 6.3938655561404980e+00 6.2049796194801417e+00 0 0 0
387 2 1.2305000000000001e+00 4.9730065436648339e+00 9.1184910140725872e+00 0 0 0
395 2 1.2305000000000001e+00 6.3938655561404980e+00 9.1184910140725872e+00 0 0 0
398 2 3.6914999999999996e+00 4.9730065436648339e+00 9.1184910140725872e+00 0 0 0
410 2 3.6914999999999996e+00 6.3938655561404980e+00 9.1184910140725872e+00 0 0 0
109 2 4.9220000000000006e+00 5.6834360499026637e+00 6.2049796194801417e+00 0 0 0
74 2 0.0000000000000000e+00 8.5251540748539991e+00 6.2049796194801417e+00 0 0 0
76 2 1.2305000000000001e+00 7.8147245686161639e+00 6.2049796194801417e+00 0 0 0
103 2 2.4610000000000003e+00 8.5251540748539991e+00 6.2049796194801417e+00 0 0 0
105 2 3.6914999999999996e+00 7.8147245686161639e+00 6.2049796194801417e+00 0 0 0
385 2 0.0000000000000000e+00 7.1042950623783341e+00 9.1184910140725872e+00 0 0 0
393 2 0.0000000000000000e+00 8.5251540748539991e+00 9.1184910140725872e+00 0 0 0
394 2 1.2305000000000001e+00 9.2355835810918343e+00 9.1184910140725872e+00 0 0 0
396 2 2.4610000000000003e+00 7.1042950623783341e+00 9.1184910140725872e+00 0 0 0
408 2 2.4610000000000003e+00 8.5251540748539991e+00 9.1184910140725872e+00 0 0 0
409 2 3.6915000000000004e+00 9.2355835810918343e+00 9.1184910140725872e+00 0 0 0
140 2 4.9220000000000006e+00 8.5251540748539991e+00 6.2049796194801417e+00 0 0 0
411 2 4.9220000000000006e+00 7.1042950623783341e+00 9.1184910140725872e+00 0 0 0
427 2 4.9220000000000006e+00 8.5251540748539991e+00 9.1184910140725872e+00 0 0 0
562 1 4.8464987582296128e+00 6.6775933954939655e+00 1.2392141618624837e+01 1 1 0
1933 1 4.4929263870844482e-01 4.7103243283575909e+00 1.2145628422307537e+01 1 1 0
2751 1 4.1809231985854654e+00 2.2233270476956926e+00 1.1954738851033852e+01 0 1 0
651 1 1.4066864668330523e+00 2.1301074958898201e+00 1.1551057122061179e+01 1 0 -1
1237 1 2.1085870572981458e+00 6.8433419385559828e+00 1.1656378734053286e+01 -1 0 0
1439 1 5.8503408391917429e+00 4.2822883053668956e+00 1.1419924695537006e+01 1 -1 -1
2573 1 5.8694008730937064e+00 6.1769754644631547e-01 2.5249638309604173e+01 1 0 0
3933 1 1.0573360433936010e+00 3.9513903921969451e+00 1.4942798758750486e+01 3 0 -1
4031 1 3.7156397327443949e+00 9.6960477427888279e+00 1.5639289862318027e+01 1 0 -1
1293 1 3.4030200448477972e+00 2.6147657410191334e+00 1.4632595432747092e+01 0 0 0
3396 1 3.8609860221362360e+00 7.8304466029062034e+00 2.5283003619564774e+01 0 0 0
3293 1 1.9497952865923736e+00 6.2245497737141555e+00 1.6401555846519180e+01 -1 1 0
2682 1 3.2110285854491522e-01 7.1436016529571289e-01 1.4760279222104971e+01 0 -1 0
1908 1 5.0946285419512636e+00 5.1892493253710947e+00 2.5256602540821039e+01 1 0 0
2766 1 5.6503422181688778e+00 3.7482564425622260e+00 1.5659733167621580e+01 1 0 -1
2687 1 4.6644993534268533e+00 6.7681552420279019e+00 1.5114172215133353e+01 0 0 0
3987 1 1.4123161009625393e+00 8.3608216293585027e+00 1.4213007303726958e+01 0 0 0
1405 1 2.3424680846771904e+00 4.9194480257796886e+00 1.9623136018902041e+01 1 0 1
2717 1 2.1975253322279702e+00 2.2140647517724577e+00 1.9660143126932610e+01 0 0 0
2658 1 2.5743091314822988e+00 3.8200381993495971e+00 2.5051818204439734e+01 1 0 -2
1357 1 3.4156037247104769e+00 7.8942068563763819e+00 1.8493922847483574e+01 0 1 1
1296 1 5.1707693648890514e+00 5.3659197184205540e+00 1.7892199065804309e+01 0 0 1
671 1 3.5674961967286181e+00 9.2434495494624542e+00 2.1093622395817249e+01 0 0 -1
1241 1 3.2587664809942560e+00 8.9309406367370803e-01 2.4454052860118825e+01 0 1 0
1270 1 2.9610597268671031e+00 6.2721761390074304e-01 2.1684159978115844e+01 0 0 -1
1286 1 5.4121304126124326e+00 3.6196546898092858e+00 2.0313265921732960e+01 2 0 -1
694 1 3.6674695737730265e+00 4.3469129147574570e+00 2.2396772803382468e+01 -1 0 1
4045 1 4.4488826081085389e+00 7.1136491039771190e+00 2.2564648974912274e+01 0 0 0
2607 1 9.6444137659895546e-01 8.9394037791373897e+00 2.5190693575395450e+01 2 0 -1
631 1 3.9942841303237144e+00 1.0779322041029360e-01 1.5561907932961354e+01 1 1 -1
71 2 0.0000000000000000e+00 1.1366872099805333e+01 3.2914682248876366e+00 0 0 0
94 2 0.0000000000000000e+00 1.2787731112280996e+01 3.2914682248876366e+00 0 0 0
96 2 1.2305000000000001e+00 1.3498160618518829e+01 3.2914682248876366e+00 0 0 0
98 2 1.2305000000000001e+00 1.0656442593567498e+01 3.2914682248876366e+00 0 0 0
100 2 2.4610000000000003e+00 1.1366872099805333e+01 3.2914682248876366e+00 0 0 0
131 2 2.4610000000000003e+00 1.2787731112280996e+01 3.2914682248876366e+00 0 0 0
133 2 3.6915000000000004e+00 1.3498160618518829e+01 3.2914682248876366e+00 0 0 0
135 2 3.6914999999999996e+00 1.0656442593567499e+01 3.2914682248876366e+00 0 0 0
137 2 4.9220000000000006e+00 1.1366872099805333e+01 3.2914682248876366e+00 0 0 0
176 2 4.9220000000000006e+00 1.2787731112280996e+01 3.2914682248876366e+00 0 0 0
178 2 6.1524999999999990e+00 1.3498160618518829e+01 3.2914682248876366e+00 0 0 0
92 2 0.0000000000000000e+00 1.5629449137232333e+01 3.2914682248876366e+00 0 0 0
123 2 0.0000000000000000e+00 1.7050308149707998e+01 3.2914682248876366e+00 0 0 0
127 2 1.2305000000000001e+00 1.4919019630994494e+01 3.2914682248876366e+00 0 0 0
129 2 2.4610000000000003e+00 1.5629449137232328e+01 3.2914682248876366e+00 0 0 0
168 2 2.4610000000000003e+00 1.7050308149707998e+01 3.2914682248876366e+00 0 0 0
172 2 3.6915000000000004e+00 1.4919019630994494e+01 3.2914682248876366e+00 0 0 0
174 2 4.9220000000000006e+00 1.5629449137232333e+01 3.2914682248876366e+00 0 0 0
215 2 4.9220000000000006e+00 1.7050308149707998e+01 3.2914682248876366e+00 0 0 0
219 2 6.1524999999999990e+00 1.4919019630994494e+01 3.2914682248876366e+00 0 0 0
125 2 1.2305000000000001e+00 1.7760737655945832e+01 3.2914682248876366e+00 0 0 0
164 2 1.2305000000000001e+00 1.9181596668421495e+01 3.2914682248876366e+00 0 0 0
170 2 3.6914999999999996e+00 1.7760737655945832e+01 3.2914682248876366e+00 0 0 0
211 2 3.6914999999999996e+00 1.9181596668421495e+01 3.2914682248876366e+00 0 0 0
72 2 0.0000000000000000e+00 9.9460130873296642e+00 6.2049796194801417e+00 0 0 0
101 2 2.4610000000000003e+00 9.9460130873296642e+00 6.2049796194801417e+00 0 0 0
138 2 4.9220000000000006e+00 9.9460130873296642e+00 6.2049796194801417e+00 0 0 0
95 2 0.0000000000000000e+00 1.2787731112280996e+01 6.2049796194801417e+00 0 0 0
97 2 1.2305000000000001e+00 1.2077301606043163e+01 6.2049796194801417e+00 0 0 0
99 2 1.2305000000000001e+00 1.0656442593567498e+01 6.2049796194801417e+00 0 0 0
132 2 2.4610000000000003e+00 1.2787731112280996e+01 6.2049796194801417e+00 0 0 0
134 2 3.6914999999999996e+00 1.2077301606043163e+01 6.2049796194801417e+00 0 0 0
136 2 3.6914999999999996e+00 1.0656442593567499e+01 6.2049796194801417e+00 0 0 0
392 2 0.0000000000000000e+00 1.1366872099805333e+01 9.1184910140725872e+00 0 0 0
404 2 0.0000000000000000e+00 1.2787731112280996e+01 9.1184910140725872e+00 0 0 0
405 2 1.2305000000000001e+00 1.3498160618518829e+01 9.1184910140725872e+00 0 0 0
406 2 1.2305000000000001e+00 1.0656442593567498e+01 9.1184910140725872e+00 0 0 0
407 2 2.4610000000000003e+00 1.1366872099805333e+01 9.1184910140725872e+00 0 0 0
423 2 2.4610000000000003e+00 1.2787731112280996e+01 9.1184910140725872e+00 0 0 0
424 2 3.6915000000000004e+00 1.3498160618518829e+01 9.1184910140725872e+00 0 0 0
425 2 3.6914999999999996e+00 1.0656442593567499e+01 9.1184910140725872e+00 0 0 0
177 2 4.9220000000000006e+00 1.2787731112280996e+01 6.2049796194801417e+00 0 0 0
426 2 4.9220000000000006e+00 1.1366872099805333e+01 9.1184910140725872e+00 0 0 0
446 2 4.9220000000000006e+00 1.2787731112280996e+01 9.1184910140725872e+00 0 0 0
447 2 6.1524999999999990e+00 1.3498160618518829e+01 9.1184910140725872e+00 0 0 0
93 2 0.0000000000000000e+00 1.4208590124756663e+01 6.2049796194801417e+00 0 0 0
130 2 2.4610000000000003e+00 1.4208590124756663e+01 6.2049796194801417e+00 0 0 0
175 2 4.9220000000000006e+00 1.4208590124756663e+01 6.2049796194801417e+00 0 0 0
124 2 0.0000000000000000e+00 1.7050308149707998e+01 6.2049796194801417e+00 0 0 0
126 2 1.2305000000000001e+00 1.6339878643470165e+01 6.2049796194801417e+00 0 0 0
128 2 1.2305000000000001e+00 1.4919019630994494e+01 6.2049796194801417e+00 0 0 0
169 2 2.4610000000000003e+00 1.7050308149707998e+01 6.2049796194801417e+00 0 0 0
171 2 3.6915000000000004e+00 1.6339878643470165e+01 6.2049796194801417e+00 0 0 0
173 2 3.6915000000000004e+00 1.4919019630994494e+01 6.2049796194801417e+00 0 0 0
403 2 0.0000000000000000e+00 1.5629449137232333e+01 9.1184910140725872e+00 0 0 0
419 2 0.0000000000000000e+00 1.7050308149707998e+01 9.1184910140725872e+00 0 0 0
421 2 1.2305000000000001e+00 1.4919019630994494e+01 9.1184910140725872e+00 0 0 0
422 2 2.4610000000000003e+00 1.5629449137232328e+01 9.1184910140725872e+00 0 0 0
442 2 2.4610000000000003e+00 1.7050308149707998e+01 9.1184910140725872e+00 0 0 0
444 2 3.6915000000000004e+00 1.4919019630994494e+01 9.1184910140725872e+00 0 0 0
216 2 4.9220000000000006e+00 1.7050308149707998e+01 6.2049796194801417e+00 0 0 0
220 2 6.1524999999999990e+00 1.4919019630994494e+01 6.2049796194801417e+00 0 0 0
445 2 4.9220000000000006e+00 1.5629449137232333e+01 9.1184910140725872e+00 0 0 0
466 2 4.9220000000000006e+00 1.7050308149707998e+01 9.1184910140725872e+00 0 0 0
468 2 6.1524999999999990e+00 1.4919019630994494e+01 9.1184910140725872e+00 0 0 0
122 2 0.0000000000000000e+00 1.8471167162183658e+01 6.2049796194801417e+00 0 0 0
165 2 1.2305000000000001e+00 1.9181596668421495e+01 6.2049796194801417e+00 0 0 0
167 2 2.4610000000000003e+00 1.8471167162183658e+01 6.2049796194801417e+00 0 0 0
212 2 3.6914999999999996e+00 1.9181596668421495e+01 6.2049796194801417e+00 0 0 0
420 2 1.2305000000000001e+00 1.7760737655945832e+01 9.1184910140725872e+00 0 0 0
440 2 1.2305000000000001e+00 1.9181596668421495e+01 9.1184910140725872e+00 0 0 0
443 2 3.6914999999999996e+00 1.7760737655945832e+01 9.1184910140725872e+00 0 0 0
464 2 3.6914999999999996e+00 1.9181596668421495e+01 9.1184910140725872e+00 0 0 0
214 2 4.9220000000000006e+00 1.8471167162183658e+01 6.2049796194801417e+00 0 0 0
679 1 2.0767640799760811e+00 1.4317772990313662e+01 1.1684782039841670e+01 0 -1 -1
2075 1 1.2495457553329861e+00 1.1917322955423291e+01 1.2155337224072360e+01 0 0 0
3344 1 3.9422771232723397e+00 1.6784894595227321e+01 1.2733625803478589e+01 2 1 -1
1325 1 3.1259328369349659e+00 1.9111672192499583e+01 1.1524769648768014e+01 1 0 0
3303 1 3.8972959432023124e+00 1.0850867611334120e+01 1.1885368564769811e+01 1 -1 0
645 1 4.8574689991253335e+00 1.3741675335008223e+01 1.1701776592051509e+01 2 0 -1
681 1 5.5861325717142050e+00 1.0266932841525625e+01 2.4698896403504222e+01 1 -1 -1
3298 1 3.0719325295626874e+00 1.3609556172713498e+01 1.5626529275445424e+01 1 -1 0
1303 1 5.0146901358360676e+00 1.2126113461870089e+01 1.4280918081629192e+01 1 0 -1
1446 1 1.3624630689462585e+00 1.5793162255145667e+01 2.5196917128224435e+01 0 0 1
1927 1 5.2947102215177488e-01 1.2529901929322149e+01 1.4680911125356664e+01 0 0 0
5 1 4.6215124882689542e+00 1.8262197822033041e+01 1.6852155552856786e+01 1 0 0
3368 1 1.5837511142090530e+00 1.6198136875909075e+01 1.4382553288522272e+01 1 -1 1
560 1 4.7322679617445953e+00 1.3192590146351003e+01 2.5284454254229338e+01 0 0 0
1425 1 4.0367571407878078e+00 1.5757350204105036e+01 2.4865327164838952e+01 1 1 0
3918 1 1.2910349138981037e+00 1.3104495859574904e+01 1.9034571832210268e+01 0 1 -1
1301 1 3.3441788428230521e+00 1.1627370808312694e+01 1.7720109911267919e+01 -1 0 0
3280 1 5.0202868631832080e+00 1.6540715990174483e+01 1.9762431783820091e+01 1 -1 0
699 1 5.8605240118822968e+00 1.7772702445471850e+01 2.5066522038593288e+01 0 0 -1
2689 1 1.5222947509882123e+00 1.6623936713598873e+01 2.2451100333184847e+01 2 0 -1
3920 1 2.2176350996009129e+00 1.6029946953210423e+01 1.9284070967175289e+01 1 0 -1
1382 1 1.7164943890359587e+00 1.7564644113554341e+01 1.7385918754874012e+01 1 0 1
2020 1 5.2358936074048525e+00 1.1268627481970073e+01 2.2209209663703881e+01 1 0 0
2608 1 2.6779372829380259e+00 1.2588524821254909e+01 2.2344893637695403e+01 0 -1 -1
3241 1 4.1820571683594974e+00 1.5171962657874014e+01 2.2330373944254077e+01 0 -1 0
2694 1 1.2066929999857416e+00 1.9077823271323510e+01 1.4071960076777083e+01 1 0 -1
3915 1 2.3235653670438503e+00 1.1560630127934877e+01 2.5090470029828847e+01 0 1 0
735 1 6.0966235049815714e+00 1.7901169444655288e+01 1.4222455492218202e+01 1 0 1
1916 1 6.0910200210977941e+00 1.1779724152545825e+01 1.7893290979626418e+01 1 0 0
3435 1 4.2499868713021272e-01 1.8620767911071841e+01 2.4797012651463447e+01 1 1 1
2111 1 7.1801090271250700e-03 1.0174144117343825e+01 1.5922948959415965e+01 0 0 0
49 1 2.1180160459981248e+00 1.9390198711623800e+01 2.2562605561565015e+01 0 1 0
1969 1 4.9284365321843326e+00 1.9439486748125841e+01 1.9774965155226909e+01 1 -1 -1
646 1 1.1268008947102657e+00 9.8956303972873467e+00 2.2093630542219991e+01 0 0 0
1331 1 1.0357429026082774e+00 9.9093883076753233e+00 1.8430445047219759e+01 1 1 0
121 2 0.0000000000000000e+00 1.9892026174659328e+01 3.2914682248876366e+00 0 0 0
166 2 2.4610000000000003e+00 1.9892026174659328e+01 3.2914682248876366e+00 0 0 0
213 2 4.9220000000000006e+00 1.9892026174659328e+01 3.2914682248876366e+00 0 0 0
158 2 0.0000000000000000e+00 2.4154603212086325e+01 3.2914682248876366e+00 0 0 0
160 2 0.0000000000000000e+00 2.1312885187134999e+01 3.2914682248876366e+00 0 0 0
162 2 1.2304999999999993e+00 2.2023314693372832e+01 3.2914682248876366e+00 0 0 0
203 2 1.2304999999999993e+00 2.3444173705848499e+01 3.2914682248876366e+00 0 0 0
205 2 2.4610000000000003e+00 2.4154603212086325e+01 3.2914682248876366e+00 0 0 0
207 2 2.4610000000000003e+00 2.1312885187134995e+01 3.2914682248876366e+00 0 0 0
209 2 3.6914999999999996e+00 2.2023314693372832e+01 3.2914682248876366e+00 0 0 0
250 2 3.6915000000000004e+00 2.3444173705848499e+01 3.2914682248876366e+00 0 0 0
252 2 4.9220000000000006e+00 2.4154603212086325e+01 3.2914682248876366e+00 0 0 0
254 2 4.9220000000000006e+00 2.1312885187134995e+01 3.2914682248876366e+00 0 0 0
256 2 6.1524999999999990e+00 2.2023314693372832e+01 3.2914682248876366e+00 0 0 0
777 2 0.0000000000000000e+00 2.5575462224561992e+01 3.2914682248876366e+00 0 0 0
779 2 1.2305000000000001e+00 2.6285891730799833e+01 3.2914682248876366e+00 0 0 0
787 2 1.2305000000000010e+00 2.7706750743275496e+01 3.2914682248876366e+00 0 0 0
791 2 2.4610000000000003e+00 2.5575462224561992e+01 3.2914682248876366e+00 0 0 0
793 2 3.6914999999999991e+00 2.6285891730799833e+01 3.2914682248876366e+00 0 0 0
809 2 3.6914999999999996e+00 2.7706750743275496e+01 3.2914682248876366e+00 0 0 0
813 2 4.9220000000000006e+00 2.5575462224561992e+01 3.2914682248876366e+00 0 0 0
839 2 6.1524999999999990e+00 2.7706750743275496e+01 3.2914682248876366e+00 0 0 0
775 2 0.0000000000000000e+00 2.8417180249513333e+01 3.2914682248876366e+00 0 0 0
789 2 2.4610000000000003e+00 2.8417180249513326e+01 3.2914682248876366e+00 0 0 0
811 2 4.9220000000000006e+00 2.8417180249513336e+01 3.2914682248876366e+00 0 0 0
163 2 1.2305000000000001e+00 2.0602455680897162e+01 6.2049796194801417e+00 0 0 0
210 2 3.6915000000000004e+00 2.0602455680897162e+01 6.2049796194801417e+00 0 0 0
418 2 0.0000000000000000e+00 1.9892026174659328e+01 9.1184910140725872e+00 0 0 0
441 2 2.4610000000000003e+00 1.9892026174659328e+01 9.1184910140725872e+00 0 0 0
465 2 4.9220000000000006e+00 1.9892026174659328e+01 9.1184910140725872e+00 0 0 0
159 2 0.0000000000000000e+00 2.2733744199610655e+01 6.2049796194801417e+00 0 0 0
161 2 0.0000000000000000e+00 2.1312885187134999e+01 6.2049796194801417e+00 0 0 0
204 2 1.2304999999999993e+00 2.3444173705848499e+01 6.2049796194801417e+00 0 0 0
206 2 2.4610000000000003e+00 2.2733744199610655e+01 6.2049796194801417e+00 0 0 0
208 2 2.4610000000000003e+00 2.1312885187134995e+01 6.2049796194801417e+00 0 0 0
251 2 3.6915000000000004e+00 2.3444173705848499e+01 6.2049796194801417e+00 0 0 0
437 2 0.0000000000000000e+00 2.4154603212086325e+01 9.1184910140725872e+00 0 0 0
438 2 0.0000000000000000e+00 2.1312885187134999e+01 9.1184910140725872e+00 0 0 0
439 2 1.2304999999999993e+00 2.2023314693372832e+01 9.1184910140725872e+00 0 0 0
460 2 1.2304999999999993e+00 2.3444173705848499e+01 9.1184910140725872e+00 0 0 0
461 2 2.4610000000000003e+00 2.4154603212086325e+01 9.1184910140725872e+00 0 0 0
462 2 2.4610000000000003e+00 2.1312885187134995e+01 9.1184910140725872e+00 0 0 0
463 2 3.6914999999999996e+00 2.2023314693372832e+01 9.1184910140725872e+00 0 0 0
484 2 3.6915000000000004e+00 2.3444173705848499e+01 9.1184910140725872e+00 0 0 0
253 2 4.9220000000000006e+00 2.2733744199610655e+01 6.2049796194801417e+00 0 0 0
255 2 4.9220000000000006e+00 2.1312885187134995e+01 6.2049796194801417e+00 0 0 0
485 2 4.9220000000000006e+00 2.4154603212086325e+01 9.1184910140725872e+00 0 0 0
486 2 4.9220000000000006e+00 2.1312885187134995e+01 9.1184910140725872e+00 0 0 0
487 2 6.1524999999999990e+00 2.2023314693372832e+01 9.1184910140725872e+00 0 0 0
776 2 0.0000000000000000e+00 2.6996321237037659e+01 6.2049796194801417e+00 0 0 0
778 2 0.0000000000000000e+00 2.5575462224561992e+01 6.2049796194801417e+00 0 0 0
780 2 1.2305000000000001e+00 2.4865032718324155e+01 6.2049796194801417e+00 0 0 0
788 2 1.2305000000000010e+00 2.7706750743275496e+01 6.2049796194801417e+00 0 0 0
790 2 2.4610000000000003e+00 2.6996321237037659e+01 6.2049796194801417e+00 0 0 0
792 2 2.4610000000000003e+00 2.5575462224561992e+01 6.2049796194801417e+00 0 0 0
794 2 3.6914999999999996e+00 2.4865032718324166e+01 6.2049796194801417e+00 0 0 0
810 2 3.6914999999999996e+00 2.7706750743275496e+01 6.2049796194801417e+00 0 0 0
1091 2 0.0000000000000000e+00 2.5575462224561992e+01 9.1184910140725872e+00 0 0 0
1092 2 1.2305000000000001e+00 2.6285891730799833e+01 9.1184910140725872e+00 0 0 0
1096 2 1.2305000000000010e+00 2.7706750743275496e+01 9.1184910140725872e+00 0 0 0
1098 2 2.4610000000000003e+00 2.5575462224561992e+01 9.1184910140725872e+00 0 0 0
1099 2 3.6914999999999991e+00 2.6285891730799833e+01 9.1184910140725872e+00 0 0 0
1107 2 3.6914999999999996e+00 2.7706750743275496e+01 9.1184910140725872e+00 0 0 0
812 2 4.9220000000000006e+00 2.6996321237037659e+01 6.2049796194801417e+00 0 0 0
814 2 4.9220000000000006e+00 2.5575462224561992e+01 6.2049796194801417e+00 0 0 0
816 2 6.1524999999999990e+00 2.4865032718324155e+01 6.2049796194801417e+00 0 0 0
840 2 6.1524999999999990e+00 2.7706750743275496e+01 6.2049796194801417e+00 0 0 0
1109 2 4.9220000000000006e+00 2.5575462224561992e+01 9.1184910140725872e+00 0 0 0
1122 2 6.1524999999999990e+00 2.7706750743275496e+01 9.1184910140725872e+00 0 0 0
786 2 1.2304999999999993e+00 2.9127609755751163e+01 6.2049796194801417e+00 0 0 0
808 2 3.6914999999999991e+00 2.9127609755751152e+01 6.2049796194801417e+00 0 0 0
1090 2 0.0000000000000000e+00 2.8417180249513333e+01 9.1184910140725872e+00 0 0 0
1097 2 2.4610000000000003e+00 2.8417180249513326e+01 9.1184910140725872e+00 0 0 0
838 2 6.1524999999999981e+00 2.9127609755751152e+01 6.2049796194801417e+00 0 0 0
1108 2 4.9220000000000006e+00 2.8417180249513336e+01 9.1184910140725872e+00 0 0 0
4034 1 2.8087434863486989e+00 2.3768560336129848e+01 1.2370078861435958e+01 1 -1 -1
3941 1 5.5372576225069015e+00 2.3028897480216653e+01 1.2537835816250546e+01 0 0 -1
683 1 5.2080323088802141e+00 2.8422272976213360e+01 1.1714156925405161e+01 0 -1 0
2690 1 2.9545504788933359e+00 2.6673506616250396e+01 1.1860520295375586e+01 1 0 0
1363 1 5.9117706371955920e+00 2.0264582710160425e+01 1.2136518414936440e+01 1 0 -1
727 1 4.6180623577771357e-01 2.8054297027821686e+01 1.2159005183142279e+01 1 0 1
3342 1 4.5320278244083650e-01 2.0280561812167690e+01 1.1317349373346692e+01 0 0 0
1297 1 5.6856102037882139e-01 2.3801981855441962e+01 2.1470133125024244e+01 0 -2 0
4009 1 2.8655107412101462e+00 2.3293874404123766e+01 1.5259094659255632e+01 0 0 0
567 1 5.6846380233569764e+00 2.2962556273230170e+01 1.5508498395420954e+01 0 1 0
2671 1 5.1512724019734577e+00 2.3220540331236236e+01 2.0816444213245191e+01 0 1 0
1442 1 5.1663430925658282e+00 2.9216340956048011e+01 1.4335113827322525e+01 1 0 0
574 1 1.6737372614005297e+00 2.1013924764455094e+01 1.5987304187186464e+01 1 0 0
1901 1 1.6267494400925790e+00 2.4407820709746595e+01 1.7313811543515428e+01 1 0 -1
1329 1 2.9231067812610241e+00 2.7640099854196055e+01 1.4644264733762842e+01 1 0 0
4003 1 2.5351250599871378e+00 2.2679114996836155e+01 1.9535031270208638e+01 0 1 -1
632 1 2.4862491177639536e+00 2.7735806438239340e+01 2.4957731715968652e+01 1 0 0
643 1 4.2500675675407082e+00 2.0978992183824939e+01 1.7212398492056124e+01 1 0 -2
2744 1 1.9403560466345766e+00 1.9991835700704666e+01 1.9784447318518232e+01 0 1 0
3398 1 1.7614291469588061e+00 2.6355943366964247e+01 2.2438783422239741e+01 1 1 0
2034 1 4.4958851841764913e+00 2.5753079347919513e+01 2.1531866131146554e+01 -1 1 0
4036 1 4.7924836200126117e+00 2.7377868077863738e+01 1.9202723094258090e+01 1 0 0
602 1 1.2574952878699324e+00 2.8887227864365752e+01 1.9123145190005324e+01 1 -1 -1
2104 1 2.5169788880896147e+00 2.6950470569269299e+01 1.7340319488897951e+01 0 0 1
1959 1 3.0747051620675085e+00 2.2362656212098777e+01 2.4924146072611016e+01 0 0 0
767 1 5.0989702311705107e+00 2.0709935609077402e+01 2.5378217048503014e+01 2 0 0
1305 1 3.5941893847333706e+00 2.5113553269867516e+01 2.4585132402989398e+01 0 1 -2
4002 1 5.7820360436660734e-01 2.1797102306645815e+01 2.3341598254865346e+01 1 0 -1
1347 1 4.6212144185735813e+00 2.0713342967724113e+01 2.2278474150894787e+01 1 0 0
552 1 5.4272589725693416e+00 2.7849608818996295e+01 2.5095680048416146e+01 1 -1 0
783 2 0.0000000000000000e+00 2.9838039261988989e+01 3.2914682248876366e+00 0 0 0
785 2 1.2304999999999993e+00 3.0548468768226829e+01 3.2914682248876366e+00 0 0 0
805 2 2.4610000000000003e+00 2.9838039261988989e+01 3.2914682248876366e+00 0 0 0
807 2 3.6915000000000004e+00 3.0548468768226829e+01 3.2914682248876366e+00 0 0 0
835 2 4.9220000000000006e+00 2.9838039261988989e+01 3.2914682248876366e+00 0 0 0
781 2 0.0000000000000000e+00 3.2679757286940330e+01 3.2914682248876366e+00 0 0 0
797 2 0.0000000000000000e+00 3.4100616299415996e+01 3.2914682248876366e+00 0 0 0
801 2 1.2304999999999993e+00 3.1969327780702493e+01 3.2914682248876366e+00 0 0 0
803 2 2.4610000000000003e+00 3.2679757286940337e+01 3.2914682248876366e+00 0 0 0
827 2 2.4609999999999985e+00 3.4100616299415996e+01 3.2914682248876366e+00 0 0 0
831 2 3.6914999999999996e+00 3.1969327780702493e+01 3.2914682248876366e+00 0 0 0
833 2 4.9220000000000015e+00 3.2679757286940337e+01 3.2914682248876366e+00 0 0 0
865 2 4.9220000000000006e+00 3.4100616299415996e+01 3.2914682248876366e+00 0 0 0
799 2 1.2305000000000010e+00 3.4811045805653833e+01 3.2914682248876366e+00 0 0 0
829 2 3.6915000000000018e+00 3.4811045805653833e+01 3.2914682248876366e+00 0 0 0
795 2 0.0000000000000000e+00 3.6942334324367337e+01 3.2914682248876366e+00 0 0 0
819 2 0.0000000000000000e+00 3.8363193336842990e+01 3.2914682248876366e+00 0 0 0
823 2 1.2304999999999993e+00 3.6231904818129486e+01 3.2914682248876366e+00 0 0 0
825 2 2.4610000000000021e+00 3.6942334324367337e+01 3.2914682248876366e+00 0 0 0
857 2 2.4610000000000003e+00 3.8363193336842990e+01 3.2914682248876366e+00 0 0 0
861 2 3.6914999999999996e+00 3.6231904818129486e+01 3.2914682248876366e+00 0 0 0
863 2 4.9220000000000006e+00 3.6942334324367316e+01 3.2914682248876366e+00 0 0 0
902 2 4.9220000000000006e+00 3.8363193336842990e+01 3.2914682248876366e+00 0 0 0
821 2 1.2305000000000010e+00 3.9073622843080841e+01 3.2914682248876366e+00 0 0 0
859 2 3.6915000000000018e+00 3.9073622843080820e+01 3.2914682248876366e+00 0 0 0
782 2 0.0000000000000000e+00 3.1258898274464656e+01 6.2049796194801417e+00 0 0 0
784 2 0.0000000000000000e+00 2.9838039261988989e+01 6.2049796194801417e+00 0 0 0
804 2 2.4609999999999985e+00 3.1258898274464656e+01 6.2049796194801417e+00 0 0 0
806 2 2.4610000000000003e+00 2.9838039261988989e+01 6.2049796194801417e+00 0 0 0
1094 2 0.0000000000000000e+00 2.9838039261988989e+01 9.1184910140725872e+00 0 0 0
1095 2 1.2304999999999993e+00 3.0548468768226829e+01 9.1184910140725872e+00 0 0 0
1105 2 2.4610000000000003e+00 2.9838039261988989e+01 9.1184910140725872e+00 0 0 0
1106 2 3.6915000000000004e+00 3.0548468768226829e+01 9.1184910140725872e+00 0 0 0
834 2 4.9219999999999979e+00 3.1258898274464656e+01 6.2049796194801417e+00 0 0 0
836 2 4.9220000000000006e+00 2.9838039261988989e+01 6.2049796194801417e+00 0 0 0
1120 2 4.9220000000000006e+00 2.9838039261988989e+01 9.1184910140725872e+00 0 0 0
798 2 0.0000000000000000e+00 3.4100616299415996e+01 6.2049796194801417e+00 0 0 0
800 2 1.2304999999999993e+00 3.3390186793178160e+01 6.2049796194801417e+00 0 0 0
802 2 1.2304999999999993e+00 3.1969327780702493e+01 6.2049796194801417e+00 0 0 0
828 2 2.4609999999999985e+00 3.4100616299415996e+01 6.2049796194801417e+00 0 0 0
830 2 3.6914999999999978e+00 3.3390186793178160e+01 6.2049796194801417e+00 0 0 0
832 2 3.6914999999999996e+00 3.1969327780702493e+01 6.2049796194801417e+00 0 0 0
1093 2 0.0000000000000000e+00 3.2679757286940330e+01 9.1184910140725872e+00 0 0 0
1101 2 0.0000000000000000e+00 3.4100616299415996e+01 9.1184910140725872e+00 0 0 0
1103 2 1.2304999999999993e+00 3.1969327780702493e+01 9.1184910140725872e+00 0 0 0
1104 2 2.4610000000000003e+00 3.2679757286940337e+01 9.1184910140725872e+00 0 0 0
1116 2 2.4609999999999985e+00 3.4100616299415996e+01 9.1184910140725872e+00 0 0 0
1118 2 3.6914999999999996e+00 3.1969327780702493e+01 9.1184910140725872e+00 0 0 0