LAMMPS data file via write_data, version 16 Mar 2018, timestep = 8000000

4063 atoms
2 atom types

0.0000000000000000e+00 4.9219999999999999e+01 xlo xhi
0.0000000000000000e+00 4.9019635930410494e+01 ylo yhi
1.0977484558201542e+00 2.6842251544184279e+01 zlo zhi

Masses

1 18.015
2 12.01

Atoms # atomic

53 2 0.0000000000000000e+00 2.8417180249513345e+00 2.7035088659018660e+00 0 0 0
55 2 0.0000000000000000e+00 0.0000000000000000e+00 2.7035088659018660e+00 0 0 0
57 2 1.2305000000000001e+00 7.1042950623783474e-01 2.7035088659018660e+00 0 0 0
64 2 1.2305000000000001e+00 2.1312885187134998e+00 2.7035088659018660e+00 0 0 0
66 2 2.4610000000000003e+00 2.8417180249513345e+00 2.7035088659018660e+00 0 0 0
68 2 2.4610000000000003e+00 0.0000000000000000e+00 2.7035088659018660e+00 0 0 0
70 2 3.6915000000000004e+00 7.1042950623783474e-01 2.7035088659018660e+00 0 0 0
85 2 3.6914999999999996e+00 2.1312885187134998e+00 2.7035088659018660e+00 0 0 0
87 2 4.9220000000000006e+00 2.8417180249513332e+00 2.7035088659018660e+00 0 0 0
89 2 4.9220000000000006e+00 0.0000000000000000e+00 2.7035088659018660e+00 0 0 0
60 2 0.0000000000000000e+00 4.2625770374269996e+00 2.7035088659018660e+00 0 0 0
81 2 2.4610000000000003e+00 4.2625770374269996e+00 2.7035088659018660e+00 0 0 0
110 2 4.9220000000000006e+00 4.2625770374269978e+00 2.7035088659018660e+00 0 0 0
62 2 1.2305000000000001e+00 4.9730065436648339e+00 2.7035088659018660e+00 0 0 0
77 2 1.2305000000000001e+00 6.3938655561404980e+00 2.7035088659018660e+00 0 0 0
83 2 3.6914999999999996e+00 4.9730065436648339e+00 2.7035088659018660e+00 0 0 0
106 2 3.6914999999999996e+00 6.3938655561404980e+00 2.7035088659018660e+00 0 0 0
58 2 0.0000000000000000e+00 7.1042950623783341e+00 2.7035088659018660e+00 0 0 0
73 2 0.0000000000000000e+00 8.5251540748539991e+00 2.7035088659018660e+00 0 0 0
75 2 1.2305000000000001e+00 9.2355835810918343e+00 2.7035088659018660e+00 0 0 0
79 2 2.4610000000000003e+00 7.1042950623783341e+00 2.7035088659018660e+00 0 0 0
102 2 2.4610000000000003e+00 8.5251540748539991e+00 2.7035088659018660e+00 0 0 0
104 2 3.6915000000000004e+00 9.2355835810918343e+00 2.7035088659018660e+00 0 0 0
108 2 4.9220000000000006e+00 7.1042950623783341e+00 2.7035088659018660e+00 0 0 0
139 2 4.9220000000000006e+00 8.5251540748539991e+00 2.7035088659018660e+00 0 0 0
54 2 0.0000000000000000e+00 1.4208590124756650e+00 5.7774380340282878e+00 0 0 0
56 2 0.0000000000000000e+00 0.0000000000000000e+00 5.7774380340282878e+00 0 0 0
65 2 1.2305000000000001e+00 2.1312885187134998e+00 5.7774380340282878e+00 0 0 0
67 2 2.4610000000000003e+00 1.4208590124756650e+00 5.7774380340282878e+00 0 0 0
69 2 2.4610000000000003e+00 0.0000000000000000e+00 5.7774380340282878e+00 0 0 0
86 2 3.6914999999999996e+00 2.1312885187134998e+00 5.7774380340282878e+00 0 0 0
382 2 0.0000000000000000e+00 2.8417180249513345e+00 8.8513672021616117e+00 0 0 0
383 2 0.0000000000000000e+00 0.0000000000000000e+00 8.8513672021616117e+00 0 0 0
384 2 1.2305000000000001e+00 7.1042950623783474e-01 8.8513672021616117e+00 0 0 0
388 2 1.2305000000000001e+00 2.1312885187134998e+00 8.8513672021616117e+00 0 0 0
389 2 2.4610000000000003e+00 2.8417180249513345e+00 8.8513672021616117e+00 0 0 0
390 2 2.4610000000000003e+00 0.0000000000000000e+00 8.8513672021616117e+00 0 0 0
391 2 3.6915000000000004e+00 7.1042950623783474e-01 8.8513672021616117e+00 0 0 0
399 2 3.6914999999999996e+00 2.1312885187134998e+00 8.8513672021616117e+00 0 0 0
88 2 4.9220000000000006e+00 1.4208590124756650e+00 5.7774380340282878e+00 0 0 0
90 2 4.9220000000000006e+00 0.0000000000000000e+00 5.7774380340282878e+00 0 0 0
400 2 4.9220000000000006e+00 2.8417180249513332e+00 8.8513672021616117e+00 0 0 0
401 2 4.9220000000000006e+00 0.0000000000000000e+00 8.8513672021616117e+00 0 0 0
61 2 0.0000000000000000e+00 4.2625770374269996e+00 5.7774380340282878e+00 0 0 0
63 2 1.2305000000000001e+00 3.5521475311891644e+00 5.7774380340282878e+00 0 0 0
82 2 2.4610000000000003e+00 4.2625770374269996e+00 5.7774380340282878e+00 0 0 0
84 2 3.6914999999999996e+00 3.5521475311891644e+00 5.7774380340282878e+00 0 0 0
386 2 0.0000000000000000e+00 4.2625770374269996e+00 8.8513672021616117e+00 0 0 0
397 2 2.4610000000000003e+00 4.2625770374269996e+00 8.8513672021616117e+00 0 0 0
111 2 4.9220000000000006e+00 4.2625770374269978e+00 5.7774380340282878e+00 0 0 0
412 2 4.9220000000000006e+00 4.2625770374269978e+00 8.8513672021616117e+00 0 0 0
59 2 0.0000000000000000e+00 5.6834360499026637e+00 5.7774380340282878e+00 0 0 0
78 2 1.2305000000000001e+00 6.3938655561404980e+00 5.7774380340282878e+00 0 0 0
80 2 2.4610000000000003e+00 5.6834360499026637e+00 5.7774380340282878e+00 0 0 0
107 2 3.6914999999999996e+00 6.3938655561404980e+00 5.7774380340282878e+00 0 0 0
387 2 1.2305000000000001e+00 4.9730065436648339e+00 8.8513672021616117e+00 0 0 0
395 2 1.2305000000000001e+00 6.3938655561404980e+00 8.8513672021616117e+00 0 0 0
398 2 3.6914999999999996e+00 4.9730065436648339e+00 8.8513672021616117e+00 0 0 0
410 2 3.6914999999999996e+00 6.3938655561404980e+00 8.8513672021616117e+00 0 0 0
109 2 4.9220000000000006e+00 5.6834360499026637e+00 5.7774380340282878e+00 0 0 0
74 2 0.0000000000000000e+00 8.5251540748539991e+00 5.7774380340282878e+00 0 0 0
76 2 1.2305000000000001e+00 7.8147245686161639e+00 5.7774380340282878e+00 0 0 0
103 2 2.4610000000000003e+00 8.5251540748539991e+00 5.7774380340282878e+00 0 0 0
105 2 3.6914999999999996e+00 7.8147245686161639e+00 5.7774380340282878e+00 0 0 0
385 2 0.0000000000000000e+00 7.1042950623783341e+00 8.8513672021616117e+00 0 0 0
393 2 0.0000000000000000e+00 8.5251540748539991e+00 8.8513672021616117e+00 0 0 0
394 2 1.2305000000000001e+00 9.2355835810918343e+00 8.8513672021616117e+00 0 0 0
396 2 2.4610000000000003e+00 7.1042950623783341e+00 8.8513672021616117e+00 0 0 0
408 2 2.4610000000000003e+00 8.5251540748539991e+00 8.8513672021616117e+00 0 0 0
409 2 3.6915000000000004e+00 9.2355835810918343e+00 8.8513672021616117e+00 0 0 0
140 2 4.9220000000000006e+00 8.5251540748539991e+00 5.7774380340282878e+00 0 0 0
411 2 4.9220000000000006e+00 7.1042950623783341e+00 8.8513672021616117e+00 0 0 0
427 2 4.9220000000000006e+00 8.5251540748539991e+00 8.8513672021616117e+00 0 0 0
1925 1 2.4657316948183885e+00 1.2963956696941186e+00 1.1271402550942820e+01 0 1 -1
3924 1 2.5972434695357696e+00 4.1428733508270765e+00 1.1518867479134720e+01 0 0 1
3943 1 2.8216076607062877e+00 9.6973640097758373e+00 1.1384338712350450e+01 -1 -3 0
2130 1 4.9544219868702530e+00 5.6798216746900039e+00 1.1313991975887504e+01 -1 2 -1
2576 1 5.1563437502099188e+00 8.3759471977988706e+00 1.1872576430349168e+01 0 1 0
2678 1 2.0721058656155933e-01 8.2067607174003800e+00 1.1636948488265910e+01 4 3 0
2117 1 4.8154563524779051e-02 5.3344408459010060e+00 1.1286132345135897e+01 1 4 0
2594 1 5.0641974329963784e+00 2.5107477505943915e-01 1.1723863825733719e+01 1 -2 -1
4047 1 4.4121741338595877e+00 3.0904676861261309e+00 1.5318273441885417e+01 0 -2 -1
2593 1 2.2458193804489270e+00 4.5576269316056877e+00 1.4368097962336474e+01 -1 -2 0
3948 1 4.4446952156209978e+00 3.2219087853764354e+00 1.7919283508247240e+01 -1 -2 -1
3273 1 7.3523000066512800e-02 2.5492128149492171e-01 1.4697931671714020e+01 1 0 0
1967 1 2.1797100819752853e+00 3.9607569146067929e+00 2.2607225853753704e+01 4 -1 -1
2021 1 3.9819109161809800e+00 8.1787035552307472e+00 2.5092229470245094e+01 -1 -2 -1
616 1 4.8374370832651703e+00 8.5667923815949099e+00 1.4622058408795493e+01 -1 0 0
3931 1 2.3716056900840004e+00 7.1201175030969175e+00 1.5394395722399512e+01 -2 4 0
3338 1 2.2582830811167813e+00 6.9696357678943874e+00 1.8176550655950081e+01 -1 -1 0
1993 1 4.6030020068204189e+00 5.6828092859014614e+00 2.6008306089010723e+01 -2 0 0
4007 1 2.3256060410970503e+00 1.4694265476541013e+00 1.8709430852611817e+01 -1 2 0
1355 1 2.3650402937249813e+00 1.5057710351133300e+00 2.1583802274660442e+01 1 -1 1
2697 1 2.2503064641808499e+00 4.3153763994169063e+00 2.5461646394196116e+01 2 0 0
2126 1 4.4761724456258500e+00 5.2180840402142294e+00 2.1956845328082984e+01 1 3 0
4006 1 4.7172714005947087e+00 5.8264172244881296e+00 1.9007123363964119e+01 -2 4 0
659 1 2.4101516533445198e+00 1.6459890605357026e+00 2.6262093055998932e+01 -3 2 -1
3292 1 4.4978377034228689e+00 7.9085944470235372e+00 2.2332488598981207e+01 0 -2 0
638 1 2.4313091937944526e+00 9.4016287920778172e+00 2.1389535149885646e+01 -2 -1 -1
2612 1 1.6696971852262052e-01 5.5424199682592281e+00 1.8577290946051534e+01 1 -2 0
1917 1 8.6893084492123046e-02 2.8416675196399535e+00 1.8015374446419209e+01 0 4 0
2680 1 5.5911873871604522e-03 8.0573583134307505e+00 2.2661219519491162e+01 2 2 0
2017 1 2.2268188640041756e-01 8.2822349287378252e+00 1.4433348844793468e+01 2 2 -2
2644 1 2.4538895160365759e-01 8.6729355900959329e-02 2.5393982074168335e+01 0 2 0
2034 1 5.2247043585609908e-02 8.0951920367506851e+00 2.5310387547593493e+01 -2 0 0
2570 1 2.2194745097803956e+00 9.6628995173603602e+00 2.6066967547072274e+01 0 3 0
2712 1 4.4944102166020583e+00 5.0874609807167392e-01 1.4716894175905425e+01 0 -1 -1
52 1 4.4718684269596052e+00 4.0051468119097755e-01 2.5501877460595843e+01 -4 3 1
2092 1 3.7297674274812270e-01 7.5957730235584192e-02 2.2376266718660617e+01 0 0 0
1311 1 2.0020761253036312e-02 2.9748488509066466e+00 1.5159868900071420e+01 3 -3 0
2708 1 2.3923132294330927e+00 9.7265246474861371e+00 1.8711058968957857e+01 0 1 0
71 2 0.0000000000000000e+00 1.1366872099805333e+01 2.7035088659018660e+00 0 0 0
94 2 0.0000000000000000e+00 1.2787731112280996e+01 2.7035088659018660e+00 0 0 0
96 2 1.2305000000000001e+00 1.3498160618518829e+01 2.7035088659018660e+00 0 0 0
98 2 1.2305000000000001e+00 1.0656442593567498e+01 2.7035088659018660e+00 0 0 0
100 2 2.4610000000000003e+00 1.1366872099805333e+01 2.7035088659018660e+00 0 0 0
131 2 2.4610000000000003e+00 1.2787731112280996e+01 2.7035088659018660e+00 0 0 0
133 2 3.6915000000000004e+00 1.3498160618518829e+01 2.7035088659018660e+00 0 0 0
135 2 3.6914999999999996e+00 1.0656442593567499e+01 2.7035088659018660e+00 0 0 0
137 2 4.9220000000000006e+00 1.1366872099805333e+01 2.7035088659018660e+00 0 0 0
176 2 4.9220000000000006e+00 1.2787731112280996e+01 2.7035088659018660e+00 0 0 0
178 2 6.1524999999999990e+00 1.3498160618518829e+01 2.7035088659018660e+00 0 0 0
92 2 0.0000000000000000e+00 1.5629449137232333e+01 2.7035088659018660e+00 0 0 0
123 2 0.0000000000000000e+00 1.7050308149707998e+01 2.7035088659018660e+00 0 0 0
127 2 1.2305000000000001e+00 1.4919019630994494e+01 2.7035088659018660e+00 0 0 0
129 2 2.4610000000000003e+00 1.5629449137232328e+01 2.7035088659018660e+00 0 0 0
168 2 2.4610000000000003e+00 1.7050308149707998e+01 2.7035088659018660e+00 0 0 0
172 2 3.6915000000000004e+00 1.4919019630994494e+01 2.7035088659018660e+00 0 0 0
174 2 4.9220000000000006e+00 1.5629449137232333e+01 2.7035088659018660e+00 0 0 0
215 2 4.9220000000000006e+00 1.7050308149707998e+01 2.7035088659018660e+00 0 0 0
219 2 6.1524999999999990e+00 1.4919019630994494e+01 2.7035088659018660e+00 0 0 0
125 2 1.2305000000000001e+00 1.7760737655945832e+01 2.7035088659018660e+00 0 0 0
164 2 1.2305000000000001e+00 1.9181596668421495e+01 2.7035088659018660e+00 0 0 0
170 2 3.6914999999999996e+00 1.7760737655945832e+01 2.7035088659018660e+00 0 0 0
211 2 3.6914999999999996e+00 1.9181596668421495e+01 2.7035088659018660e+00 0 0 0
72 2 0.0000000000000000e+00 9.9460130873296642e+00 5.7774380340282878e+00 0 0 0
101 2 2.4610000000000003e+00 9.9460130873296642e+00 5.7774380340282878e+00 0 0 0
138 2 4.9220000000000006e+00 9.9460130873296642e+00 5.7774380340282878e+00 0 0 0
95 2 0.0000000000000000e+00 1.2787731112280996e+01 5.7774380340282878e+00 0 0 0
97 2 1.2305000000000001e+00 1.2077301606043163e+01 5.7774380340282878e+00 0 0 0
99 2 1.2305000000000001e+00 1.0656442593567498e+01 5.7774380340282878e+00 0 0 0
132 2 2.4610000000000003e+00 1.2787731112280996e+01 5.7774380340282878e+00 0 0 0
134 2 3.6914999999999996e+00 1.2077301606043163e+01 5.7774380340282878e+00 0 0 0
136 2 3.6914999999999996e+00 1.0656442593567499e+01 5.7774380340282878e+00 0 0 0
392 2 0.0000000000000000e+00 1.1366872099805333e+01 8.8513672021616117e+00 0 0 0
404 2 0.0000000000000000e+00 1.2787731112280996e+01 8.8513672021616117e+00 0 0 0
405 2 1.2305000000000001e+00 1.3498160618518829e+01 8.8513672021616117e+00 0 0 0
406 2 1.2305000000000001e+00 1.0656442593567498e+01 8.8513672021616117e+00 0 0 0
407 2 2.4610000000000003e+00 1.1366872099805333e+01 8.8513672021616117e+00 0 0 0
423 2 2.4610000000000003e+00 1.2787731112280996e+01 8.8513672021616117e+00 0 0 0
424 2 3.6915000000000004e+00 1.3498160618518829e+01 8.8513672021616117e+00 0 0 0
425 2 3.6914999999999996e+00 1.0656442593567499e+01 8.8513672021616117e+00 0 0 0
177 2 4.9220000000000006e+00 1.2787731112280996e+01 5.7774380340282878e+00 0 0 0
426 2 4.9220000000000006e+00 1.1366872099805333e+01 8.8513672021616117e+00 0 0 0
446 2 4.9220000000000006e+00 1.2787731112280996e+01 8.8513672021616117e+00 0 0 0
447 2 6.1524999999999990e+00 1.3498160618518829e+01 8.8513672021616117e+00 0 0 0
93 2 0.0000000000000000e+00 1.4208590124756663e+01 5.7774380340282878e+00 0 0 0
130 2 2.4610000000000003e+00 1.4208590124756663e+01 5.7774380340282878e+00 0 0 0
175 2 4.9220000000000006e+00 1.4208590124756663e+01 5.7774380340282878e+00 0 0 0
124 2 0.0000000000000000e+00 1.7050308149707998e+01 5.7774380340282878e+00 0 0 0
126 2 1.2305000000000001e+00 1.6339878643470165e+01 5.7774380340282878e+00 0 0 0
128 2 1.2305000000000001e+00 1.4919019630994494e+01 5.7774380340282878e+00 0 0 0
169 2 2.4610000000000003e+00 1.7050308149707998e+01 5.7774380340282878e+00 0 0 0
171 2 3.6915000000000004e+00 1.6339878643470165e+01 5.7774380340282878e+00 0 0 0
173 2 3.6915000000000004e+00 1.4919019630994494e+01 5.7774380340282878e+00 0 0 0
403 2 0.0000000000000000e+00 1.5629449137232333e+01 8.8513672021616117e+00 0 0 0
419 2 0.0000000000000000e+00 1.7050308149707998e+01 8.8513672021616117e+00 0 0 0
421 2 1.2305000000000001e+00 1.4919019630994494e+01 8.8513672021616117e+00 0 0 0
422 2 2.4610000000000003e+00 1.5629449137232328e+01 8.8513672021616117e+00 0 0 0
442 2 2.4610000000000003e+00 1.7050308149707998e+01 8.8513672021616117e+00 0 0 0
444 2 3.6915000000000004e+00 1.4919019630994494e+01 8.8513672021616117e+00 0 0 0
216 2 4.9220000000000006e+00 1.7050308149707998e+01 5.7774380340282878e+00 0 0 0
220 2 6.1524999999999990e+00 1.4919019630994494e+01 5.7774380340282878e+00 0 0 0
445 2 4.9220000000000006e+00 1.5629449137232333e+01 8.8513672021616117e+00 0 0 0
466 2 4.9220000000000006e+00 1.7050308149707998e+01 8.8513672021616117e+00 0 0 0
468 2 6.1524999999999990e+00 1.4919019630994494e+01 8.8513672021616117e+00 0 0 0
122 2 0.0000000000000000e+00 1.8471167162183658e+01 5.7774380340282878e+00 0 0 0
165 2 1.2305000000000001e+00 1.9181596668421495e+01 5.7774380340282878e+00 0 0 0
167 2 2.4610000000000003e+00 1.8471167162183658e+01 5.7774380340282878e+00 0 0 0
212 2 3.6914999999999996e+00 1.9181596668421495e+01 5.7774380340282878e+00 0 0 0
420 2 1.2305000000000001e+00 1.7760737655945832e+01 8.8513672021616117e+00 0 0 0
440 2 1.2305000000000001e+00 1.9181596668421495e+01 8.8513672021616117e+00 0 0 0
443 2 3.6914999999999996e+00 1.7760737655945832e+01 8.8513672021616117e+00 0 0 0
464 2 3.6914999999999996e+00 1.9181596668421495e+01 8.8513672021616117e+00 0 0 0
214 2 4.9220000000000006e+00 1.8471167162183658e+01 5.7774380340282878e+00 0 0 0
3961 1 2.5453916907532954e+00 1.2380144243193147e+01 1.1533202615681228e+01 2 0 0
3326 1 5.1558203436443764e+00 1.3674314601869179e+01 1.0885557808476392e+01 2 2 0
3990 1 2.2875069713202607e+00 1.7795632014097620e+01 1.1773280933730151e+01 0 -1 0
1439 1 5.1821438176922170e+00 1.6559048584392063e+01 1.1810123419828773e+01 1 -2 -1
2715 1 1.9615835846014851e-01 1.3880069862276825e+01 1.1361977153403087e+01 1 1 0
3381 1 4.3843888479751545e+00 1.1095261877794616e+01 1.5297300863561876e+01 0 0 -1
680 1 2.2087717239916702e+00 1.2594720443009198e+01 1.4328552828332876e+01 3 1 -1
1432 1 4.6601572568673495e+00 1.1228710597283751e+01 1.7907904160302046e+01 3 -3 -1
1385 1 1.9570996700072707e+00 1.7631297892778161e+01 2.5969485322984134e+01 5 0 0
5 1 2.0674485484029046e+00 1.5224356261307340e+01 1.5147320164299630e+01 2 4 0
4060 1 2.0543717652010867e+00 1.4940670363892867e+01 1.7839122478674128e+01 2 0 -1
3946 1 2.2328379806238217e+00 1.2095896081057919e+01 2.2732852176821531e+01 1 3 0
2087 1 4.4257572962442344e+00 1.6725261370294543e+01 1.4482546535201498e+01 3 0 0
1932 1 4.3344419065787809e+00 1.9126671490259469e+01 1.8101177490978280e+01 2 2 -1
4022 1 4.3811336528191145e+00 1.3727456605531279e+01 1.8796940250075266e+01 -1 -5 -1
2706 1 4.3326661006028004e+00 1.3504448527719934e+01 2.1456627082328971e+01 1 2 1
2561 1 4.4402600681471176e+00 1.6218485890073747e+01 2.2249748740898973e+01 1 1 0
551 1 4.3596900135390575e+00 1.6583666826706441e+01 2.5048037167759027e+01 7 2 0
2112 1 1.7585107558110384e+00 1.7631761774471236e+01 1.8702834291865216e+01 0 3 0
2663 1 2.1585293132742507e+00 1.7848271291311491e+01 2.1424825817886259e+01 1 5 0
1942 1 4.6602389053112905e+00 1.3876832490952856e+01 2.6073179211850793e+01 1 -1 -1
4037 1 2.3771041467615643e+00 1.2364749088889575e+01 2.5534575053256539e+01 0 1 0
1928 1 4.0787816380105886e+00 1.9138060272741850e+01 1.5338715812601121e+01 2 -2 1
2084 1 6.2067179576860462e-02 1.3510249410809578e+01 1.8909492568408815e+01 2 -3 2
2709 1 1.9007625523417865e-01 1.6100465068912357e+01 2.2258372869404006e+01 1 -1 -1
121 2 0.0000000000000000e+00 1.9892026174659328e+01 2.7035088659018660e+00 0 0 0
166 2 2.4610000000000003e+00 1.9892026174659328e+01 2.7035088659018660e+00 0 0 0
213 2 4.9220000000000006e+00 1.9892026174659328e+01 2.7035088659018660e+00 0 0 0
158 2 0.0000000000000000e+00 2.4154603212086325e+01 2.7035088659018660e+00 0 0 0
160 2 0.0000000000000000e+00 2.1312885187134999e+01 2.7035088659018660e+00 0 0 0
162 2 1.2304999999999993e+00 2.2023314693372832e+01 2.7035088659018660e+00 0 0 0
203 2 1.2304999999999993e+00 2.3444173705848499e+01 2.7035088659018660e+00 0 0 0
205 2 2.4610000000000003e+00 2.4154603212086325e+01 2.7035088659018660e+00 0 0 0
207 2 2.4610000000000003e+00 2.1312885187134995e+01 2.7035088659018660e+00 0 0 0
209 2 3.6914999999999996e+00 2.2023314693372832e+01 2.7035088659018660e+00 0 0 0
250 2 3.6915000000000004e+00 2.3444173705848499e+01 2.7035088659018660e+00 0 0 0
252 2 4.9220000000000006e+00 2.4154603212086325e+01 2.7035088659018660e+00 0 0 0
254 2 4.9220000000000006e+00 2.1312885187134995e+01 2.7035088659018660e+00 0 0 0
256 2 6.1524999999999990e+00 2.2023314693372832e+01 2.7035088659018660e+00 0 0 0
777 2 0.0000000000000000e+00 2.5575462224561992e+01 2.7035088659018660e+00 0 0 0
779 2 1.2305000000000001e+00 2.6285891730799833e+01 2.7035088659018660e+00 0 0 0
787 2 1.2305000000000010e+00 2.7706750743275496e+01 2.7035088659018660e+00 0 0 0
791 2 2.4610000000000003e+00 2.5575462224561992e+01 2.7035088659018660e+00 0 0 0
793 2 3.6914999999999991e+00 2.6285891730799833e+01 2.7035088659018660e+00 0 0 0
809 2 3.6914999999999996e+00 2.7706750743275496e+01 2.7035088659018660e+00 0 0 0
813 2 4.9220000000000006e+00 2.5575462224561992e+01 2.7035088659018660e+00 0 0 0
839 2 6.1524999999999990e+00 2.7706750743275496e+01 2.7035088659018660e+00 0 0 0
775 2 0.0000000000000000e+00 2.8417180249513333e+01 2.7035088659018660e+00 0 0 0
789 2 2.4610000000000003e+00 2.8417180249513326e+01 2.7035088659018660e+00 0 0 0
811 2 4.9220000000000006e+00 2.8417180249513336e+01 2.7035088659018660e+00 0 0 0
163 2 1.2305000000000001e+00 2.0602455680897162e+01 5.7774380340282878e+00 0 0 0
210 2 3.6915000000000004e+00 2.0602455680897162e+01 5.7774380340282878e+00 0 0 0
418 2 0.0000000000000000e+00 1.9892026174659328e+01 8.8513672021616117e+00 0 0 0
441 2 2.4610000000000003e+00 1.9892026174659328e+01 8.8513672021616117e+00 0 0 0
465 2 4.9220000000000006e+00 1.9892026174659328e+01 8.8513672021616117e+00 0 0 0
159 2 0.0000000000000000e+00 2.2733744199610655e+01 5.7774380340282878e+00 0 0 0
161 2 0.0000000000000000e+00 2.1312885187134999e+01 5.7774380340282878e+00 0 0 0
204 2 1.2304999999999993e+00 2.3444173705848499e+01 5.7774380340282878e+00 0 0 0
206 2 2.4610000000000003e+00 2.2733744199610655e+01 5.7774380340282878e+00 0 0 0
208 2 2.4610000000000003e+00 2.1312885187134995e+01 5.7774380340282878e+00 0 0 0
251 2 3.6915000000000004e+00 2.3444173705848499e+01 5.7774380340282878e+00 0 0 0
437 2 0.0000000000000000e+00 2.4154603212086325e+01 8.8513672021616117e+00 0 0 0
438 2 0.0000000000000000e+00 2.1312885187134999e+01 8.8513672021616117e+00 0 0 0
439 2 1.2304999999999993e+00 2.2023314693372832e+01 8.8513672021616117e+00 0 0 0
460 2 1.2304999999999993e+00 2.3444173705848499e+01 8.8513672021616117e+00 0 0 0
461 2 2.4610000000000003e+00 2.4154603212086325e+01 8.8513672021616117e+00 0 0 0
462 2 2.4610000000000003e+00 2.1312885187134995e+01 8.8513672021616117e+00 0 0 0
463 2 3.6914999999999996e+00 2.2023314693372832e+01 8.8513672021616117e+00 0 0 0
484 2 3.6915000000000004e+00 2.3444173705848499e+01 8.8513672021616117e+00 0 0 0
253 2 4.9220000000000006e+00 2.2733744199610655e+01 5.7774380340282878e+00 0 0 0
255 2 4.9220000000000006e+00 2.1312885187134995e+01 5.7774380340282878e+00 0 0 0
485 2 4.9220000000000006e+00 2.4154603212086325e+01 8.8513672021616117e+00 0 0 0
486 2 4.9220000000000006e+00 2.1312885187134995e+01 8.8513672021616117e+00 0 0 0
487 2 6.1524999999999990e+00 2.2023314693372832e+01 8.8513672021616117e+00 0 0 0
776 2 0.0000000000000000e+00 2.6996321237037659e+01 5.7774380340282878e+00 0 0 0
778 2 0.0000000000000000e+00 2.5575462224561992e+01 5.7774380340282878e+00 0 0 0
780 2 1.2305000000000001e+00 2.4865032718324155e+01 5.7774380340282878e+00 0 0 0
788 2 1.2305000000000010e+00 2.7706750743275496e+01 5.7774380340282878e+00 0 0 0
790 2 2.4610000000000003e+00 2.6996321237037659e+01 5.7774380340282878e+00 0 0 0
792 2 2.4610000000000003e+00 2.5575462224561992e+01 5.7774380340282878e+00 0 0 0
794 2 3.6914999999999996e+00 2.4865032718324166e+01 5.7774380340282878e+00 0 0 0
810 2 3.6914999999999996e+00 2.7706750743275496e+01 5.7774380340282878e+00 0 0 0
1091 2 0.0000000000000000e+00 2.5575462224561992e+01 8.8513672021616117e+00 0 0 0
1092 2 1.2305000000000001e+00 2.6285891730799833e+01 8.8513672021616117e+00 0 0 0
1096 2 1.2305000000000010e+00 2.7706750743275496e+01 8.8513672021616117e+00 0 0 0
1098 2 2.4610000000000003e+00 2.5575462224561992e+01 8.8513672021616117e+00 0 0 0
1099 2 3.6914999999999991e+00 2.6285891730799833e+01 8.8513672021616117e+00 0 0 0
1107 2 3.6914999999999996e+00 2.7706750743275496e+01 8.8513672021616117e+00 0 0 0
812 2 4.9220000000000006e+00 2.6996321237037659e+01 5.7774380340282878e+00 0 0 0
814 2 4.9220000000000006e+00 2.5575462224561992e+01 5.7774380340282878e+00 0 0 0
816 2 6.1524999999999990e+00 2.4865032718324155e+01 5.7774380340282878e+00 0 0 0
840 2 6.1524999999999990e+00 2.7706750743275496e+01 5.7774380340282878e+00 0 0 0
1109 2 4.9220000000000006e+00 2.5575462224561992e+01 8.8513672021616117e+00 0 0 0
1122 2 6.1524999999999990e+00 2.7706750743275496e+01 8.8513672021616117e+00 0 0 0
786 2 1.2304999999999993e+00 2.9127609755751163e+01 5.7774380340282878e+00 0 0 0
808 2 3.6914999999999991e+00 2.9127609755751152e+01 5.7774380340282878e+00 0 0 0
1090 2 0.0000000000000000e+00 2.8417180249513333e+01 8.8513672021616117e+00 0 0 0
1097 2 2.4610000000000003e+00 2.8417180249513326e+01 8.8513672021616117e+00 0 0 0
838 2 6.1524999999999981e+00 2.9127609755751152e+01 5.7774380340282878e+00 0 0 0
1108 2 4.9220000000000006e+00 2.8417180249513336e+01 8.8513672021616117e+00 0 0 0
3275 1 4.2100633819310884e+00 2.2257165980898975e+01 1.1125778200129949e+01 -1 0 0
2056 1 1.9009106795721566e+00 2.0677862507748777e+01 1.1357315957291792e+01 -5 -1 -1
3277 1 4.0322307669919857e+00 2.4897791614774860e+01 1.1953095539653388e+01 -2 -4 -1
592 1 1.6670580496031202e+00 2.6389615125097990e+01 1.1355456154739990e+01 1 -2 -1
721 1 2.1532448153816710e+00 2.8808856754148941e+01 1.2240828243404332e+01 -1 2 -1
617 1 1.5940156216136259e+00 2.3348630443855303e+01 1.5483992969346481e+01 2 -1 0
3262 1 1.9848130462953379e+00 2.0640923237335077e+01 1.4223966888780726e+01 3 2 0
1251 1 2.1119372032218138e+00 2.3363060270845153e+01 1.8093419082972055e+01 -2 -1 0
2615 1 3.9763604385018860e+00 2.4886491904909782e+01 1.4659312694668868e+01 -4 0 -1
1965 1 4.6056436294507268e+00 2.7376320786348426e+01 1.5535717747065238e+01 0 1 1
1260 1 2.1333315921531204e+00 2.8548055374285099e+01 1.4860348792532857e+01 4 1 -1
1417 1 4.4929696611618617e+00 2.7577831071355057e+01 1.8169596184594887e+01 1 -2 0
3420 1 2.3576393587565607e+00 2.5437387060516610e+01 2.5906251324685051e+01 2 2 0
2125 1 4.5676278205230405e+00 2.1916710079835621e+01 1.9021845997998753e+01 1 -1 0
3377 1 4.2188738389385119e+00 2.1731498305016345e+01 2.1706119803144674e+01 4 -5 0
3332 1 2.0425369863942588e+00 2.6282797093187710e+01 2.1776214097869776e+01 2 1 0
2684 1 2.2750349360306865e+00 2.5991570122977990e+01 1.9166839404895370e+01 -1 4 0
1955 1 4.2711697459140971e+00 2.4481321327920917e+01 2.2653795752823626e+01 2 0 -1
3921 1 2.0963930044496450e+00 2.0448936210447389e+01 2.2309606670638097e+01 1 0 0
3456 1 2.6419985860182664e+00 2.0344801477593251e+01 2.5205314862379119e+01 2 1 -1
3954 1 4.8952265138342899e+00 2.1556089300759712e+01 2.6180309332193090e+01 0 0 0
4050 1 2.4491161407700455e+00 2.8577784056231458e+01 2.5505039486882062e+01 1 2 1
2741 1 2.3461118105724421e+00 2.8627939869902875e+01 2.2911324992427673e+01 2 0 1
4051 1 4.8742536803035534e+00 2.4077066535531880e+01 2.5439404458565264e+01 -1 4 -1
2089 1 3.2031873568728669e-01 2.1583155388958897e+01 2.6032905156680229e+01 -4 0 0
783 2 0.0000000000000000e+00 2.9838039261988989e+01 2.7035088659018660e+00 0 0 0
785 2 1.2304999999999993e+00 3.0548468768226829e+01 2.7035088659018660e+00 0 0 0
805 2 2.4610000000000003e+00 2.9838039261988989e+01 2.7035088659018660e+00 0 0 0
807 2 3.6915000000000004e+00 3.0548468768226829e+01 2.7035088659018660e+00 0 0 0
835 2 4.9220000000000006e+00 2.9838039261988989e+01 2.7035088659018660e+00 0 0 0
781 2 0.0000000000000000e+00 3.2679757286940330e+01 2.7035088659018660e+00 0 0 0
797 2 0.0000000000000000e+00 3.4100616299415996e+01 2.7035088659018660e+00 0 0 0
801 2 1.2304999999999993e+00 3.1969327780702493e+01 2.7035088659018660e+00 0 0 0
803 2 2.4610000000000003e+00 3.2679757286940337e+01 2.7035088659018660e+00 0 0 0
827 2 2.4609999999999985e+00 3.4100616299415996e+01 2.7035088659018660e+00 0 0 0
831 2 3.6914999999999996e+00 3.1969327780702493e+01 2.7035088659018660e+00 0 0 0
833 2 4.9220000000000015e+00 3.2679757286940337e+01 2.7035088659018660e+00 0 0 0
865 2 4.9220000000000006e+00 3.4100616299415996e+01 2.7035088659018660e+00 0 0 0
799 2 1.2305000000000010e+00 3.4811045805653833e+01 2.7035088659018660e+00 0 0 0
829 2 3.6915000000000018e+00 3.4811045805653833e+01 2.7035088659018660e+00 0 0 0
795 2 0.0000000000000000e+00 3.6942334324367337e+01 2.7035088659018660e+00 0 0 0
819 2 0.0000000000000000e+00 3.8363193336842990e+01 2.7035088659018660e+00 0 0 0
823 2 1.2304999999999993e+00 3.6231904818129486e+01 2.7035088659018660e+00 0 0 0
825 2 2.4610000000000021e+00 3.6942334324367337e+01 2.7035088659018660e+00 0 0 0
857 2 2.4610000000000003e+00 3.8363193336842990e+01 2.7035088659018660e+00 0 0 0
861 2 3.6914999999999996e+00 3.6231904818129486e+01 2.7035088659018660e+00 0 0 0
863 2 4.9220000000000006e+00 3.6942334324367316e+01 2.7035088659018660e+00 0 0 0
902 2 4.9220000000000006e+00 3.8363193336842990e+01 2.7035088659018660e+00 0 0 0
821 2 1.2305000000000010e+00 3.9073622843080841e+01 2.7035088659018660e+00 0 0 0
859 2 3.6915000000000018e+00 3.9073622843080820e+01 2.7035088659018660e+00 0 0 0
782 2 0.0000000000000000e+00 3.1258898274464656e+01 5.7774380340282878e+00 0 0 0
784 2 0.0000000000000000e+00 2.9838039261988989e+01 5.7774380340282878e+00 0 0 0
804 2 2.4609999999999985e+00 3.1258898274464656e+01 5.7774380340282878e+00 0 0 0
806 2 2.4610000000000003e+00 2.9838039261988989e+01 5.7774380340282878e+00 0 0 0
1094 2 0.0000000000000000e+00 2.9838039261988989e+01 8.8513672021616117e+00 0 0 0
1095 2 1.2304999999999993e+00 3.0548468768226829e+01 8.8513672021616117e+00 0 0 0
1105 2 2.4610000000000003e+00 2.9838039261988989e+01 8.8513672021616117e+00 0 0 0
1106 2 3.6915000000000004e+00 3.0548468768226829e+01 8.8513672021616117e+00 0 0 0
834 2 4.9219999999999979e+00 3.1258898274464656e+01 5.7774380340282878e+00 0 0 0
836 2 4.9220000000000006e+00 2.9838039261988989e+01 5.7774380340282878e+00 0 0 0
1120 2 4.9220000000000006e+00 2.9838039261988989e+01 8.8513672021616117e+00 0 0 0
798 2 0.0000000000000000e+00 3.4100616299415996e+01 5.7774380340282878e+00 0 0 0
800 2 1.2304999999999993e+00 3.3390186793178160e+01 5.7774380340282878e+00 0 0 0
802 2 1.2304999999999993e+00 3.1969327780702493e+01 5.7774380340282878e+00 0 0 0
828 2 2.4609999999999985e+00 3.4100616299415996e+01 5.7774380340282878e+00 0 0 0
830 2 3.6914999999999978e+00 3.3390186793178160e+01 5.7774380340282878e+00 0 0 0
832 2 3.6914999999999996e+00 3.1969327780702493e+01 5.7774380340282878e+00 0 0 0
1093 2 0.0000000000000000e+00 3.2679757286940330e+01 8.8513672021616117e+00 0 0 0
1101 2 0.0000000000000000e+00 3.4100616299415996e+01 8.8513672021616117e+00 0 0 0
1103 2 1.2304999999999993e+00 3.1969327780702493e+01 8.8513672021616117e+00 0 0 0
1104 2 2.4610000000000003e+00 3.2679757286940337e+01 8.8513672021616117e+00 0 0 0
1116 2 2.4609999999999985e+00 3.4100616299415996e+01 8.8513672021616117e+00 0 0 0
1118 2 3.6914999999999996e+00 3.1969327780702493e+01 8.8513672021616117e+00 0 0 0
866 2 4.9220000000000006e+00 3.4100616299415996e+01 5.7774380340282878e+00 0 0 0
868 2 6.1524999999999990e+00 3.3390186793178160e+01 5.7774380340282878e+00 0 0 0
1119 2 4.9220000000000015e+00 3.2679757286940337e+01 8.8513672021616117e+00 0 0 0
1135 2 4.9220000000000006e+00 3.4100616299415996e+01 8.8513672021616117e+00 0 0 0
1102 2 1.2305000000000010e+00 3.4811045805653833e+01 8.8513672021616117e+00 0 0 0
1117 2 3.6915000000000018e+00 3.4811045805653833e+01 8.8513672021616117e+00 0 0 0