LAMMPS data file via write_data, version 16 Mar 2018, timestep = 6000000

6736 atoms
2 atom types

2.0754467271652288e-01 4.9012455327271255e+01 xlo xhi
2.0669980284239386e-01 4.8812936127570197e+01 ylo yhi
2.1373131994815608e-01 5.9848268680055703e+01 zlo zhi

Masses

1 18.015
2 12.01

Atoms # atomic

6112 1 1.7584489294907879e+00 2.5635006607757558e+00 2.9576373459270817e+00 1 -2 0
1778 1 1.6260044250451002e+00 2.3619442764414447e+00 4.5264503191287331e-01 1 4 0
4344 1 6.1393171617534970e+00 3.4417643663552093e+00 3.0426180167434853e+00 1 -4 1
207 1 6.9889394331709225e+00 1.0841421521299448e+00 3.8693057981026961e+00 1 0 0
881 1 6.0636028498259318e+00 3.5629154876564506e+00 5.4563459912449730e-01 3 5 1
1955 1 1.1142097522512955e+01 2.2505213459959665e+00 3.7260796481537453e+00 -3 1 0
2853 1 9.3375006924591091e+00 5.5078797939599156e-01 2.9371244974102675e+00 -1 0 1
2511 1 9.5472733838481769e+00 3.3290189945845727e-01 3.4796466638037943e-01 -3 0 1
198 1 3.9666724478152928e+00 4.5887726718680417e+00 4.0666546933685135e+00 -2 -5 1
4492 1 3.1123854708808243e+00 6.9250562976387213e+00 3.0090878573747699e+00 -1 3 1
761 1 8.0192049523072200e+00 5.3141705912251576e+00 3.6383249140016574e+00 2 -3 1
3565 1 7.4941253213779779e+00 8.0307078032945256e+00 2.5559314246052942e+00 0 2 0
5337 1 1.0433310503021969e+01 4.5731738569100893e+00 2.9115742608803896e+00 -2 0 1
1839 1 1.2229175647370363e+01 6.3787714841375909e+00 3.8912830792638498e+00 0 1 1
2768 1 1.0366243374323513e+01 4.6871000360123940e+00 2.6225307639332129e-01 -2 -1 1
3443 1 1.7437384026045331e+00 1.2066969632944280e+01 3.6671871714397732e+00 1 0 0
5297 1 4.0645273084573743e+00 1.1241540356830516e+01 2.7779793171604705e+00 3 -4 0
5498 1 5.0648397863547281e+00 8.7879875698626098e+00 3.4843852893871361e+00 -1 3 0
259 1 8.1017538593905876e+00 1.2280282098866451e+01 2.8310427123068780e+00 -2 2 0
5342 1 1.1130541150275151e+01 8.8899187212106003e+00 3.2515733591628559e+00 -4 2 0
1746 1 8.6782359819473101e+00 9.8911027215457370e+00 3.6933804123815248e+00 1 -2 0
5411 1 1.1421918619947427e+01 8.9219186405622111e+00 3.7914343102750081e-01 1 1 0
4563 1 3.9794584706424729e-01 1.4151879648779680e+01 2.6659671417662731e+00 -1 1 1
6057 1 2.4221936176669554e+00 1.6108853442233936e+01 3.3245879362337654e+00 5 -4 1
1761 1 5.0636311812105745e+00 1.5577003903310869e+01 3.0617245040513481e+00 1 -2 0
3551 1 5.6229062244548578e+00 1.3032654925467096e+01 4.0848592017815237e+00 0 1 1
2443 1 5.5513598306771108e+00 1.5422712551283119e+01 3.4346935077225621e-01 0 0 1
3722 1 1.0077848225451266e+01 1.3934137341168727e+01 3.7298757959429900e+00 -2 -1 0
6125 1 9.4360597414672913e+00 1.6375637067699692e+01 2.9949078908349711e+00 0 -2 1
1766 1 1.2406669152803905e+01 1.3622448461736999e+01 3.3864659184214202e-01 5 1 0
4460 1 2.0225638734910829e+00 1.8650196440664278e+01 2.8283439358353917e+00 2 3 1
3504 1 3.8287851826703023e+00 2.0173800201930423e+01 3.6256185482995131e+00 3 3 1
2672 1 2.0972531418579834e+00 1.8687875299998602e+01 3.1468150057091293e-01 -3 -3 1
1760 1 6.3500597889830823e+00 1.9710475377084265e+01 2.6071219758496889e+00 1 4 0
4213 1 7.1302786542093060e+00 1.7189845252941375e+01 3.6564605259461742e+00 3 -3 0
254 1 1.0921350225300708e+01 1.8214274303227509e+01 3.9582210163194063e+00 -5 0 0
3379 1 9.4758446410931931e+00 1.6417628008042545e+01 3.4921080332080379e-01 1 -1 1
1082 1 2.9186981138838433e+00 2.2806682688440880e+01 3.1975865864608592e+00 -5 2 0
154 1 3.2203179092026807e-01 2.3631921629796487e+01 3.9088661553275097e+00 4 1 0
851 1 2.9014223158741235e+00 2.2891795251649640e+01 5.1455386572164397e-01 0 0 1
5139 1 7.5299281332921115e+00 2.4299322044076604e+01 4.0044216352495332e-01 -1 -3 1
150 1 8.0425374368959552e+00 2.1401709290359811e+01 3.8604010357639686e+00 -1 -1 0
2598 1 7.0844720441522959e+00 2.4076998930914417e+01 3.2508541974232710e+00 -4 -5 1
4311 1 1.0751279571923352e+01 2.0855692794328533e+01 2.8193238076842957e+00 1 -3 1
4173 1 3.6204656501960364e-01 6.6325127882218649e-01 6.5939077591180473e+00 3 3 0
4300 1 3.0313035811145679e+00 2.9681414393385808e-01 6.4331852282957103e+00 0 1 1
249 1 4.7004392704243090e+00 2.2762755580593574e+00 7.0785041999124045e+00 2 0 0
1903 1 7.4213662280857893e+00 1.1198859266039207e+00 6.6650419628348905e+00 0 2 0
3401 1 9.0347659044955826e+00 3.1126225918170745e+00 7.5842217083995500e+00 2 2 0
4267 1 1.1281695928936948e+01 2.0876540002971407e+00 6.4823283955109225e+00 3 2 1
1239 1 4.2766793160053818e-01 7.7505368313299634e+00 6.3905445091301436e+00 1 -3 1
2051 1 4.0850946689867564e+00 4.6766155787148085e+00 6.7754509184417975e+00 4 2 0
2717 1 1.4103690275146181e+00 5.4112713136255062e+00 7.1009449582347060e+00 2 -1 1
345 1 6.0379466753610744e+00 6.2959741506254323e+00 7.3332444697701495e+00 2 0 0
387 1 8.4617660653389990e+00 5.6325312490207171e+00 6.4719954733391480e+00 0 -3 0
2097 1 9.9626984234683960e+00 7.5025936887012543e+00 7.3201521021623090e+00 4 1 0
5364 1 2.3268536727711839e+00 9.5951889161669648e+00 7.0498689369843639e+00 0 -3 0
4161 1 1.5332287067735544e+00 1.2003240364690821e+01 6.5873651840450673e+00 -1 2 1
6028 1 4.8423415428092280e+00 8.7575698424904171e+00 6.3580197274338595e+00 -1 2 1
397 1 6.4127859972118708e+00 1.0610894100447510e+01 7.3377441348411292e+00 1 0 0
6067 1 8.7322384192760367e+00 9.9154918990713519e+00 6.4447290456332764e+00 -3 -3 1
862 1 1.0657268559863388e+01 1.1680844066508545e+01 7.1345988037857664e+00 -2 -2 1
5184 1 3.2505829921501630e+00 1.4014834145368841e+01 7.1400067473950912e+00 -3 2 0
1979 1 2.3194410193069950e+00 1.6233494089901185e+01 6.2719906104169709e+00 -1 -1 0
1039 1 5.7035908884001385e+00 1.3044178938561462e+01 6.6566124864881813e+00 -5 -3 1
2714 1 7.5579220461985113e+00 1.4921719094450077e+01 7.4120740387575026e+00 2 -2 1
181 1 9.9246743075395525e+00 1.4218791827443864e+01 6.5543311547918064e+00 0 -1 1
4215 1 1.2075819905779634e+01 1.5917789173398958e+01 7.2647918701461194e+00 -4 -3 1
3371 1 4.4364503054751969e+00 1.8140219029119145e+01 6.8914003781493127e+00 1 0 0
928 1 6.8900521298095230e+00 1.7411962695425448e+01 6.2370304697081957e+00 0 1 1
986 1 8.6411511991478474e+00 1.9037297884756178e+01 7.5701044372541579e+00 0 2 1
1132 1 1.1132545152433016e+01 1.8427342210238987e+01 6.6121201831004877e+00 3 1 1
982 1 2.9589569993246351e-01 2.3561334674733079e+01 6.5124090080929768e+00 0 3 0
2586 1 3.9796598304578232e+00 2.0689078806579726e+01 6.2157110803977274e+00 -3 -1 1
2842 1 1.4598245496620939e+00 2.0915698467867813e+01 6.9671737350202259e+00 3 -1 1
4586 1 5.9839447368556655e+00 2.2410206283808854e+01 7.1032489488676029e+00 0 1 0
6262 1 8.5592289103613552e+00 2.1666502733660131e+01 6.4575664417498952e+00 -3 7 1
1779 1 1.0237897593172050e+01 2.3560416379883787e+01 7.1914356580858616e+00 -4 -2 1
3737 1 3.7479881620903646e+00 4.2283927312518177e+00 1.0518334598345673e+01 0 5 0
152 1 4.5918182333130666e+00 1.7959852114598858e+00 9.6995234276435980e+00 2 0 0
1080 1 7.0328456821423559e+00 1.3158508810721996e+00 1.0610529865417480e+01 -1 5 0
1927 1 9.0076480752618515e+00 3.3289420223973911e+00 1.0343336852047402e+01 0 1 0
241 1 1.1370275454053507e+01 2.3715792246541207e+00 1.0758308826320764e+01 0 0 0
148 1 1.2816774656438867e+00 5.2032522737239599e+00 9.9218801833351566e+00 0 -1 0
2162 1 4.4810778434208182e-01 7.6253945225721695e+00 1.0714093950612160e+01 -3 0 0
1937 1 5.7381630733478941e+00 6.2932526719119188e+00 9.9800924298844702e+00 -1 0 1
3794 1 8.1357064896728382e+00 5.8521336806673343e+00 1.0918563672341522e+01 -1 5 0
2482 1 9.9927397057503047e+00 7.5914944401226148e+00 9.8060708202888680e+00 -1 0 1
1119 1 2.3877684154496697e+00 9.3367877303792550e+00 9.9879288689513963e+00 0 -1 1
263 1 1.5225408098130662e+00 1.1940923870413268e+01 1.0210803648714489e+01 3 1 0
4119 1 4.8984554648437877e+00 8.5645611012333518e+00 1.0618205556673189e+01 -3 0 1
5242 1 6.6199677798830541e+00 1.0545229158571654e+01 9.9443537892111511e+00 -1 0 0
365 1 9.0294483455893779e+00 9.8385976297308648e+00 1.0244219156777643e+01 -2 -1 0
5408 1 1.1027178247383567e+01 1.1617882857849155e+01 9.6283489658734105e+00 1 -4 0
23 1 2.6021358409667683e+00 1.6344673783590682e+01 1.0177499246144954e+01 -1 -1 1
2608 1 3.4091233820398914e+00 1.3968093908211774e+01 9.7352238219681162e+00 -1 2 1
4261 1 7.7542003428669091e+00 1.4769038023825859e+01 1.0166207012675759e+01 -1 1 1
3773 1 5.7808629439071701e+00 1.3114932761099421e+01 1.0660196509041301e+01 2 -4 0
2456 1 1.2268404538466193e+01 1.5588833344794837e+01 9.8500373161018473e+00 1 2 0
146 1 1.0594193341500377e+01 1.4027448111118023e+01 1.1061889505483554e+01 0 -2 0
81 1 4.5760144413004538e+00 1.8089173313610729e+01 9.6149315867198339e+00 3 0 0
4283 1 7.0693426739327574e+00 1.7487693319825599e+01 1.0458890644836027e+01 2 1 1
786 1 9.2862285052225904e+00 1.8999371799767108e+01 1.0017237870143278e+01 0 4 0
1981 1 1.1534438571170982e+01 1.8287168904508825e+01 1.0810503885903234e+01 1 2 0
5988 1 4.5614651196648126e-01 2.3618856166051753e+01 1.0579881697962879e+01 -2 0 1
4409 1 3.8492202399447941e+00 2.0681660658086464e+01 1.0530021145971386e+01 0 4 1
4610 1 1.4854871953403646e+00 2.1216455256727993e+01 9.6751606220193747e+00 -2 -1 1
2089 1 8.2759333107820066e+00 2.1509266760953764e+01 1.0543640427765222e+01 2 0 0
2904 1 5.7248155833833234e+00 2.2426488662542297e+01 9.7127707018644607e+00 1 1 1
3651 1 1.0089200229910530e+01 2.3371864470345503e+01 9.7032644496021145e+00 -2 -1 0
5544 1 1.9122838746394908e+00 2.7745816938335008e+00 1.3946073883868584e+01 0 4 0
1089 1 2.6581198726023318e+00 2.8236660594835061e-01 1.3314493725079325e+01 1 -3 1
4262 1 6.4369358054212134e+00 3.8782669551039199e+00 1.4101966644965531e+01 9 3 1
328 1 6.8669253058108568e+00 1.4525789418916208e+00 1.3090495732781097e+01 3 2 0
73 1 1.1625722712390276e+01 2.3018381287475496e+00 1.3301342431908994e+01 -2 0 0
5331 1 9.5702557551190299e+00 5.7657484226530520e-01 1.4197567199728150e+01 -2 -3 0
2719 1 4.0177131097451522e+00 4.4847292830308128e+00 1.3347570452811357e+01 1 0 1
5323 1 3.4170112864987479e+00 6.9658683684054807e+00 1.3961615638822991e+01 -2 0 0
2750 1 6.5383080562962959e-01 7.3406706820142809e+00 1.3261265132181009e+01 7 -1 1
1073 1 7.5724131471452285e+00 8.2596121238493208e+00 1.3940716749072026e+01 5 1 1
4252 1 8.0985307246779303e+00 5.9149262208141868e+00 1.3309978099986484e+01 1 1 1
5426 1 1.0665326298798444e+01 4.8044696173785733e+00 1.3924123571165161e+01 1 2 0
5264 1 1.8737200835445271e+00 1.1914178979223394e+01 1.3277743101448246e+01 1 -1 0
3408 1 4.1655546542774564e+00 1.1134803310103992e+01 1.4354112362345731e+01 -2 2 1
918 1 5.0441808651191380e+00 8.9037794031347506e+00 1.3168854715327647e+01 4 4 1
1734 1 9.4705622218394581e+00 9.7451293740541551e+00 1.3008376196831659e+01 1 -1 0
2744 1 1.1841302251259016e+01 9.2060669806004132e+00 1.4395737665960553e+01 3 1 1
5966 1 8.8051971136726852e+00 1.2288645400071099e+01 1.3986973459747270e+01 1 -2 1
5413 1 6.6064012778863845e-01 1.4147022194844169e+01 1.3580422689469964e+01 -3 2 0
2094 1 2.3283549275358650e+00 1.5983117481265177e+01 1.2890960673813829e+01 5 -2 0
2171 1 5.9515469258463023e+00 1.3015408643185237e+01 1.3393968711458827e+01 -2 -2 1
2789 1 4.9250484433901569e+00 1.5627053214586104e+01 1.3750518915642367e+01 2 0 1
948 1 1.0477081586849163e+01 1.4371352532735306e+01 1.3724990879630099e+01 1 -1 1
1165 1 1.8889540128781659e+00 1.8614163922116443e+01 1.3940518963096293e+01 3 -3 1
47 1 6.7892553209684579e+00 1.7606707969519551e+01 1.3065160144043713e+01 -3 -1 0
481 1 6.1871229221200403e+00 1.9926051365395363e+01 1.4103879943672373e+01 0 -1 0
1817 1 9.3476635609504157e+00 1.6643047594347511e+01 1.4209912286357387e+01 0 -3 1
1068 1 1.1417423955521381e+01 1.8209400948253482e+01 1.3442741816161174e+01 1 5 1
4141 1 3.8415389523648114e+00 2.0719870599632472e+01 1.3068145937058034e+01 -2 -3 0
5921 1 2.9082350658802327e+00 2.3198346446381645e+01 1.4070555287022309e+01 0 -2 0
2831 1 6.4165093841268261e-01 2.3914934507607171e+01 1.3297218048860067e+01 1 -1 1
5098 1 7.9823838307085007e+00 2.1571717287568919e+01 1.3153750279978683e+01 -2 -3 0
4334 1 7.3024818937809952e+00 2.4098613286807051e+01 1.4100677773092478e+01 -1 1 1
11 1 1.0663169785201127e+01 2.0854167223028494e+01 1.4015242640773517e+01 -2 1 0
6279 1 1.9365496252569965e+00 2.7975020982007539e+00 1.6499459430998748e+01 2 3 1
5318 1 6.4644429989368755e+00 3.4831064349032945e+00 1.6932188546037203e+01 5 1 0
3473 1 7.1255691216589430e+00 9.1286949576534571e-01 1.7638189732682839e+01 -5 3 1
3772 1 1.1423278344073269e+01 2.6242247339282416e+00 1.7619628435321832e+01 3 1 1
1996 1 9.6830749253784312e+00 7.4153011290791759e-01 1.6930223614742008e+01 -1 1 0
1942 1 6.3429154197210380e-01 7.5321248144844368e+00 1.9881206680771601e+01 -3 6 0
6278 1 3.8619396716591461e+00 4.4339662545154015e+00 1.7374574501987031e+01 3 3 0
6058 1 3.4074826212047142e+00 6.9729628868044964e+00 1.6409953924804078e+01 -1 1 1
223 1 3.9399776644571727e+00 4.3150464728569036e+00 2.0064999781225708e+01 1 -1 0
6181 1 6.2591340707952436e-01 7.6364627144207340e+00 1.7195819586064292e+01 4 0 1
2748 1 7.3173377103872026e+00 8.1813820799779648e+00 1.6748744474034215e+01 -1 -1 0
3541 1 8.0945767454683875e+00 5.6099811354082032e+00 1.7372758502368775e+01 1 -3 0
1211 1 1.0633828548565214e+01 4.9916420134222577e+00 1.6626658596770778e+01 -1 2 1
4523 1 1.6346530206105550e+00 1.1861426210606268e+01 1.7513572087547040e+01 -2 4 1
3528 1 1.3955165992455481e+00 1.2074228244231870e+01 1.9966705569542988e+01 1 0 0
4388 1 4.0989461233827740e+00 1.1296199887280197e+01 1.7112255001521380e+01 0 -1 1
302 1 4.9904798195178319e+00 8.8946177323567976e+00 1.7431066261508082e+01 4 3 1
6259 1 9.0364291721162893e+00 9.9962031333513615e+00 1.7628063881715718e+01 3 2 0
793 1 1.1822668245236231e+01 9.4215234256417499e+00 1.7040067543167709e+01 -2 3 1
2868 1 5.1289008821794291e-01 1.4230468338882256e+01 1.6339771500039895e+01 -3 -1 0
935 1 2.7254875899503102e+00 1.5891063802148073e+01 1.6844454814943347e+01 1 -1 1
2053 1 2.8630826867110453e+00 1.6311459451380376e+01 1.9564243451463028e+01 0 -4 0
5107 1 6.2502257885022461e+00 1.2835829630735795e+01 1.7848262402682561e+01 0 0 0
312 1 5.1731661684479882e+00 1.4741484760582694e+01 1.6563166597604489e+01 1 -4 0
2698 1 8.5919501206416165e+00 1.2435907211617049e+01 1.6813553262260065e+01 -1 3 1
1190 1 1.0567912674778089e+01 1.4122646546195924e+01 1.7577145254193340e+01 0 2 0
2096 1 2.0099431820759928e+00 1.8652654896577232e+01 1.6615340887723086e+01 2 -1 0
4365 1 3.8484266416913444e+00 2.0399432204310074e+01 1.7357512446242378e+01 3 -1 1
4251 1 6.1486080341253029e+00 1.9501505342960723e+01 1.6749951767991313e+01 -1 0 1
76 1 6.7008539002754661e+00 1.7015170309812294e+01 1.7556148838382452e+01 0 0 0
296 1 9.0630331298381552e+00 1.6580644809037704e+01 1.6879107720041095e+01 1 1 1
4410 1 1.0930326955663952e+01 1.8671903447059584e+01 1.7261895440078955e+01 -2 -2 0
4341 1 1.1161772128947673e+01 1.8583071695810705e+01 1.9836870955505695e+01 2 0 1
1095 1 3.9324736601774517e+00 2.0516590437421964e+01 2.0011467594894544e+01 -1 -1 1
3601 1 2.8141490174342541e+00 2.3004933142568753e+01 1.6943585693729119e+01 1 -5 1
4234 1 2.8773098465482372e-01 2.3856660624919421e+01 2.0017386860072765e+01 0 1 1
5813 1 2.7971718010973118e-01 2.3807872642420708e+01 1.7455450734621540e+01 0 2 0
773 1 7.8856283521501549e+00 2.1561825278200686e+01 1.7651639798883998e+01 0 -2 1
3730 1 6.8408782399941428e+00 2.4234247552969549e+01 1.7104485999144664e+01 -1 -2 0
287 1 1.0401179837298518e+01 2.0950346090214641e+01 1.6764226927093926e+01 1 3 0
5201 1 1.2170796620822006e+01 2.2962800133889029e+01 1.9964251081463519e+01 0 -2 0
3741 1 1.2319932654639974e+01 2.2888212536106245e+01 1.7393070829220079e+01 -3 0 0
2423 1 2.2091314430356839e+00 2.5538132623419236e+00 2.1195794170045225e+01 2 2 1
4238 1 6.2598665812614005e+00 3.7339014857632944e+00 2.3817821395277797e+01 2 -1 0
1958 1 7.0660344007604072e+00 1.3597391994679142e+00 2.0435459432030836e+01 -2 1 0
60 1 6.4696294601708750e+00 3.8095109338567514e+00 2.0974403344917445e+01 2 -1 0
2501 1 6.7444717692497012e+00 1.0897018737432207e+00 2.3717479843880529e+01 2 2 1
5154 1 1.1426436764556703e+01 2.0200314773598715e+00 2.0187324035447212e+01 1 -1 1
5358 1 9.4132096934691081e+00 3.1620220079188471e-01 2.0803650783802379e+01 2 -3 1
5517 1 1.0986028230830152e+01 2.2016759609428407e+00 2.3894338944710711e+01 -3 -2 0
5170 1 3.2034408001485986e+00 6.7355052780678308e+00 2.0482578879603686e+01 0 -1 0
4113 1 2.7240133239990079e+00 6.4646400582182553e+00 2.3358433442156105e+01 4 3 0
5248 1 3.1107754114169239e-01 7.4331089646697990e+00 2.3897220188577464e+01 1 2 0
2080 1 8.2553046146608988e+00 5.8449205734565588e+00 2.0319226362159259e+01 3 0 0
3695 1 7.3566297987295108e+00 8.1218646413745201e+00 2.1071044783380398e+01 2 2 0
3374 1 7.2556336541429740e+00 7.9743355489919763e+00 2.3824716781743234e+01 2 -4 0
5312 1 8.2448130506638488e+00 5.4922753053393842e+00 2.3904906808048679e+01 -4 1 1
895 1 1.0775092953951534e+01 4.7819009556637253e+00 2.0802530894135320e+01 2 1 1
6015 1 1.2345182246389905e+01 6.7006159150388633e+00 2.0204120243257581e+01 2 -3 1
452 1 1.0597900012904359e+01 4.7905248470688369e+00 2.3594172230520897e+01 4 -2 0
4577 1 3.8984970791423863e+00 1.1110446604575797e+01 2.3339070602757541e+01 -1 3 0
2873 1 4.1347904645066293e+00 1.1220280060510774e+01 2.0580018079242045e+01 3 5 1
2038 1 1.1478079161648482e+00 1.1930779470745611e+01 2.3503381449992048e+01 2 -3 0
3489 1 4.5983301547069813e+00 8.4349195737457148e+00 2.3557897806988382e+01 2 0 0
5177 1 4.8481851485259471e+00 8.5678166755609428e+00 2.0107364301994735e+01 -4 -2 0
849 1 9.2519775422610788e+00 1.0061891920518955e+01 2.0112688988931282e+01 -3 2 1
4121 1 1.1656161220175083e+01 9.2724201240529531e+00 2.0838493283630577e+01 0 2 1
5213 1 8.6322609184027321e+00 1.2307929746372542e+01 2.0942812785307353e+01 -1 -1 0
86 1 1.1647038068273528e+01 9.0112155177295605e+00 2.3386459569556802e+01 -4 3 0
2749 1 9.1127660907287176e+00 9.8587023348830236e+00 2.3939646520553246e+01 2 2 1
5999 1 1.1202525757186332e+00 1.4677863977260078e+01 2.0473597686497257e+01 1 -2 1
2596 1 2.9540113894165482e-01 1.4624708969864669e+01 2.3132157140727895e+01 1 3 1
4158 1 4.8370927696032116e+00 1.5393444035932063e+01 2.3646640381112633e+01 -1 -1 1
794 1 6.0565456325608871e+00 1.3074663246381466e+01 2.0541063843532751e+01 -2 -2 0
394 1 4.9954410946847787e+00 1.5695836886880294e+01 2.0924873460001262e+01 -2 -2 0
370 1 8.4291019036974841e+00 1.2385347017656077e+01 2.3597393790332543e+01 -1 -3 1
2628 1 1.0231382505421976e+01 1.4079609511738861e+01 2.0180875769093856e+01 -2 3 1
4582 1 1.7786942241009012e+00 1.8722635870993212e+01 2.3692889326310819e+01 1 0 1
5285 1 2.1069863317061346e+00 1.8847002218050818e+01 2.0842282289401879e+01 0 -3 0
2747 1 6.3010413940268215e+00 1.9855656786748529e+01 2.3463367189243396e+01 1 -4 1
5141 1 7.0109311081080365e+00 1.7212858844317225e+01 2.0113247393388910e+01 2 1 0
2675 1 6.3742509097693718e+00 1.9960072038515239e+01 2.0737812188809890e+01 1 2 0
4306 1 9.4194184702373622e+00 1.6818318093267344e+01 2.3477059692991091e+01 5 -3 1
1719 1 9.3511980530040635e+00 1.6584842962078067e+01 2.0931893204581044e+01 4 2 0
2762 1 2.8270115150559039e+00 2.2811365055079378e+01 2.3777427849012525e+01 -1 1 1
3654 1 2.8819210078841042e+00 2.2909567522646086e+01 2.1023407738722153e+01 1 2 0
1952 1 7.9617183450076476e+00 2.1723905316246416e+01 2.0371066911585455e+01 2 -3 0
2754 1 7.3682680084888430e+00 2.3998135658542143e+01 2.3844544572283048e+01 1 -3 1
3413 1 7.4679699954344159e+00 2.4495378154828721e+01 2.0984389490113646e+01 2 -2 0
6004 1 1.0707085793547291e+01 2.1102150947932643e+01 2.3471329345809082e+01 6 -1 1
114 1 1.0495428644297105e+01 2.0952627784032359e+01 2.0733907916745977e+01 2 0 0
511 2 2.0754467271652288e-01 3.0244526332598802e+00 2.6744468608486880e+01 0 0 0
512 2 2.0754467271652288e-01 2.0669980284239386e-01 2.6744468608486880e+01 0 0 0
513 2 1.4276674390812727e+00 9.1113801044703469e-01 2.6744468608486880e+01 0 0 0
517 2 1.4276674390812727e+00 2.3200144256563386e+00 2.6744468608486880e+01 0 0 0
518 2 2.6477902054460225e+00 3.0244526332598802e+00 2.6744468608486880e+01 0 0 0
519 2 2.6477902054460225e+00 2.0669980284239386e-01 2.6744468608486880e+01 0 0 0
520 2 3.8679129718092229e+00 9.1113801044703469e-01 2.6744468608486880e+01 0 0 0
528 2 3.8679129718092229e+00 2.3200144256563386e+00 2.6744468608486880e+01 0 0 0
3777 1 1.9725284859482464e+00 2.7356520028740507e+00 2.4242651594845903e+01 -3 -1 0
529 2 5.0880357381755221e+00 3.0244526332598802e+00 2.6744468608486880e+01 0 0 0
530 2 5.0880357381755221e+00 2.0669980284239386e-01 2.6744468608486880e+01 0 0 0
531 2 6.3081585045358626e+00 9.1113801044703469e-01 2.6744468608486880e+01 0 0 0
543 2 6.3081585045358626e+00 2.3200144256563386e+00 2.6744468608486880e+01 0 0 0
544 2 7.5282812709019229e+00 3.0244526332598802e+00 2.6744468608486880e+01 0 0 0
545 2 7.5282812709019229e+00 2.0669980284239386e-01 2.6744468608486880e+01 0 0 0
546 2 8.7484040372616718e+00 9.1113801044703469e-01 2.6744468608486880e+01 0 0 0
562 2 8.7484040372616718e+00 2.3200144256563386e+00 2.6744468608486880e+01 0 0 0
563 2 9.9685268036345214e+00 3.0244526332598802e+00 2.6744468608486880e+01 0 0 0
564 2 9.9685268036345214e+00 2.0669980284239386e-01 2.6744468608486880e+01 0 0 0
565 2 1.1188649569994647e+01 9.1113801044703469e-01 2.6744468608486880e+01 0 0 0
585 2 1.1188649569994647e+01 2.3200144256563386e+00 2.6744468608486880e+01 0 0 0
586 2 1.2408772336355202e+01 3.0244526332598802e+00 2.6744468608486880e+01 0 0 0
587 2 1.2408772336355202e+01 2.0669980284239386e-01 2.6744468608486880e+01 0 0 0
5462 1 3.8474350138990965e+00 4.2594339894833748e+00 2.4464604878099166e+01 3 3 0
514 2 2.0754467271652288e-01 7.2510818788878826e+00 2.6744468608486880e+01 0 0 0
515 2 2.0754467271652288e-01 4.4333290484702834e+00 2.6744468608486880e+01 0 0 0
516 2 1.4276674390812727e+00 5.1377672560725873e+00 2.6744468608486880e+01 0 0 0
524 2 1.4276674390812727e+00 6.5466436712826441e+00 2.6744468608486880e+01 0 0 0
525 2 2.6477902054460225e+00 7.2510818788878826e+00 2.6744468608486880e+01 0 0 0
526 2 2.6477902054460225e+00 4.4333290484702834e+00 2.6744468608486880e+01 0 0 0
527 2 3.8679129718092229e+00 5.1377672560725873e+00 2.6744468608486880e+01 0 0 0
539 2 3.8679129718092229e+00 6.5466436712826441e+00 2.6744468608486880e+01 0 0 0
540 2 5.0880357381755221e+00 7.2510818788878826e+00 2.6744468608486880e+01 0 0 0
541 2 5.0880357381755221e+00 4.4333290484702834e+00 2.6744468608486880e+01 0 0 0
542 2 6.3081585045358626e+00 5.1377672560725873e+00 2.6744468608486880e+01 0 0 0
558 2 6.3081585045358626e+00 6.5466436712826441e+00 2.6744468608486880e+01 0 0 0
559 2 7.5282812709019229e+00 7.2510818788878826e+00 2.6744468608486880e+01 0 0 0
560 2 7.5282812709019229e+00 4.4333290484702834e+00 2.6744468608486880e+01 0 0 0
561 2 8.7484040372616718e+00 5.1377672560725873e+00 2.6744468608486880e+01 0 0 0
581 2 8.7484040372616718e+00 6.5466436712826441e+00 2.6744468608486880e+01 0 0 0
582 2 9.9685268036345214e+00 7.2510818788878826e+00 2.6744468608486880e+01 0 0 0
583 2 9.9685268036345214e+00 4.4333290484702834e+00 2.6744468608486880e+01 0 0 0
584 2 1.1188649569994647e+01 5.1377672560725873e+00 2.6744468608486880e+01 0 0 0
605 2 1.1188649569994647e+01 6.5466436712826441e+00 2.6744468608486880e+01 0 0 0
606 2 1.2408772336355202e+01 7.2510818788878826e+00 2.6744468608486880e+01 0 0 0
607 2 1.2408772336355202e+01 4.4333290484702834e+00 2.6744468608486880e+01 0 0 0
521 2 2.0754467271652288e-01 1.1477711124512339e+01 2.6744468608486880e+01 0 0 0
522 2 2.0754467271652288e-01 8.6599582940981730e+00 2.6744468608486880e+01 0 0 0
523 2 1.4276674390812727e+00 9.3643965016960120e+00 2.6744468608486880e+01 0 0 0
535 2 1.4276674390812727e+00 1.0773272916906439e+01 2.6744468608486880e+01 0 0 0
536 2 2.6477902054460225e+00 1.1477711124512339e+01 2.6744468608486880e+01 0 0 0
537 2 2.6477902054460225e+00 8.6599582940981730e+00 2.6744468608486880e+01 0 0 0
538 2 3.8679129718092229e+00 9.3643965016960120e+00 2.6744468608486880e+01 0 0 0
554 2 3.8679129718092229e+00 1.0773272916906439e+01 2.6744468608486880e+01 0 0 0
555 2 5.0880357381755221e+00 1.1477711124512339e+01 2.6744468608486880e+01 0 0 0
556 2 5.0880357381755221e+00 8.6599582940981730e+00 2.6744468608486880e+01 0 0 0
557 2 6.3081585045358626e+00 9.3643965016960120e+00 2.6744468608486880e+01 0 0 0
577 2 6.3081585045358626e+00 1.0773272916906439e+01 2.6744468608486880e+01 0 0 0
578 2 7.5282812709019229e+00 1.1477711124512339e+01 2.6744468608486880e+01 0 0 0
579 2 7.5282812709019229e+00 8.6599582940981730e+00 2.6744468608486880e+01 0 0 0
580 2 8.7484040372616718e+00 9.3643965016960120e+00 2.6744468608486880e+01 0 0 0
601 2 8.7484040372616718e+00 1.0773272916906439e+01 2.6744468608486880e+01 0 0 0
602 2 9.9685268036345214e+00 1.1477711124512339e+01 2.6744468608486880e+01 0 0 0
603 2 9.9685268036345214e+00 8.6599582940981730e+00 2.6744468608486880e+01 0 0 0
604 2 1.1188649569994647e+01 9.3643965016960120e+00 2.6744468608486880e+01 0 0 0
625 2 1.1188649569994647e+01 1.0773272916906439e+01 2.6744468608486880e+01 0 0 0
626 2 1.2408772336355202e+01 1.1477711124512339e+01 2.6744468608486880e+01 0 0 0
627 2 1.2408772336355202e+01 8.6599582940981730e+00 2.6744468608486880e+01 0 0 0
532 2 2.0754467271652288e-01 1.5704340370141891e+01 2.6744468608486880e+01 0 0 0
533 2 2.0754467271652288e-01 1.2886587539722894e+01 2.6744468608486880e+01 0 0 0
534 2 1.4276674390812727e+00 1.3591025747330651e+01 2.6744468608486880e+01 0 0 0
550 2 1.4276674390812727e+00 1.4999902162543576e+01 2.6744468608486880e+01 0 0 0
551 2 2.6477902054460225e+00 1.5704340370141891e+01 2.6744468608486880e+01 0 0 0
552 2 2.6477902054460225e+00 1.2886587539722894e+01 2.6744468608486880e+01 0 0 0
553 2 3.8679129718092229e+00 1.3591025747330651e+01 2.6744468608486880e+01 0 0 0
573 2 3.8679129718092229e+00 1.4999902162543576e+01 2.6744468608486880e+01 0 0 0
2204 1 2.2001718039461147e+00 1.6253128128993207e+01 2.4195021108579390e+01 -2 -2 0
3366 1 5.7824343590792004e+00 1.2957861245216689e+01 2.4340407074874960e+01 -3 1 0
574 2 5.0880357381755221e+00 1.5704340370141891e+01 2.6744468608486880e+01 0 0 0
575 2 5.0880357381755221e+00 1.2886587539722894e+01 2.6744468608486880e+01 0 0 0
576 2 6.3081585045358626e+00 1.3591025747330651e+01 2.6744468608486880e+01 0 0 0
597 2 6.3081585045358626e+00 1.4999902162543576e+01 2.6744468608486880e+01 0 0 0
598 2 7.5282812709019229e+00 1.5704340370141891e+01 2.6744468608486880e+01 0 0 0
599 2 7.5282812709019229e+00 1.2886587539722894e+01 2.6744468608486880e+01 0 0 0
465 1 1.0268545813458092e+01 1.4347044026210023e+01 2.4322276323054691e+01 -1 -1 0
600 2 8.7484040372616718e+00 1.3591025747330651e+01 2.6744468608486880e+01 0 0 0
621 2 8.7484040372616718e+00 1.4999902162543576e+01 2.6744468608486880e+01 0 0 0
622 2 9.9685268036345214e+00 1.5704340370141891e+01 2.6744468608486880e+01 0 0 0
623 2 9.9685268036345214e+00 1.2886587539722894e+01 2.6744468608486880e+01 0 0 0
624 2 1.1188649569994647e+01 1.3591025747330651e+01 2.6744468608486880e+01 0 0 0
642 2 1.1188649569994647e+01 1.4999902162543576e+01 2.6744468608486880e+01 0 0 0
643 2 1.2408772336355202e+01 1.5704340370141891e+01 2.6744468608486880e+01 0 0 0
644 2 1.2408772336355202e+01 1.2886587539722894e+01 2.6744468608486880e+01 0 0 0
547 2 2.0754467271652288e-01 1.9930969615763168e+01 2.6744468608486880e+01 0 0 0
548 2 2.0754467271652288e-01 1.7113216785353952e+01 2.6744468608486880e+01 0 0 0
549 2 1.4276674390812727e+00 1.7817654992957937e+01 2.6744468608486880e+01 0 0 0
569 2 1.4276674390812727e+00 1.9226531408161765e+01 2.6744468608486880e+01 0 0 0
570 2 2.6477902054460225e+00 1.9930969615763168e+01 2.6744468608486880e+01 0 0 0
571 2 2.6477902054460225e+00 1.7113216785353952e+01 2.6744468608486880e+01 0 0 0
572 2 3.8679129718092229e+00 1.7817654992957937e+01 2.6744468608486880e+01 0 0 0
593 2 3.8679129718092229e+00 1.9226531408161765e+01 2.6744468608486880e+01 0 0 0
5905 1 3.9262296766824027e+00 2.0385782419533953e+01 2.4434429537119986e+01 0 -2 1
1883 1 6.7980134418214266e+00 1.7217700627777070e+01 2.4439786530485389e+01 -3 1 0
594 2 5.0880357381755221e+00 1.9930969615763168e+01 2.6744468608486880e+01 0 0 0
595 2 5.0880357381755221e+00 1.7113216785353952e+01 2.6744468608486880e+01 0 0 0
596 2 6.3081585045358626e+00 1.7817654992957937e+01 2.6744468608486880e+01 0 0 0
617 2 6.3081585045358626e+00 1.9226531408161765e+01 2.6744468608486880e+01 0 0 0
618 2 7.5282812709019229e+00 1.9930969615763168e+01 2.6744468608486880e+01 0 0 0
619 2 7.5282812709019229e+00 1.7113216785353952e+01 2.6744468608486880e+01 0 0 0
620 2 8.7484040372616718e+00 1.7817654992957937e+01 2.6744468608486880e+01 0 0 0
638 2 8.7484040372616718e+00 1.9226531408161765e+01 2.6744468608486880e+01 0 0 0
639 2 9.9685268036345214e+00 1.9930969615763168e+01 2.6744468608486880e+01 0 0 0
640 2 9.9685268036345214e+00 1.7113216785353952e+01 2.6744468608486880e+01 0 0 0
641 2 1.1188649569994647e+01 1.7817654992957937e+01 2.6744468608486880e+01 0 0 0
655 2 1.1188649569994647e+01 1.9226531408161765e+01 2.6744468608486880e+01 0 0 0
657 2 1.2408772336355202e+01 1.7113216785353952e+01 2.6744468608486880e+01 0 0 0
5889 1 1.1304298727756743e+01 1.8480291733177808e+01 2.4262851220738526e+01 4 2 1
4348 1 4.7194929492465088e-01 2.3652212331252123e+01 2.4377373058192916e+01 1 -1 1
613 2 3.8679129718092229e+00 2.3453160653799824e+01 2.6744468608486880e+01 0 0 0
566 2 2.0754467271652288e-01 2.4157598861407429e+01 2.6744468608486880e+01 0 0 0
567 2 2.0754467271652288e-01 2.1339846030970484e+01 2.6744468608486880e+01 0 0 0
568 2 1.4276674390812727e+00 2.2044284238582502e+01 2.6744468608486880e+01 0 0 0
589 2 1.4276674390812727e+00 2.3453160653799824e+01 2.6744468608486880e+01 0 0 0
590 2 2.6477902054460225e+00 2.4157598861407429e+01 2.6744468608486880e+01 0 0 0
591 2 2.6477902054460225e+00 2.1339846030970484e+01 2.6744468608486880e+01 0 0 0
592 2 3.8679129718092229e+00 2.2044284238582502e+01 2.6744468608486880e+01 0 0 0
615 2 5.0880357381755221e+00 2.1339846030970484e+01 2.6744468608486880e+01 0 0 0