LAMMPS data file via write_data, version 16 Mar 2018, timestep = 6000000

6736 atoms
2 atom types

0.0000000000000000e+00 4.9219999999999999e+01 xlo xhi
0.0000000000000000e+00 4.9019635930410494e+01 ylo yhi
5.7451422018144527e-01 5.9487485779820375e+01 zlo zhi

Masses

1 18.015
2 12.01

Atoms # atomic

6245 1 3.5956133033062718e+00 2.5136150275414999e+00 2.7292409159117375e+00 0 3 1
3531 1 7.6239337263948732e+00 7.6109784205065956e-01 5.6173998829446177e+00 -1 -3 0
2145 1 6.3348256629609914e+00 2.7860377745471747e+00 1.9062621654668850e+00 2 4 0
2213 1 1.2215688983657621e+01 2.3446365525846602e+01 2.9152536239638005e+00 0 -5 0
795 1 1.1148051610727043e+01 3.4360336340137674e+00 2.7224687973002175e+00 0 -4 0
4212 1 1.0218267098652303e+01 1.0882539997796263e+00 1.8387276961101691e+00 -3 -1 0
4433 1 2.3699538735777632e+00 4.5929987674346364e+00 1.5451883103898520e+00 -1 -4 1
1065 1 3.5234753332041739e+00 6.7767631017475294e+00 2.8643074993598252e+00 3 1 1
2835 1 7.5239126303502832e+00 5.0586554287751655e+00 2.5191152379498929e+00 3 2 1
2165 1 6.0260877954334022e+00 7.0258414006551044e+00 2.0594876430527504e+00 -1 1 0
6250 1 9.9032598521123170e+00 5.3995398692209564e+00 1.6034591771033739e+00 3 0 1
3739 1 1.0408857733380168e+01 7.8888682818220737e+00 2.8339609912498189e+00 0 2 0
5418 1 1.7278993037769947e+00 8.6294162139165458e+00 1.8944902682873750e+00 3 4 0
4542 1 2.7422456209006527e+00 1.1116221674919963e+01 2.6316853368879256e+00 0 -1 1
3 1 6.9570840743584590e+00 9.4744191414325414e+00 2.9019105388651472e+00 3 5 1
2829 1 5.1015298208024173e+00 1.1424812710639280e+01 1.6595662894517620e+00 0 -4 0
4269 1 9.1471970611708748e+00 1.0023511421695389e+01 1.9270718582684088e+00 0 -1 1
5240 1 1.0067050307113570e+01 1.2361588011112920e+01 2.6091356873168170e+00 0 -1 1
2076 1 1.3258697561329322e+00 1.2965454078976508e+01 1.4125293377692951e+00 3 -1 0
127 1 1.8981136022083467e+00 1.5374538509008410e+01 2.3439432564023752e+00 1 3 0
5226 1 4.6327198221920955e+00 1.5564861681228628e+01 1.5193557412585181e+00 -1 0 0
1105 1 5.9710488223293634e+00 1.3672323884221347e+01 2.5326104866543533e+00 3 -2 0
5920 1 8.5627632728730454e+00 1.4224828364333487e+01 1.5824072761694283e+00 2 4 1
879 1 1.2405234931919900e+00 1.9731412858919590e+01 2.1907156135154482e+00 2 -2 1
2012 1 3.9041753401885786e+00 2.0103215726033689e+01 1.0253642957397315e+00 1 -1 0
6046 1 1.1967679032019332e+01 5.2058706469907898e+00 8.7970291899591082e+00 3 2 1
4146 1 5.3908621055491119e+00 1.7925626614057361e+01 2.4918124353423865e+00 1 3 1
4587 1 7.7346146616644473e+00 1.8429113797891496e+01 1.5340245022298140e+00 1 2 1
163 1 5.3324766121331002e-01 2.4326611227343310e+01 2.2418697989077252e+00 2 1 0
5559 1 9.0788779225493741e+00 1.6480845305899646e+01 2.4050517828273081e+00 -3 1 0
1100 1 2.8494235366190368e-01 1.7476619954379732e+01 9.7016727385039658e+00 -2 -2 1
4251 1 4.4017672838929052e+00 2.2670940932614691e+01 2.5546233475118401e+00 3 1 1
5871 1 7.1073427407912098e+00 2.3146033338148055e+01 1.8040639541447141e+00 1 -2 1
1994 1 1.1314247738429936e+01 2.0633622380027045e+01 9.8458573998913756e+00 0 2 0
5935 1 8.4552095434133481e+00 2.0827775196159109e+01 2.9026735608633021e+00 2 3 1
897 1 1.1087443242720109e+01 2.1043869587751455e+01 1.8926590759117807e+00 -5 -6 1
5253 1 1.5007127096966983e+00 1.8308458304425637e+00 6.3274519798201743e+00 4 -3 0
37 1 1.1994805016998018e+01 5.5649966714846339e+00 6.3292428625685222e+00 -3 4 0
5995 1 4.0992115151523736e+00 2.3840102332191822e+00 5.4229611416291599e+00 -1 2 1
2924 1 7.4619612284546397e+00 1.8220389680412769e+01 9.9816647018536067e+00 -4 2 0
3403 1 8.8440527116718748e+00 2.8284371427904640e+00 6.4733785257892666e+00 1 -1 1
2064 1 1.1075853658386787e+01 2.9834037096113808e+00 5.4726670502219559e+00 -1 3 0
207 1 1.1187325682034788e+00 6.2488252205029173e+00 6.3481537871863996e+00 2 1 0
6100 1 3.5324138864175083e+00 6.9943306876464968e+00 5.3596797573191539e+00 4 2 1
1151 1 4.8699027823273715e+00 4.8223225575117761e+00 6.5437409910983497e+00 6 0 1
6204 1 7.3897289079223443e+00 5.0289461766025978e+00 5.3207136477676675e+00 2 2 0
6038 1 7.9310671993773845e+00 7.1580772962090036e+00 6.6431018060832443e+00 -1 -4 1
5486 1 1.0225496194428578e+01 1.7963646967236933e+01 8.7630794061806121e+00 -1 -1 0
6292 1 1.0452158181122652e+01 7.4764074983398050e+00 5.4547518721183064e+00 1 1 1
3648 1 9.5359563833421710e+00 2.3176457022917532e+01 9.0488353537801522e+00 1 -3 0
2752 1 2.7557484754204999e+00 1.1018185561014517e+01 5.2710600158621768e+00 -1 2 0
5861 1 4.1957526812457360e+00 9.2460443927112337e+00 6.3396949262866009e+00 0 -5 1
3489 1 6.8734818975557683e+00 9.2459771696960864e+00 5.4513584099108821e+00 1 4 0
927 1 7.8050139578849098e+00 1.1783629720778597e+01 6.3981259040707847e+00 2 -1 1
5507 1 1.1442079365622323e+01 1.0033111684773280e+01 6.1971906247044464e+00 -2 4 0
3386 1 1.0387733432197725e+01 1.2092825151859044e+01 5.2589647208248840e+00 0 6 0
1887 1 1.8398784105333263e+00 1.5472440115962513e+01 5.1257786464398452e+00 0 1 1
1777 1 3.4680507236131390e+00 1.3351682802514695e+01 6.4748422097011442e+00 1 -3 1
1852 1 6.1734042899300565e+00 1.3731251103994731e+01 5.3443440371468158e+00 2 2 0
3586 1 6.9886672628632693e+00 1.5931308224204331e+01 6.2823729673477899e+00 2 0 0
5588 1 1.0808971754417563e+01 1.4423933962891578e+01 6.1391310575604798e+00 1 3 0
6107 1 2.7404004991946502e+00 1.7930127950123509e+01 5.7417461293152181e+00 0 0 0
2632 1 1.1038472078999284e+00 2.0133200759044296e+01 4.7269071854046221e+00 -1 -1 1
3690 1 5.3519121342116787e+00 1.7985312197106168e+01 5.1588360497459531e+00 1 -2 0
2009 1 9.1542556437805889e+00 1.6445134164322834e+01 5.0819585989159783e+00 4 2 0
2701 1 1.0408612345249526e+01 1.8604951186261513e+01 6.1139621027681077e+00 2 -2 1
1153 1 4.7749216077398982e-01 2.4009069046241574e+01 5.0988205737860701e+00 -3 4 1
5095 1 2.3119495014312785e+00 2.2408040684262680e+01 6.1037496109836686e+00 -1 -2 1
5444 1 6.1172422509255560e+00 2.0385817770459070e+01 6.2057429898116059e+00 -3 5 0
4529 1 4.7522306239619017e+00 2.2625357022868055e+01 5.0563691311685552e+00 -2 -3 1
3560 1 6.0731846607294395e+00 2.0408718171959464e+01 8.7598635036050059e+00 -1 0 0
2171 1 8.7413861985029175e+00 2.0840182984200126e+01 5.5775532054006334e+00 2 0 1
2749 1 9.9961131947415858e+00 2.3361187647822376e+01 6.4320138908747424e+00 -1 0 1
5275 1 1.6857912755422368e+00 1.9657844181153779e+00 8.9361655470219201e+00 -2 -3 0
3601 1 2.8484951163174372e+00 2.4369276710649807e+01 9.7671472447098378e+00 -6 0 1
1868 1 6.0352632242513780e+00 2.5303753425616549e+00 9.9991625215103070e+00 1 -4 0
2601 1 1.1724768753750311e+01 1.6844087116670707e+01 1.6229523203934737e+00 1 -4 1
340 1 8.8205290560519014e+00 2.8348164802700229e+00 9.4646935964381456e+00 0 1 0
1121 1 1.0472583348330812e+01 8.1565779696224994e-01 1.0051960698540320e+01 2 -1 1
5959 1 2.2490726194707875e+00 4.3882556875734924e+00 1.0128598393333800e+01 0 2 1
5084 1 1.0737979962022350e+00 6.2513140755443999e+00 9.0386939243206239e+00 0 2 0
1075 1 6.8937615660387799e+00 2.2767267332171123e+01 1.0111763993876012e+01 -3 0 0
5495 1 4.9119171954735918e+00 4.8054122803076105e+00 9.1739655113732290e+00 0 1 0
915 1 5.5264677053726095e+00 7.0132161501495300e+00 1.0279624039867743e+01 3 2 1
6024 1 7.8855115865410381e+00 7.2642357948358631e+00 9.1476922751978709e+00 1 3 1
5280 1 9.5101440567995574e+00 5.2743218371457727e+00 9.8944753157950398e+00 3 1 0
4346 1 1.4131172747194563e+00 8.7215684694608999e+00 9.9227187221708189e+00 0 -4 1
1083 1 4.0223881176620022e+00 8.7924129068083481e+00 8.9837306388072378e+00 4 -4 1
6254 1 7.6861029894830875e+00 1.1853809736113732e+01 9.2081935223352449e+00 1 1 1
1195 1 5.2434272603740215e+00 1.1155571528005643e+01 9.8329172811909871e+00 0 0 1
5455 1 9.0622069917199948e+00 9.9000260181033024e+00 1.0173380475851975e+01 -3 3 0
1996 1 1.1638830196785804e+01 1.0054244593017380e+01 9.0998910110751297e+00 -1 0 0
5889 1 3.9220629413539347e+00 1.3055252719396806e+01 9.1456323569333922e+00 1 0 1
5869 1 1.0881521018485818e+00 1.2985889979926304e+01 9.7698349027613460e+00 1 -1 1
5972 1 4.0980811089638571e+00 1.5599064083416184e+01 9.7252341396332298e+00 0 1 1
6094 1 6.7244620117407043e+00 1.5837985550414036e+01 9.0704351441355495e+00 3 -2 1
2706 1 8.5750385197747470e+00 1.4268088517934331e+01 1.0177187005494078e+01 1 -1 0
1779 1 1.0910628421225697e+01 1.4459614953689716e+01 8.7923579179225424e+00 -2 0 1
778 1 3.5608980004883573e+00 2.0151501377770582e+01 9.6135951558224093e+00 0 -1 1
4511 1 2.6902814920547296e+00 1.7767304717886848e+01 8.3936203471051414e+00 1 -1 1
3645 1 2.0529579532816633e-01 1.7439528973787738e+01 1.4789782374262277e+00 3 0 0
6297 1 1.8346080847879087e+00 2.2067028597127823e+01 8.7788037244963668e+00 -2 1 0
5078 1 5.1701562008192319e+00 1.2251563519038468e-01 6.3358203218182743e+00 2 2 0
1844 1 7.9491620832463923e+00 7.7382133276609733e-01 2.9170760015992685e+00 -1 -4 0
6252 1 1.0658686504413870e-01 1.0586023749808808e+01 6.3579066622963776e+00 -2 -1 1
4513 1 1.2116453469882117e+01 1.6232653694562458e+01 1.0083821128706127e+01 0 2 0
793 1 2.1587048638834758e-01 1.0661041413485760e+01 8.7297183611374791e+00 2 2 1
5383 1 4.9871006643442897e+00 2.2953466643196738e-01 8.9186521889275738e+00 2 4 1
3480 1 9.4537450381977117e-01 1.2580590056631381e+01 1.2316920400723316e+01 0 2 0
405 1 3.8889913649125925e+00 2.4579236645363514e+00 1.3671007869050136e+01 0 1 0
1225 1 8.4271155361467098e+00 2.0602457828028033e+01 2.0872159778919563e+01 -3 0 1
1189 1 9.9480922466117422e-02 1.0714544411535357e+01 1.7101217319887819e+01 -1 -3 1
2690 1 1.2045260572935447e+01 5.7622221977624575e+00 1.7201297219444307e+01 -2 1 1
2717 1 4.1783675460428915e+00 1.5572332364099706e+01 1.2558231711226419e+01 4 2 1
2429 1 1.1657566642703083e+01 3.5855610103444397e+00 1.3268774213590840e+01 0 -7 0
937 1 7.9298121755963216e+00 1.8588015681033482e+01 2.3854219909400587e+01 1 -2 1
2692 1 3.4283009513210851e+00 6.8885729190193654e+00 1.3814083068176593e+01 0 1 1
5979 1 7.5201488493100763e+00 5.1943465229779964e+00 1.3910494354261076e+01 0 -7 1
3674 1 1.5745049507714709e-01 2.3807406605454297e+01 1.3316297226476911e+01 1 2 0
1239 1 1.0630092918682266e+01 7.7817570387125938e+00 1.3656002778595585e+01 -1 3 1
1175 1 1.2208847960793589e+01 5.7914807115244038e+00 1.9943927708214883e+01 0 -3 1
4107 1 2.5017057821776620e+00 1.0798598559638535e+01 1.3663746190191656e+01 0 0 1
2880 1 8.0488654229076104e+00 5.1122584150008998e-01 1.3488848012048015e+01 6 -2 1
5203 1 6.5291728196073393e+00 9.2489144047142311e+00 1.3879532410190151e+01 3 2 0
4430 1 5.2378095723925417e+00 1.8234237918311166e+01 2.3007386779657963e+01 0 5 1
4478 1 6.5351434243026951e-01 2.3951601635631107e+01 2.1187145843723606e+01 4 -3 0
2492 1 1.0079030454066794e+01 1.2154562537127390e+01 1.3430828987754735e+01 0 -2 0
6299 1 1.6917950831950475e+00 1.5212067520112170e+01 1.3286558253469705e+01 -1 1 0
3397 1 3.5950748235546457e+00 2.0365699384371712e+01 1.2388008979573183e+01 -1 -1 1
5984 1 5.7375501901673145e+00 1.3264079539213961e+01 1.3486221699452653e+01 4 2 1
2642 1 8.9422096370859894e+00 2.1563519474413290e+01 2.3689743134762210e+01 0 0 1
339 1 5.3141447751423740e+00 2.7563526180397196e-01 1.7031964120325970e+01 1 1 0
2608 1 9.9904253021130462e-01 1.9665136961260057e+01 1.3289403242456000e+01 0 -2 1
5414 1 7.9120207790053270e+00 1.8099467818865243e+01 1.2471364703981211e+01 0 2 0
3698 1 5.1579339446760208e+00 1.8224871834957735e+01 1.3089623370266912e+01 3 1 0
3700 1 8.4988746998961595e+00 1.4118060189212111e+01 1.2691051629559569e+01 -2 -1 0
4401 1 9.7725383942812805e+00 1.6342552563926752e+01 1.3716405535998911e+01 -1 0 1
846 1 9.9991163496303503e+00 5.4521547214847974e+00 1.2622758032710927e+01 0 1 1
4388 1 4.7902948958233349e+00 2.3141982827860758e+01 2.3228629135651310e+01 -5 -1 1
145 1 2.7106716065766094e+00 2.4446445036794131e+01 1.2691602835451373e+01 -3 -2 1
6133 1 4.1501522497936136e+00 2.2515971239673508e+01 1.3598954487327578e+01 5 0 1
4285 1 8.6295276539853685e+00 2.0374064503164117e+01 1.3099787662993116e+01 1 4 1
2043 1 4.3595308750495114e+00 2.2323502315403964e+01 1.6139298915541914e+01 0 -3 0
2487 1 3.1100372703972812e+00 2.1026275504532732e+00 2.3474768119202153e+01 -1 2 0
87 1 8.0983870287868793e+00 2.9376125089212435e-01 1.6121934106577207e+01 -2 3 0
774 1 4.2285863873815382e-01 2.3938995721985314e+01 1.5856062663977800e+01 -3 -1 0
5865 1 3.8008022677373723e+00 2.4201722468412665e+00 1.6319118437171191e+01 -2 -3 1
2905 1 1.0983039186430406e+00 1.7294482555116779e+00 1.7208847908675018e+01 1 1 1
5403 1 9.6432346817703007e-01 2.0012247405423178e+00 1.9865783329851215e+01 4 0 0
383 1 5.2715161665678787e+00 6.0921366939460042e-01 1.9839031142339568e+01 4 -5 0
5873 1 1.2068485496780752e+01 1.8133251631545342e+01 2.3411659027317921e+01 0 -3 1
4294 1 1.1424958608432179e+01 3.3715279259314772e+00 1.6178468198724207e+01 -1 -3 1
6273 1 8.8383259221549029e+00 2.5659002897705467e+00 1.7124879971781173e+01 6 4 0
2491 1 8.5830997664162290e+00 3.2242376569207516e+00 2.0071475818014857e+01 2 -1 1
3860 1 3.1228247010844457e+00 6.7969398135339265e+00 1.6446828499964436e+01 0 -2 0
3379 1 5.8934266368616728e-01 6.3517207435948855e+00 1.7358040631399408e+01 3 2 1
4317 1 5.3641834887089945e-01 6.5025512206926050e+00 2.0113391079034820e+01 0 0 1
3689 1 7.2450811716573087e+00 4.7265315498575839e+00 1.6697650758152204e+01 2 -3 0
2087 1 4.3062912359351291e+00 4.5876026117265400e+00 1.9815291791797069e+01 1 1 0
2812 1 4.5629878206673915e+00 4.7811351325296680e+00 1.7265122914266968e+01 1 1 1
2102 1 7.9655465276275654e+00 7.2254095050726814e+00 1.7408026138007418e+01 1 1 0
1243 1 8.1214195978171340e+00 7.4856493371238431e+00 2.0135796169850323e+01 -3 1 1
1127 1 1.9785357027875412e+00 1.1121947533500057e+01 2.3218768907521785e+01 0 3 1
1216 1 1.0272560772598398e+01 7.7099213567500424e+00 1.6426887531006471e+01 -3 6 0
5819 1 2.6491306121340528e+00 1.1064966761454249e+01 1.6409388995421402e+01 2 0 1
1089 1 1.0580673686377299e+01 7.4972249775654429e+00 2.3641439976027463e+01 1 1 1
361 1 3.9271163800674227e+00 9.1574440870671339e+00 2.0114769291182458e+01 5 5 0
440 1 4.1433801035765576e+00 9.1944980233991558e+00 1.7477343210723443e+01 -3 -2 0
46 1 6.6599235713129552e+00 9.1332416859019450e+00 1.6797839053205728e+01 2 2 0
117 1 7.6581448357281392e+00 1.1550692005878862e+01 1.7656929345730386e+01 1 -2 0
2498 1 7.4042827480459872e+00 1.1784278440944439e+01 2.0186985156634456e+01 -1 -3 1
6088 1 9.9929124054372505e+00 1.2643459516534769e+01 1.6210077985928791e+01 -5 3 1
6258 1 1.1189098669319803e+01 1.0379430557638505e+01 1.7303232073442416e+01 0 6 0
1096 1 1.8213652695635545e+00 1.5398752213796184e+01 1.5945017165580047e+01 1 -3 1
3553 1 3.1188272843088920e+00 1.3490175855479464e+01 1.7191381490207622e+01 -3 -1 0
115 1 3.3603158471936183e+00 1.3503807708284585e+01 2.0223430844155217e+01 1 0 1
2187 1 5.6518179392625916e+00 1.3345779163029139e+01 1.6043591414952186e+01 0 -1 0
836 1 6.3661771812043737e+00 1.5855546656581232e+01 1.7087324626680957e+01 3 1 1
1215 1 1.1338180085211391e+01 1.4599380263860819e+01 1.7377900063309404e+01 -1 -2 1
1742 1 1.1089232852875581e+01 1.4312717798406098e+01 2.0000411523669481e+01 -3 1 0
5349 1 9.7841882523378165e-01 1.9764650906748887e+01 1.5886687392528870e+01 4 -2 0
5587 1 2.5772630277939670e+00 1.7710387076641329e+01 1.9800071650427167e+01 3 -1 0
2860 1 2.5662004925138202e+00 1.7832979089397661e+01 1.7078868937835452e+01 -1 4 1
5196 1 4.9016941101379681e+00 1.8135801554836146e+01 1.6013162376579114e+01 5 -2 0
2514 1 5.9491065301418296e+00 2.0240802562152805e+01 1.6891800346685255e+01 1 -3 1
924 1 9.2088377708508773e+00 1.6001417799407228e+01 1.6376916362305849e+01 6 -2 1
325 1 9.9415207851220071e+00 1.8410535744670671e+01 1.7225874447101500e+01 2 1 0
2044 1 1.0041671208340565e+01 1.8586207226720131e+01 1.9960571215118218e+01 2 -1 0
1757 1 1.9535896296396007e+00 2.2135647259492902e+01 1.9673479608313613e+01 3 -1 0
6016 1 1.9444908428036369e+00 2.1979720535352051e+01 1.6809985022977969e+01 2 -2 1
1081 1 5.9369755962653219e+00 2.0454056912046980e+01 1.9589074817902716e+01 0 2 1
5213 1 8.5519591527036045e+00 2.0309025169068775e+01 1.5842113682296411e+01 2 3 0
1969 1 9.5408396158546207e+00 2.2456825574048036e+01 1.7117498141384541e+01 2 3 1
4544 1 9.2529898839484748e+00 2.2977014224040392e+01 1.9753421909776190e+01 1 0 1
2579 1 1.1433188566712325e+01 2.2912037414390387e+01 2.3235770030226774e+01 4 -3 1
1891 1 3.2378827550021416e+00 2.3052351415177661e+00 2.0784881455373359e+01 -1 -1 1
1103 1 1.2223074431054556e+01 1.6237017910042528e+01 1.2773021156644536e+01 0 2 1
5427 1 7.5615288450114253e+00 5.3220592320047000e-01 2.3597302343168678e+01 -3 4 0
2202 1 7.7511035332343106e+00 7.2854251273360660e-01 2.0821776180999976e+01 -2 -1 0
6157 1 1.0460809084311702e+01 1.1617738901565426e+00 1.2814917585040353e+01 5 4 1
146 1 1.0979296067005626e+01 3.5912607375948582e+00 2.0856069783338640e+01 1 -2 0
5806 1 1.1211625062327467e+01 3.4035220331345215e+00 2.3472065716446984e+01 0 0 0
2747 1 3.1399311056653731e+00 6.6524648663241255e+00 2.0955120071713271e+01 2 1 1
2575 1 2.5576957602746466e+00 6.5276263830726400e+00 2.3835510764626630e+01 -2 1 1
784 1 7.5750656669920735e-01 8.7993935778940298e+00 2.3900086810312811e+01 -1 -1 0
4385 1 6.8294107910262962e+00 5.1915876490660899e+00 2.3445000193593717e+01 3 -2 1
3612 1 6.7842375019513907e+00 5.1366528420205642e+00 2.0577689122536921e+01 3 2 0
4477 1 2.4833613115463189e+00 4.3866694821277905e+00 1.2876809849045523e+01 -5 4 1
4361 1 1.0651079265614271e+01 7.7791966335123703e+00 2.1022097012098342e+01 -1 0 1
1712 1 5.9789589910751682e+00 7.0083724353162307e+00 1.2720843432066117e+01 -1 1 1
1904 1 2.3263424194577325e+00 1.1180931283869027e+01 2.0658000444424022e+01 3 -1 1
246 1 7.3851667068934130e+00 2.3964781381284151e+01 2.3288420799570321e+01 -2 -2 0
2665 1 1.2100995674366198e+01 2.3525726295637106e+01 1.6038922309450605e+01 0 -4 1
5303 1 6.4186947421276255e+00 9.5017829976989212e+00 2.1126554999256417e+01 -3 3 0
242 1 6.3046384378598246e+00 9.6496766341735860e+00 2.3703221367361145e+01 0 2 0
316 1 1.1303106347561748e+01 1.0334036932795314e+01 2.0015060017036920e+01 -3 0 0
4106 1 9.7066714810375156e+00 1.2314010153985780e+01 2.0978641319256166e+01 2 1 1
1002 1 4.5542837666001157e+00 2.2521650936923866e+01 2.0503753256847620e+01 0 0 1
6291 1 6.5202170910037367e+00 2.7508350015666343e+00 1.2843649683568870e+01 2 -1 1
4540 1 1.6206154102070973e+00 1.5207768848032901e+01 2.0760308714847376e+01 -2 -2 1
4138 1 5.7822281766873660e+00 1.3965131191629499e+01 2.0910747724464510e+01 0 -2 1
6001 1 6.7649663304447492e+00 1.6077157244985919e+01 1.9726364376728114e+01 1 1 1
3498 1 5.5675072384181368e+00 1.3975746117756746e+01 2.3609779259964768e+01 4 0 0
3827 1 9.0988706943106941e+00 9.8368811794321172e+00 1.2836249445872689e+01 1 -1 0
4242 1 1.7611210611190085e+00 8.5250942419893114e+00 1.2651015094578712e+01 -3 1 1
824 1 1.1415769189545981e+00 1.9857467438788074e+01 2.0871058396221574e+01 0 4 1
3728 1 1.4611129172362298e+00 1.9829163605583215e+01 2.3723392595131820e+01 4 2 0
5514 1 5.1897130064284100e+00 1.8001524230122257e+01 2.0329179052234696e+01 0 -3 0
419 1 1.2166326187391023e+01 2.3374736961235680e+01 1.3547088261695004e+01 4 3 0
6207 1 9.5540325840967579e+00 1.6646229060843215e+01 2.3471503833869516e+01 -3 -2 1
3616 1 9.3467343579168851e+00 1.6156777241191925e+01 2.0812021740545678e+01 1 0 0
2091 1 1.4850575129546790e+00 1.5701459685438326e+01 2.3303499768546953e+01 0 1 0
5209 1 9.8353704508626443e+00 1.2430631531549206e+01 2.3892726465586495e+01 0 0 1
4438 1 1.1720380154357452e+01 2.3020463439120579e+01 2.0608368467074150e+01 1 -1 0
5583 1 9.1986089430481073e+00 9.8181971310851512e+00 2.4079874776665285e+01 1 7 0
4461 1 1.0097346677130897e+01 1.0340144785546834e+00 2.3783489634098110e+01 1 3 1
3446 1 9.5051538288089077e+00 5.2473126294587038e+00 2.4022616505517501e+01 0 1 1
6230 1 4.2206761457604038e+00 2.0852502549796760e+01 2.3889829375381275e+01 -3 -1 1
125 1 1.1145742731031383e+01 2.0942065943003694e+01 1.2481154528047981e+01 -1 2 1
5190 1 2.1214184642255721e-01 1.7362904657545723e+01 1.2426728976322231e+01 1 0 1
5581 1 6.8066676448438788e+00 2.2717763814405323e+01 1.2745528389916641e+01 3 -2 0
3812 1 6.2556277795948745e-03 1.0641269456204123e+01 1.9806467400005836e+01 2 -1 0
5437 1 2.9425573079120477e+00 2.6070013465201214e-02 1.2870369487897751e+01 3 -2 0
1235 1 4.5382428928186425e+00 1.1537814854579223e+01 2.3843517303287371e+01 -3 0 1
377 1 5.2359898421223621e+00 7.2570365683735112e+00 2.4134094029114571e+01 3 -1 0
1978 1 5.7957796846199825e+00 2.4168486802166349e+00 2.4073812340911719e+01 -1 0 0
2105 1 4.7149042989890493e+00 1.0977244069645586e+01 1.2719904513680921e+01 -1 0 0
511 2 0.0000000000000000e+00 2.8417180249513345e+00 2.6784234971384482e+01 0 0 0
512 2 0.0000000000000000e+00 0.0000000000000000e+00 2.6784234971384482e+01 0 0 0
513 2 1.2305000000000001e+00 7.1042950623783474e-01 2.6784234971384482e+01 0 0 0
517 2 1.2305000000000001e+00 2.1312885187134998e+00 2.6784234971384482e+01 0 0 0
518 2 2.4610000000000003e+00 2.8417180249513345e+00 2.6784234971384482e+01 0 0 0
519 2 2.4610000000000003e+00 0.0000000000000000e+00 2.6784234971384482e+01 0 0 0
520 2 3.6915000000000004e+00 7.1042950623783474e-01 2.6784234971384482e+01 0 0 0
528 2 3.6914999999999996e+00 2.1312885187134998e+00 2.6784234971384482e+01 0 0 0
529 2 4.9220000000000006e+00 2.8417180249513332e+00 2.6784234971384482e+01 0 0 0
530 2 4.9220000000000006e+00 0.0000000000000000e+00 2.6784234971384482e+01 0 0 0
531 2 6.1524999999999999e+00 7.1042950623783407e-01 2.6784234971384482e+01 0 0 0
543 2 6.1524999999999999e+00 2.1312885187134989e+00 2.6784234971384482e+01 0 0 0
544 2 7.3829999999999991e+00 2.8417180249513345e+00 2.6784234971384482e+01 0 0 0
545 2 7.3829999999999991e+00 0.0000000000000000e+00 2.6784234971384482e+01 0 0 0
1551 2 8.6134999999999984e+00 2.3444173705848499e+01 3.3277765028617722e+01 0 0 0
546 2 8.6134999999999984e+00 7.1042950623783407e-01 2.6784234971384482e+01 0 0 0
562 2 8.6134999999999984e+00 2.1312885187135002e+00 2.6784234971384482e+01 0 0 0
563 2 9.8440000000000012e+00 2.8417180249513332e+00 2.6784234971384482e+01 0 0 0
564 2 9.8440000000000012e+00 0.0000000000000000e+00 2.6784234971384482e+01 0 0 0
565 2 1.1074500000000002e+01 7.1042950623783330e-01 2.6784234971384482e+01 0 0 0
585 2 1.1074500000000002e+01 2.1312885187135002e+00 2.6784234971384482e+01 0 0 0
514 2 0.0000000000000000e+00 7.1042950623783341e+00 2.6784234971384482e+01 0 0 0
515 2 0.0000000000000000e+00 4.2625770374269996e+00 2.6784234971384482e+01 0 0 0
516 2 1.2305000000000001e+00 4.9730065436648339e+00 2.6784234971384482e+01 0 0 0
524 2 1.2305000000000001e+00 6.3938655561404980e+00 2.6784234971384482e+01 0 0 0
525 2 2.4610000000000003e+00 7.1042950623783341e+00 2.6784234971384482e+01 0 0 0
526 2 2.4610000000000003e+00 4.2625770374269996e+00 2.6784234971384482e+01 0 0 0
527 2 3.6914999999999996e+00 4.9730065436648339e+00 2.6784234971384482e+01 0 0 0
539 2 3.6914999999999996e+00 6.3938655561404980e+00 2.6784234971384482e+01 0 0 0
540 2 4.9220000000000006e+00 7.1042950623783341e+00 2.6784234971384482e+01 0 0 0
541 2 4.9220000000000006e+00 4.2625770374269978e+00 2.6784234971384482e+01 0 0 0
542 2 6.1524999999999999e+00 4.9730065436648339e+00 2.6784234971384482e+01 0 0 0
558 2 6.1524999999999999e+00 6.3938655561404980e+00 2.6784234971384482e+01 0 0 0
559 2 7.3830000000000009e+00 7.1042950623783341e+00 2.6784234971384482e+01 0 0 0
560 2 7.3829999999999991e+00 4.2625770374269996e+00 2.6784234971384482e+01 0 0 0
270 1 2.1652852518229082e-01 2.2042859527396139e+01 2.4333538921055432e+01 1 0 0
561 2 8.6135000000000002e+00 4.9730065436648339e+00 2.6784234971384482e+01 0 0 0
581 2 8.6135000000000002e+00 6.3938655561404980e+00 2.6784234971384482e+01 0 0 0
582 2 9.8440000000000012e+00 7.1042950623783341e+00 2.6784234971384482e+01 0 0 0
583 2 9.8440000000000012e+00 4.2625770374270004e+00 2.6784234971384482e+01 0 0 0
584 2 1.1074500000000002e+01 4.9730065436648339e+00 2.6784234971384482e+01 0 0 0
605 2 1.1074500000000002e+01 6.3938655561404980e+00 2.6784234971384482e+01 0 0 0
1516 2 6.1524999999999990e+00 2.2023314693372832e+01 3.3277765028617722e+01 0 0 0
521 2 0.0000000000000000e+00 1.1366872099805333e+01 2.6784234971384482e+01 0 0 0
522 2 0.0000000000000000e+00 8.5251540748539991e+00 2.6784234971384482e+01 0 0 0
523 2 1.2305000000000001e+00 9.2355835810918343e+00 2.6784234971384482e+01 0 0 0
535 2 1.2305000000000001e+00 1.0656442593567498e+01 2.6784234971384482e+01 0 0 0
536 2 2.4610000000000003e+00 1.1366872099805333e+01 2.6784234971384482e+01 0 0 0
537 2 2.4610000000000003e+00 8.5251540748539991e+00 2.6784234971384482e+01 0 0 0
538 2 3.6915000000000004e+00 9.2355835810918343e+00 2.6784234971384482e+01 0 0 0
554 2 3.6914999999999996e+00 1.0656442593567499e+01 2.6784234971384482e+01 0 0 0
555 2 4.9220000000000006e+00 1.1366872099805333e+01 2.6784234971384482e+01 0 0 0
556 2 4.9220000000000006e+00 8.5251540748539991e+00 2.6784234971384482e+01 0 0 0
557 2 6.1524999999999999e+00 9.2355835810918343e+00 2.6784234971384482e+01 0 0 0
577 2 6.1524999999999999e+00 1.0656442593567499e+01 2.6784234971384482e+01 0 0 0
578 2 7.3829999999999991e+00 1.1366872099805333e+01 2.6784234971384482e+01 0 0 0
579 2 7.3830000000000009e+00 8.5251540748539991e+00 2.6784234971384482e+01 0 0 0
580 2 8.6134999999999984e+00 9.2355835810918343e+00 2.6784234971384482e+01 0 0 0
601 2 8.6134999999999984e+00 1.0656442593567498e+01 2.6784234971384482e+01 0 0 0
602 2 9.8440000000000012e+00 1.1366872099805333e+01 2.6784234971384482e+01 0 0 0
603 2 9.8440000000000012e+00 8.5251540748539956e+00 2.6784234971384482e+01 0 0 0
604 2 1.1074500000000002e+01 9.2355835810918343e+00 2.6784234971384482e+01 0 0 0
625 2 1.1074500000000002e+01 1.0656442593567498e+01 2.6784234971384482e+01 0 0 0
626 2 1.2304999999999998e+01 1.1366872099805333e+01 2.6784234971384482e+01 0 0 0
532 2 0.0000000000000000e+00 1.5629449137232333e+01 2.6784234971384482e+01 0 0 0
533 2 0.0000000000000000e+00 1.2787731112280996e+01 2.6784234971384482e+01 0 0 0
534 2 1.2305000000000001e+00 1.3498160618518829e+01 2.6784234971384482e+01 0 0 0
550 2 1.2305000000000001e+00 1.4919019630994494e+01 2.6784234971384482e+01 0 0 0
551 2 2.4610000000000003e+00 1.5629449137232328e+01 2.6784234971384482e+01 0 0 0
552 2 2.4610000000000003e+00 1.2787731112280996e+01 2.6784234971384482e+01 0 0 0
553 2 3.6915000000000004e+00 1.3498160618518829e+01 2.6784234971384482e+01 0 0 0
573 2 3.6915000000000004e+00 1.4919019630994494e+01 2.6784234971384482e+01 0 0 0
574 2 4.9220000000000006e+00 1.5629449137232333e+01 2.6784234971384482e+01 0 0 0
575 2 4.9220000000000006e+00 1.2787731112280996e+01 2.6784234971384482e+01 0 0 0
576 2 6.1524999999999990e+00 1.3498160618518829e+01 2.6784234971384482e+01 0 0 0
597 2 6.1524999999999990e+00 1.4919019630994494e+01 2.6784234971384482e+01 0 0 0
598 2 7.3829999999999991e+00 1.5629449137232333e+01 2.6784234971384482e+01 0 0 0
599 2 7.3829999999999991e+00 1.2787731112280996e+01 2.6784234971384482e+01 0 0 0
1537 2 8.6135000000000002e+00 2.2023314693372832e+01 3.3277765028617722e+01 0 0 0
600 2 8.6135000000000002e+00 1.3498160618518835e+01 2.6784234971384482e+01 0 0 0
621 2 8.6135000000000002e+00 1.4919019630994494e+01 2.6784234971384482e+01 0 0 0
622 2 9.8440000000000012e+00 1.5629449137232328e+01 2.6784234971384482e+01 0 0 0
623 2 9.8440000000000012e+00 1.2787731112280996e+01 2.6784234971384482e+01 0 0 0
624 2 1.1074500000000002e+01 1.3498160618518829e+01 2.6784234971384482e+01 0 0 0
642 2 1.1074500000000002e+01 1.4919019630994494e+01 2.6784234971384482e+01 0 0 0
547 2 0.0000000000000000e+00 1.9892026174659328e+01 2.6784234971384482e+01 0 0 0
548 2 0.0000000000000000e+00 1.7050308149707998e+01 2.6784234971384482e+01 0 0 0
549 2 1.2305000000000001e+00 1.7760737655945832e+01 2.6784234971384482e+01 0 0 0
569 2 1.2305000000000001e+00 1.9181596668421495e+01 2.6784234971384482e+01 0 0 0
570 2 2.4610000000000003e+00 1.9892026174659328e+01 2.6784234971384482e+01 0 0 0
571 2 2.4610000000000003e+00 1.7050308149707998e+01 2.6784234971384482e+01 0 0 0
572 2 3.6914999999999996e+00 1.7760737655945832e+01 2.6784234971384482e+01 0 0 0
593 2 3.6914999999999996e+00 1.9181596668421495e+01 2.6784234971384482e+01 0 0 0
594 2 4.9220000000000006e+00 1.9892026174659328e+01 2.6784234971384482e+01 0 0 0
595 2 4.9220000000000006e+00 1.7050308149707998e+01 2.6784234971384482e+01 0 0 0
596 2 6.1524999999999999e+00 1.7760737655945832e+01 2.6784234971384482e+01 0 0 0
617 2 6.1524999999999999e+00 1.9181596668421495e+01 2.6784234971384482e+01 0 0 0
618 2 7.3829999999999991e+00 1.9892026174659328e+01 2.6784234971384482e+01 0 0 0
619 2 7.3830000000000009e+00 1.7050308149707998e+01 2.6784234971384482e+01 0 0 0
620 2 8.6134999999999984e+00 1.7760737655945832e+01 2.6784234971384482e+01 0 0 0
638 2 8.6135000000000002e+00 1.9181596668421495e+01 2.6784234971384482e+01 0 0 0
639 2 9.8440000000000012e+00 1.9892026174659335e+01 2.6784234971384482e+01 0 0 0
640 2 9.8440000000000012e+00 1.7050308149707998e+01 2.6784234971384482e+01 0 0 0
641 2 1.1074500000000002e+01 1.7760737655945835e+01 2.6784234971384482e+01 0 0 0
655 2 1.1074500000000002e+01 1.9181596668421495e+01 2.6784234971384482e+01 0 0 0
657 2 1.2304999999999998e+01 1.7050308149707998e+01 2.6784234971384482e+01 0 0 0
613 2 3.6915000000000004e+00 2.3444173705848499e+01 2.6784234971384482e+01 0 0 0
566 2 0.0000000000000000e+00 2.4154603212086325e+01 2.6784234971384482e+01 0 0 0
567 2 0.0000000000000000e+00 2.1312885187134999e+01 2.6784234971384482e+01 0 0 0
568 2 1.2304999999999993e+00 2.2023314693372832e+01 2.6784234971384482e+01 0 0 0
589 2 1.2304999999999993e+00 2.3444173705848499e+01 2.6784234971384482e+01 0 0 0
590 2 2.4610000000000003e+00 2.4154603212086325e+01 2.6784234971384482e+01 0 0 0
591 2 2.4610000000000003e+00 2.1312885187134995e+01 2.6784234971384482e+01 0 0 0
592 2 3.6914999999999996e+00 2.2023314693372832e+01 2.6784234971384482e+01 0 0 0