LAMMPS data file via write_data, version 16 Mar 2018, timestep = 100000

6736 atoms
2 atom types

0.0000000000000000e+00 4.9219999999999999e+01 xlo xhi
0.0000000000000000e+00 4.9019635930410494e+01 ylo yhi
9.0131411604984280e-01 5.9160685883949284e+01 zlo zhi

Masses

1 18.015
2 12.01

Atoms # atomic

6289 1 9.3484976698512980e+00 1.8210351449182252e+01 1.0543246815802643e+01 1 -1 1
2492 1 7.6772586180742124e+00 2.2612683427240384e+01 1.2849857410350001e+00 0 -1 0
1899 1 2.7005440859962211e+00 7.4786695956370615e+00 1.2389401776851344e+01 0 1 1
4387 1 7.5810113684687979e+00 4.8533609924693026e+00 4.0103112684200255e+00 2 -1 1
464 1 7.1813631610284645e+00 3.1780933574025902e+00 1.9046925130831300e+00 1 0 0
6024 1 1.0409223710818527e+00 1.1474321051166925e+01 2.4346731147764613e+00 1 1 1
3751 1 3.8214585450148086e+00 2.4097685334477429e+01 6.7482564939795315e+00 1 -1 0
2074 1 2.4800280245236341e+00 5.0624841966080885e+00 3.4673658913049090e+00 0 1 0
2481 1 4.8750610757628339e+00 6.5329415242082698e+00 2.8945141613323644e+00 -1 0 1
371 1 1.1565842462277450e+01 8.0872429802169350e+00 1.1248898892311612e+01 1 0 0
3443 1 5.0335543379958425e-01 2.0872636621745084e+01 8.3816285094047114e+00 1 1 0
2455 1 6.6041002441944663e+00 9.4804063207961864e+00 2.1047573793058039e+00 0 0 0
418 1 1.1275830453329597e+01 7.5667840299294351e+00 3.5708709657945099e+00 0 0 0
1149 1 3.6049631502363699e-01 1.4246969233200946e+00 1.1503026924511754e+01 0 2 1
1781 1 1.6796164402667491e+00 1.2537348444450565e+01 5.0717397041075429e+00 1 -2 0
4468 1 4.5110121153506583e-01 2.1123979311112642e+00 2.9560654284610859e+00 1 0 1
5388 1 7.6983682136383997e+00 6.6696576299101649e+00 1.5937584445463071e+00 1 0 0
2874 1 1.0562422868896167e+01 1.0232292409908496e+01 3.1786269250286741e+00 0 1 1
5385 1 1.0167515841314834e+00 2.4274925082221170e+01 1.2174253588136215e+01 1 0 0
6108 1 1.0575547503131608e+01 2.5711325298181436e+00 2.2634185692555002e+00 0 0 1
2173 1 2.6765093423696706e+00 1.6987184656473762e+01 3.6439701428060265e+00 -1 0 0
2589 1 4.9409005484208279e+00 2.1948851135002528e+01 1.1246110112355128e+01 1 0 1
1855 1 4.5728748825222851e+00 1.5648760959144491e+01 1.9224144958707285e+00 -1 0 0
5854 1 5.4854181009159175e+00 1.3630868749310256e+01 3.3639126695879993e+00 1 1 0
299 1 7.9851003123821780e+00 1.3994034085862861e+01 3.9609456253794550e+00 2 0 0
3754 1 9.4723998914785330e+00 1.3444348842541064e+01 1.6799875027554889e+00 1 -1 0
2725 1 1.0784182871528989e+01 1.8619742986592924e+00 9.8071624154543429e+00 2 1 1
1886 1 3.6113777769659533e-01 1.9024906879853592e+01 4.5210912237859517e+00 0 -1 1
2807 1 4.5402842988172942e+00 1.1088997428148618e+01 2.6123151316652011e+00 0 0 0
4503 1 1.7758265724333040e+00 3.5702665601970822e+00 1.2366145384406233e+01 2 0 1
207 1 1.1709646443093771e+01 2.3758209385241649e+01 1.0374228834956813e+01 0 0 0
945 1 1.0702285767130364e+01 1.9788832457231592e+01 2.8750225183676683e+00 0 1 1
4264 1 9.1109939248744709e+00 2.2519167744386692e+01 1.0835401969530066e+01 1 0 1
5305 1 2.4733142312617344e+00 1.9485045026076335e+01 2.3439881427119422e+00 1 0 0
1839 1 8.7215355541667261e+00 6.7128906743917616e-01 6.1052184618810621e+00 1 1 1
1061 1 9.9847045901430818e+00 1.5802825350560902e+01 1.2103363394466427e+01 0 0 1
4144 1 1.1110892250063326e+01 2.0290477733181405e+01 1.1597010962104017e+01 0 1 1
1930 1 7.2289903255211234e+00 2.0578140527025031e+01 1.2008509452343004e+01 1 -1 0
2080 1 2.8885838405833772e+00 4.3251262829246304e+00 9.9789499294439121e+00 1 0 0
843 1 2.1519356638414147e+00 2.0502838097909266e+00 5.0183541909624321e+00 1 0 0
5461 1 2.0899533867380935e+00 3.4251867720063744e+00 7.2808675248351120e+00 1 1 0
6208 1 1.0363236566110873e+01 6.9798059623558748e+00 1.2812924085501995e+00 2 1 1
6007 1 6.4147588901212025e+00 2.4654245101152132e+00 6.2136624232367330e+00 2 0 1
5514 1 4.5961424546413232e+00 2.5166376032450719e+00 3.8892285646331266e+00 1 0 0
6131 1 1.1984882419886159e+01 2.2270644084973529e+01 2.0854285081603923e+00 0 1 1
5847 1 3.1688678098325482e+00 8.5693885185849563e+00 2.3252858606153928e+00 1 0 1
27 1 2.9271559652805186e+00 6.1148731436207076e+00 6.6155980016420601e+00 0 0 0
5816 1 1.5404265447911958e+00 8.0127178919643445e+00 4.6684158899627182e+00 0 0 1
889 1 5.1990046674668777e+00 6.2564142196567820e+00 5.7313275442682583e+00 0 -1 1
5133 1 6.9144487780620354e+00 5.0296555894694377e+00 7.6346666473295395e+00 0 0 0
238 1 9.6221038729851678e+00 3.0677984188384921e+00 4.7532921133096231e+00 1 -1 1
800 1 9.0906786513954287e+00 6.7729406673786166e+00 5.0664821120388970e+00 0 0 1
2821 1 9.5122923053698845e+00 6.2314383788800018e+00 7.6526831031991414e+00 -1 -2 0
3461 1 3.2033006520251175e+00 1.0216660083673485e+01 5.9557121374514486e+00 0 0 0
2183 1 7.5076677221219166e+00 9.0278979571111257e+00 4.8721772372688372e+00 2 0 0
4536 1 5.5498870682441224e+00 9.0648995486787030e+00 6.8699331291272197e+00 0 -1 1
411 1 1.1256781651642045e+01 1.1420454227999295e+01 5.3579720493252436e+00 -1 0 0
4581 1 7.9088480716768057e+00 2.2811473024299893e+01 8.3686029256421168e+00 1 0 1
275 1 3.9643557125067896e-01 1.1251015364725655e+01 1.2238158440629741e+01 1 1 0
1019 1 1.1885850517808341e+00 1.2408008207880368e+01 9.6135400314811790e+00 1 0 1
5883 1 4.2223506247525346e+00 1.6036652557391200e+01 7.4719255627570060e+00 1 -1 1
2212 1 3.9918623307457217e+00 1.3993474737860742e+01 5.7274301331313575e+00 1 0 0
4442 1 9.2500135822514444e+00 1.6096142886308193e+01 5.0322333846144627e+00 1 1 1
2083 1 6.7784974482168430e+00 1.7569224419144877e+01 1.6157024457840676e+00 1 0 0
4485 1 1.1737459808102679e+01 1.5899862514859512e+01 4.3795180033115004e+00 1 0 1
5936 1 3.4180994074650212e-01 2.1299158745030297e+01 5.8226997530945308e+00 2 1 1
6016 1 1.2013507521162292e+00 1.7328141330312963e+01 6.5354886380678110e+00 1 -1 1
2758 1 4.8874945191600698e+00 1.8074251031469249e+01 5.3750297868946202e+00 1 -1 1
315 1 2.2069701268088591e+00 1.5092752128878601e+01 9.4700803324331471e+00 1 -1 0
2503 1 7.2945233259389015e+00 1.7683680106010641e+01 4.0757957194646863e+00 0 0 1
4384 1 8.7780113224405714e+00 1.6387381117521535e+01 7.5698534144784215e+00 1 0 1
5419 1 2.7844638746849677e+00 2.2336269669464542e+01 4.9031403093145629e+00 1 0 0
3815 1 4.8186345750117354e+00 1.9670371663778102e+01 7.9497735755328103e+00 2 0 0
5137 1 8.6272870554598207e+00 6.3934100702505836e-01 1.4686185937584346e+00 -1 -1 1
3647 1 4.4299166677559318e+00 2.0351090752314395e+01 4.3449372012616383e+00 0 2 0
6053 1 6.6756259697942788e+00 2.1784065005748545e+01 3.8379658141498028e+00 -2 0 1
1866 1 6.6678253131258893e+00 1.8784823898969094e+01 9.9375139211739132e+00 0 1 0
85 1 1.0453822783699852e+01 1.8747455979243703e+01 8.0307608661005965e+00 1 -1 0
4334 1 8.7085309241333899e+00 2.0333797678238518e+01 4.7189105037653594e+00 1 -2 1
2486 1 9.8225221098229412e+00 2.1183939944838535e+01 7.0872840909788142e+00 1 1 1
4179 1 2.0077912400646625e+00 9.4287866493469752e-01 9.3383202366232574e+00 0 -1 1
1034 1 5.0981721431255860e+00 1.4629727382740043e-03 3.6307283146769120e+00 0 0 1
5089 1 5.2631630334060118e+00 2.1961086878767131e+00 8.9598093980188978e+00 1 2 1
2585 1 7.4339034025359654e+00 1.6366234838131792e+00 1.0637168049769235e+01 1 0 1
4355 1 1.1190329993160050e+01 5.0518714022775741e+00 1.1228592945338063e+01 1 1 1
5277 1 1.2293314266471100e+01 5.3090121668040293e+00 8.4840415162531961e+00 -1 0 1
3396 1 1.5071984042013891e+00 9.5083670322713214e+00 8.0327036456127949e+00 0 1 1
5859 1 2.8602062396061214e+00 7.6035570492122577e+00 9.3719120246414995e+00 1 2 1
1969 1 2.8442687884033120e+00 2.0188274601505526e+01 1.1501694725691817e+01 2 0 1
1058 1 5.6400275772708230e+00 4.9818613297606085e+00 1.0409610592169575e+01 0 1 1
292 1 5.5084258482028234e+00 8.0818373404593498e+00 9.2779935530840305e+00 1 0 0
1231 1 8.3198945887277524e+00 4.2212312911277943e+00 1.1071303544448247e+01 0 1 0
4585 1 1.8836886349757036e+00 2.3199883302492996e+01 2.6162488249057247e+00 0 0 1
2760 1 6.5159197640641486e-01 2.3454643504703466e+01 9.0807220922812775e+00 1 -1 1
3401 1 3.8141732005361209e+00 1.1032791234153295e+01 9.7581914509007710e+00 1 0 0
991 1 5.9538519021804515e+00 1.2737023325442053e+01 9.5936026609527296e+00 0 0 1
3535 1 5.7052983442419531e+00 1.2177084970006657e+01 6.9956275357931297e+00 0 0 0
1846 1 7.3648979171069522e+00 9.3299513052407477e+00 1.1351349200072789e+01 0 2 0
1187 1 9.5863815027135555e+00 8.6101849026708166e+00 9.2899209120983937e+00 1 0 1
2709 1 8.3908146116204563e+00 1.1691334576438646e+01 5.7071405990917556e+00 1 0 1
253 1 8.4641077793438180e-01 1.7217376842281059e+01 1.0867181544862230e+01 0 0 0
2927 1 4.2575884019369310e+00 1.4465728977099108e+01 1.1315081112265263e+01 2 2 1
5930 1 6.4365214062065688e+00 1.6093575104394521e+01 9.0651210543193592e+00 1 -1 0
30 1 1.0992533708066034e+01 1.4931829710636386e+01 9.1276868327330938e+00 0 0 0
828 1 9.0012274388622266e+00 1.2915022891553201e+01 1.1394681648107774e+01 0 1 1
6119 1 8.7398932854450706e+00 1.1361944130807125e+01 8.8107951580327803e+00 1 2 1
469 1 5.3825099690565397e+00 2.2585287600091281e+01 8.4800414171211678e+00 1 -2 0
4115 1 1.1198725339244376e+01 3.0724588503969099e+00 7.1296113980529379e+00 1 -1 1
1901 1 2.1676749370255051e+00 1.8962443039630053e+01 8.7778599326632296e+00 0 0 0
3775 1 5.2622356257711580e+00 1.7039154137750771e+01 1.2036877808696634e+01 1 1 0
1808 1 1.1960655742998595e+01 9.9326432709242027e+00 7.5929935710578178e+00 1 -1 0
3536 1 3.3615260868671726e-02 5.6698974870825563e+00 1.2006468836345432e+01 1 1 1
3516 1 1.2028954677971299e+01 1.3725086612858977e+01 2.6000306584197013e+00 2 0 0
2811 1 1.1967146916225374e+01 2.2400429374536813e+01 6.3867096909839871e+00 0 -1 0
764 1 6.4181520301447010e+00 1.2039791082914741e+01 1.2502462664902751e+01 0 1 1
385 1 3.3292309391607162e+00 9.9535512875433056e+00 1.2324611706800889e+01 0 0 0
3806 1 9.6941041028310657e+00 2.4317767014162651e+01 1.3587512498983745e+00 -1 -1 0
3372 1 1.2293158489068196e+01 1.1176769487228169e+01 1.0200406292380231e+00 0 0 1
3734 1 4.4812353919653223e+00 2.4386662782153056e+01 1.2436094092065748e+01 1 0 0
1787 1 5.2395038532366565e+00 1.9882074820984336e+01 9.2840650605239716e-01 1 -1 1
4203 1 4.5480638994595814e+00 3.5868816108431911e+00 1.1205435906768741e+00 -1 1 1
62 1 2.9652415055001047e+00 1.7423007829465460e+00 1.3989425869764801e+01 1 1 0
6218 1 6.7283822090171128e+00 2.4194042266949744e+01 2.2436401346091071e+01 1 0 1
138 1 6.9030728891026671e-01 2.1458470777869103e+01 1.2817220433092526e+01 0 -1 1
2141 1 2.6009853091298454e+00 1.3056240667182012e+01 1.3246814173666465e+01 0 0 0
5160 1 4.3563973684390209e+00 4.2485397809049630e+00 1.4610894958608796e+01 1 2 1
15 1 1.1077173196072293e+01 1.4763923693855283e+00 1.5214929172498952e+01 0 0 0
4534 1 6.0888822663179782e+00 6.9273205580146806e+00 2.3708486725963905e+01 1 0 0
2578 1 5.2068381317307733e+00 6.4010698687784728e+00 1.2904965000255462e+01 0 0 1
969 1 6.0770123474845961e-01 4.0645848359345873e+00 1.5866941303931384e+01 0 0 1
5296 1 3.1729999451399418e+00 2.4238246757167296e+01 2.4094261360474057e+01 1 0 0
1245 1 8.1274620010912706e+00 7.3385276065042344e+00 1.4172976144330612e+01 -1 0 0
282 1 7.7967128410711490e+00 4.3589252103988025e+00 1.4205820751257138e+01 1 -1 0
5457 1 5.2978339460389750e+00 2.3072156731429541e+01 2.0245944089521807e+01 1 0 0
1228 1 1.2195685763388303e+01 6.5389292654767157e+00 2.3432843700980886e+01 0 0 1
5190 1 5.7662239743891384e+00 9.3110269029016575e+00 1.4036016003641340e+01 1 1 1
5285 1 6.1280090980554069e-01 2.1195924631450120e+00 2.3582228832398666e+01 1 2 0
2850 1 6.7638544037305595e+00 2.2615511572569343e+01 1.4048225076448523e+01 0 0 1
3602 1 1.0433503672136855e+01 8.4588681448135183e+00 1.4628181187440630e+01 1 1 0
5870 1 8.6682464336117349e+00 1.1726299311370152e+01 1.7054101061532904e+01 1 1 0
6051 1 7.8944594035046842e+00 3.9058611177568130e+00 2.3420085218023949e+01 0 0 1
428 1 1.1369324494447371e+01 2.1661356058330508e+01 2.3734799924264824e+01 0 0 0
3673 1 2.8909691734812548e+00 2.4241443805237591e+01 2.1224487800442791e+01 0 0 0
4109 1 4.7102014221707975e+00 1.4297222163553329e+01 1.7509756730502243e+01 1 0 0
2513 1 3.9926951087099920e+00 1.8552708243779605e+01 1.3948540212292684e+01 -1 -1 1
5588 1 3.5233961769440572e+00 1.5892341727324895e+01 2.3600934187015909e+01 1 0 0
5102 1 1.8854841577739845e+00 1.5205690353955017e+01 1.7495207305188185e+01 2 1 1
503 1 4.5859352563159881e+00 1.2543648167946564e+01 1.5130181630593343e+01 0 0 0
2198 1 8.4761303433727058e+00 1.2664750334398750e+01 1.4534535033311442e+01 1 0 0
6089 1 1.4909406776179466e+00 1.7525721327284707e+01 1.3547797054296167e+01 1 2 1
5306 1 1.1838791552429182e+01 2.3689877360283251e+01 1.8905655236749499e+01 -1 0 0
1095 1 3.6363102213704481e+00 9.6579730281566370e-02 2.0936574076712379e+01 0 0 1
6111 1 5.4821125044268959e-01 1.9249597262445782e+01 1.6141980516800196e+01 1 -1 1
3787 1 4.8257310087353273e+00 1.7093725092875506e+01 1.6126445144584107e+01 1 1 0
5508 1 7.6014390917520762e+00 1.6498285888063350e+01 1.3478653677188181e+01 2 1 0
5384 1 7.4219251997978519e+00 1.5224241244867454e+01 1.5996800964862176e+01 2 0 1
2131 1 1.0542022848860006e+01 1.9174462117844911e+01 1.4240451575514097e+01 1 -1 0
3816 1 5.0140080883769107e+00 9.1358650572088995e-01 1.6082174215515973e+01 1 0 0
4607 1 1.1845994313489914e+00 1.5132018116042785e+01 1.4986825107276866e+01 1 0 1
3608 1 2.1450299035565030e+00 2.1958930836718473e+01 1.5370513673342062e+01 0 -1 0
58 1 4.4224997003536535e+00 2.0618245768197912e+01 2.1271523088551213e+01 0 0 1
3842 1 7.5755376703173258e+00 2.2734679513933841e+01 1.6657187190363079e+01 1 0 0
1023 1 1.0447584847325995e+01 1.7191895589073596e+01 2.3245302754063054e+01 1 1 1
2539 1 1.1932287153484657e+01 1.2479308989700050e+01 1.2985295598228538e+01 0 -2 1
4457 1 5.1359124779648768e+00 2.8886439063348264e+00 1.8489363340834711e+01 1 1 1
359 1 8.4074775386883047e+00 2.0800656567717422e+00 1.5477787126946771e+01 0 0 0
2181 1 8.0009593164347947e+00 2.8771652441028599e+00 1.8556044701967160e+01 -1 0 0
6040 1 6.0845624184892237e+00 1.8097328762151446e+00 2.1518857929432340e+01 0 -1 1
5372 1 1.1015337108746248e+01 2.1615888089857432e+01 1.5941670008956873e+01 1 0 0
2844 1 1.7936009150780898e+00 3.8764925720387109e+00 1.8087810679392909e+01 0 -1 1
3480 1 5.9980677120016272e+00 5.0006421918614992e+00 1.6720236538799316e+01 0 0 0
6079 1 9.1722849822810080e+00 5.1102603279474552e+00 1.9208935558641912e+01 1 1 1
5459 1 7.8655892475294999e+00 7.0285510352526321e+00 1.6834493294410525e+01 0 1 0
465 1 8.8809859227327870e+00 6.4088066635307950e+00 2.1772762694251746e+01 0 0 0
200 1 1.0942428069233154e+01 3.7743891132834637e+00 2.1244473961055551e+01 -1 0 0
6209 1 2.1305547952101045e+00 6.2981887015058495e+00 1.5126694435603051e+01 0 1 1
2854 1 3.8025617120903776e+00 6.1619451409743995e+00 1.8659438765132524e+01 -2 0 1
2820 1 6.8375291530289735e+00 9.7554888160113773e+00 1.7288460337491099e+01 0 1 1
488 1 9.0062068852368373e+00 9.3726529772053571e+00 2.1587265119028682e+01 0 0 0
3594 1 8.7360891941524557e+00 2.0398828651241367e+01 2.3725648410703762e+01 3 0 0
4524 1 1.0692213706002706e+01 9.7581061050710787e+00 1.7137021946543626e+01 0 0 1
5820 1 3.6001728859944908e+00 1.1717657980605511e+01 1.8989895792540853e+01 0 1 1
329 1 4.2802967240662291e+00 1.0102533893621610e+01 1.6854198508597968e+01 1 1 0
823 1 7.3419353268101997e+00 1.2945507371199220e+01 2.0764153085270586e+01 2 0 1
2010 1 5.5530603257109750e+00 1.4643776248369905e+01 2.0252237536264595e+01 0 -1 1
4523 1 9.6296567430860911e+00 1.3161243227098003e+01 1.9265895798134522e+01 1 0 1
3389 1 9.2731839502656115e+00 1.5772789361167984e+01 1.7554689314560974e+01 3 0 0
153 1 8.0012867685611599e+00 1.8749830285935754e+01 1.4427601648064488e+01 0 0 0
1130 1 8.8649098189137039e+00 1.7868619428248302e+01 1.9510640416635550e+01 0 0 1
2170 1 9.8428547783380882e+00 2.1983243683922968e+01 2.0029704249996531e+01 1 0 0
5526 1 2.3001472341940596e+00 1.7820233706934225e+01 1.8383100811391408e+01 1 1 0
3814 1 4.6210550623825144e+00 2.1114539643907836e+01 1.5284899101529973e+01 1 0 0
2655 1 5.6001523650518079e+00 2.0960904240490940e+01 1.7754962096409990e+01 -1 -1 1
4436 1 6.9896553371699772e+00 1.8573129198507388e+01 1.7234783981258555e+01 2 1 1
2192 1 9.1485608536318281e+00 2.0807538745454465e+01 1.7673874426145648e+01 1 -1 0
4371 1 1.1345146409916344e+01 2.3225981156422950e+01 1.3591313060837193e+01 0 0 1
6176 1 3.4483842262773567e-01 1.4866448562428922e+00 1.5308640489396613e+01 0 1 1
5076 1 1.5696144952254618e+00 1.1818637721920732e+01 2.2849678669467647e+01 1 1 1
2018 1 7.2420792210095684e+00 2.9770588903408646e-01 1.3128167949818977e+01 1 1 0
5979 1 2.3278496348170745e+00 8.2705297667758728e+00 1.7290215496701908e+01 0 -1 1
948 1 1.3806147314836137e-01 7.9793410824348641e+00 1.4049787388571971e+01 1 0 1
5228 1 8.8971179119582704e+00 1.3806656788328679e+00 2.0620467550263527e+01 1 1 0
3492 1 1.6430204115829161e+00 5.0441437363969701e+00 2.1043736856763338e+01 1 0 0
4574 1 4.6062675824738175e+00 4.2412680021966365e+00 2.1518490657381886e+01 0 0 0
4266 1 5.2365502693261474e+00 1.8466276571103936e+01 2.3302187975249460e+01 1 2 1
6041 1 5.9141454487610652e+00 6.6198434764312939e+00 2.0906239366108146e+01 1 1 1
3455 1 1.7004198737656622e+00 2.0382573815890616e+01 2.1166201166234035e+01 0 1 0
5292 1 9.7295549807694837e-01 1.3361133368502752e+01 1.9374752932506311e+01 2 0 1
980 1 2.8976396762394114e+00 6.5112395448285165e-01 2.3802261060777159e+01 1 -1 1
1227 1 1.1646031365777478e+01 1.8269773854890532e+00 1.2678467732932335e+01 0 -1 0
1796 1 1.1124057513108763e+01 1.4553105964205733e+01 1.4909548706409153e+01 0 1 0
5271 1 3.7366935317778753e+00 1.0498633108874941e+01 2.1284746005205559e+01 1 0 0
6052 1 1.1942225843464776e+01 7.0729034653039271e+00 2.0673277452362100e+01 -1 0 1
5540 1 7.8466595432815396e+00 2.0330535640591069e+01 2.1221854265221218e+01 2 2 0
1856 1 1.8346289259636419e+00 1.3503144077835194e+00 1.9116737089572670e+01 0 1 1
4176 1 6.4962510908126401e+00 1.0303243827459895e+01 2.0088958618770260e+01 0 0 1
1189 1 5.5937774816896129e+00 9.9728103516423356e+00 2.3769990193267795e+01 1 0 1
4336 1 1.0123180412655744e+01 1.0264255002411799e+01 1.2649125835727569e+01 -1 0 1
851 1 1.0429601673528598e+01 6.8856986660558626e+00 1.8090894481778665e+01 1 1 1
4385 1 1.2032980558107880e+01 2.0601532464425578e+01 2.1195230535335675e+01 0 -1 1
6298 1 1.1327374357756334e+01 1.7829486559204025e+01 2.0822777877319421e+01 -1 1 0
262 1 8.4760840472045000e+00 1.3447327480732760e+01 2.3312975356768522e+01 0 1 1
5272 1 1.1645528042276247e+00 2.2693885436269010e+01 1.9718025523674665e+01 2 0 0
302 1 1.0664044834048859e+01 1.0449683777341832e+01 1.9751100269760009e+01 2 0 1
781 1 2.0216204503913504e+00 1.7329421769974367e+01 2.1060304663779146e+01 2 1 1
5221 1 1.2927390363130238e+00 2.0540093414292077e+01 2.4051943224989390e+01 1 1 0
3513 1 3.2091081349220949e+00 1.4196827811060396e+01 2.1333414808828739e+01 0 1 1
4305 1 6.8608059185880172e+00 1.6958725268578544e+01 2.1127860389268076e+01 1 2 1
6219 1 1.2166445611548808e+00 4.8396972289552407e+00 2.4029560665521924e+01 1 1 1
4269 1 4.8720297825601575e+00 1.8576181980212649e+01 1.9726052568161375e+01 1 0 1
3786 1 9.6216447120105837e+00 1.8319452252715007e+00 2.3221808885606649e+01 -1 1 0
1015 1 2.1148198632399065e+00 8.3146208153097341e+00 2.0287959000716544e+01 0 1 1
459 1 1.0935767287366632e+01 1.4356887312105259e+01 2.3401902456364546e+01 0 0 0
2678 1 9.3183659637895317e+00 2.4285326538983266e+01 2.1744169715049317e+01 -1 0 1
2568 1 1.1473197082370087e+01 1.4858819277815471e+01 2.0713578629550710e+01 -1 0 1
254 1 1.1402329270497889e+01 1.7192251933530748e+01 1.6546917417833782e+01 0 -1 0
5473 1 6.3467757665219358e+00 1.5049819922648529e+01 2.4130713622498490e+01 0 0 0
2640 1 4.0983500145443559e+00 4.8260876000041169e+00 2.4070230193107374e+01 2 1 1
4583 1 1.4770886951365183e+00 1.7707401331697113e+01 2.4072003421818010e+01 0 0 1
511 2 0.0000000000000000e+00 2.8417180249513345e+00 2.6820255645441122e+01 0 0 0
512 2 0.0000000000000000e+00 0.0000000000000000e+00 2.6820255645441122e+01 0 0 0
513 2 1.2305000000000001e+00 7.1042950623783474e-01 2.6820255645441122e+01 0 0 0
517 2 1.2305000000000001e+00 2.1312885187134998e+00 2.6820255645441122e+01 0 0 0
518 2 2.4610000000000003e+00 2.8417180249513345e+00 2.6820255645441122e+01 0 0 0
519 2 2.4610000000000003e+00 0.0000000000000000e+00 2.6820255645441122e+01 0 0 0
520 2 3.6915000000000004e+00 7.1042950623783474e-01 2.6820255645441122e+01 0 0 0
528 2 3.6914999999999996e+00 2.1312885187134998e+00 2.6820255645441122e+01 0 0 0
529 2 4.9220000000000006e+00 2.8417180249513332e+00 2.6820255645441122e+01 0 0 0
530 2 4.9220000000000006e+00 0.0000000000000000e+00 2.6820255645441122e+01 0 0 0
531 2 6.1524999999999999e+00 7.1042950623783407e-01 2.6820255645441122e+01 0 0 0
543 2 6.1524999999999999e+00 2.1312885187134989e+00 2.6820255645441122e+01 0 0 0
544 2 7.3829999999999991e+00 2.8417180249513345e+00 2.6820255645441122e+01 0 0 0
545 2 7.3829999999999991e+00 0.0000000000000000e+00 2.6820255645441122e+01 0 0 0
3741 1 4.9971134262730832e+00 1.9217795094625627e+00 2.4632279323961079e+01 -1 1 0
546 2 8.6134999999999984e+00 7.1042950623783407e-01 2.6820255645441122e+01 0 0 0
562 2 8.6134999999999984e+00 2.1312885187135002e+00 2.6820255645441122e+01 0 0 0
563 2 9.8440000000000012e+00 2.8417180249513332e+00 2.6820255645441122e+01 0 0 0
564 2 9.8440000000000012e+00 0.0000000000000000e+00 2.6820255645441122e+01 0 0 0
565 2 1.1074500000000002e+01 7.1042950623783330e-01 2.6820255645441122e+01 0 0 0
585 2 1.1074500000000002e+01 2.1312885187135002e+00 2.6820255645441122e+01 0 0 0
4329 1 7.4131812301107276e+00 3.7380833474180541e-01 2.4608776286786664e+01 0 0 1
514 2 0.0000000000000000e+00 7.1042950623783341e+00 2.6820255645441122e+01 0 0 0
515 2 0.0000000000000000e+00 4.2625770374269996e+00 2.6820255645441122e+01 0 0 0
516 2 1.2305000000000001e+00 4.9730065436648339e+00 2.6820255645441122e+01 0 0 0
524 2 1.2305000000000001e+00 6.3938655561404980e+00 2.6820255645441122e+01 0 0 0
525 2 2.4610000000000003e+00 7.1042950623783341e+00 2.6820255645441122e+01 0 0 0
526 2 2.4610000000000003e+00 4.2625770374269996e+00 2.6820255645441122e+01 0 0 0
527 2 3.6914999999999996e+00 4.9730065436648339e+00 2.6820255645441122e+01 0 0 0
539 2 3.6914999999999996e+00 6.3938655561404980e+00 2.6820255645441122e+01 0 0 0
540 2 4.9220000000000006e+00 7.1042950623783341e+00 2.6820255645441122e+01 0 0 0
541 2 4.9220000000000006e+00 4.2625770374269978e+00 2.6820255645441122e+01 0 0 0
542 2 6.1524999999999999e+00 4.9730065436648339e+00 2.6820255645441122e+01 0 0 0
558 2 6.1524999999999999e+00 6.3938655561404980e+00 2.6820255645441122e+01 0 0 0
559 2 7.3830000000000009e+00 7.1042950623783341e+00 2.6820255645441122e+01 0 0 0
560 2 7.3829999999999991e+00 4.2625770374269996e+00 2.6820255645441122e+01 0 0 0
561 2 8.6135000000000002e+00 4.9730065436648339e+00 2.6820255645441122e+01 0 0 0
581 2 8.6135000000000002e+00 6.3938655561404980e+00 2.6820255645441122e+01 0 0 0
582 2 9.8440000000000012e+00 7.1042950623783341e+00 2.6820255645441122e+01 0 0 0
583 2 9.8440000000000012e+00 4.2625770374270004e+00 2.6820255645441122e+01 0 0 0
584 2 1.1074500000000002e+01 4.9730065436648339e+00 2.6820255645441122e+01 0 0 0
605 2 1.1074500000000002e+01 6.3938655561404980e+00 2.6820255645441122e+01 0 0 0
2526 1 9.6283408823944292e+00 6.3736977453475205e+00 2.4394148130961870e+01 0 0 1
521 2 0.0000000000000000e+00 1.1366872099805333e+01 2.6820255645441122e+01 0 0 0
522 2 0.0000000000000000e+00 8.5251540748539991e+00 2.6820255645441122e+01 0 0 0
523 2 1.2305000000000001e+00 9.2355835810918343e+00 2.6820255645441122e+01 0 0 0
535 2 1.2305000000000001e+00 1.0656442593567498e+01 2.6820255645441122e+01 0 0 0
536 2 2.4610000000000003e+00 1.1366872099805333e+01 2.6820255645441122e+01 0 0 0
537 2 2.4610000000000003e+00 8.5251540748539991e+00 2.6820255645441122e+01 0 0 0
538 2 3.6915000000000004e+00 9.2355835810918343e+00 2.6820255645441122e+01 0 0 0
554 2 3.6914999999999996e+00 1.0656442593567499e+01 2.6820255645441122e+01 0 0 0
1554 2 1.1074500000000002e+01 2.2023314693372832e+01 3.3241744354559685e+01 0 0 0
555 2 4.9220000000000006e+00 1.1366872099805333e+01 2.6820255645441122e+01 0 0 0
556 2 4.9220000000000006e+00 8.5251540748539991e+00 2.6820255645441122e+01 0 0 0
557 2 6.1524999999999999e+00 9.2355835810918343e+00 2.6820255645441122e+01 0 0 0
577 2 6.1524999999999999e+00 1.0656442593567499e+01 2.6820255645441122e+01 0 0 0
578 2 7.3829999999999991e+00 1.1366872099805333e+01 2.6820255645441122e+01 0 0 0
579 2 7.3830000000000009e+00 8.5251540748539991e+00 2.6820255645441122e+01 0 0 0
580 2 8.6134999999999984e+00 9.2355835810918343e+00 2.6820255645441122e+01 0 0 0
601 2 8.6134999999999984e+00 1.0656442593567498e+01 2.6820255645441122e+01 0 0 0
602 2 9.8440000000000012e+00 1.1366872099805333e+01 2.6820255645441122e+01 0 0 0
603 2 9.8440000000000012e+00 8.5251540748539956e+00 2.6820255645441122e+01 0 0 0
604 2 1.1074500000000002e+01 9.2355835810918343e+00 2.6820255645441122e+01 0 0 0
625 2 1.1074500000000002e+01 1.0656442593567498e+01 2.6820255645441122e+01 0 0 0
626 2 1.2304999999999998e+01 1.1366872099805333e+01 2.6820255645441122e+01 0 0 0
1551 2 8.6134999999999984e+00 2.3444173705848499e+01 3.3241744354559685e+01 0 0 0
532 2 0.0000000000000000e+00 1.5629449137232333e+01 2.6820255645441122e+01 0 0 0
533 2 0.0000000000000000e+00 1.2787731112280996e+01 2.6820255645441122e+01 0 0 0
534 2 1.2305000000000001e+00 1.3498160618518829e+01 2.6820255645441122e+01 0 0 0
550 2 1.2305000000000001e+00 1.4919019630994494e+01 2.6820255645441122e+01 0 0 0
551 2 2.4610000000000003e+00 1.5629449137232328e+01 2.6820255645441122e+01 0 0 0
552 2 2.4610000000000003e+00 1.2787731112280996e+01 2.6820255645441122e+01 0 0 0
553 2 3.6915000000000004e+00 1.3498160618518829e+01 2.6820255645441122e+01 0 0 0
573 2 3.6915000000000004e+00 1.4919019630994494e+01 2.6820255645441122e+01 0 0 0
574 2 4.9220000000000006e+00 1.5629449137232333e+01 2.6820255645441122e+01 0 0 0
575 2 4.9220000000000006e+00 1.2787731112280996e+01 2.6820255645441122e+01 0 0 0
576 2 6.1524999999999990e+00 1.3498160618518829e+01 2.6820255645441122e+01 0 0 0
597 2 6.1524999999999990e+00 1.4919019630994494e+01 2.6820255645441122e+01 0 0 0
598 2 7.3829999999999991e+00 1.5629449137232333e+01 2.6820255645441122e+01 0 0 0
599 2 7.3829999999999991e+00 1.2787731112280996e+01 2.6820255645441122e+01 0 0 0
2025 1 1.0065895237273745e+01 9.1894548367330824e+00 2.4566081190934426e+01 0 2 0
600 2 8.6135000000000002e+00 1.3498160618518835e+01 2.6820255645441122e+01 0 0 0
621 2 8.6135000000000002e+00 1.4919019630994494e+01 2.6820255645441122e+01 0 0 0
622 2 9.8440000000000012e+00 1.5629449137232328e+01 2.6820255645441122e+01 0 0 0
623 2 9.8440000000000012e+00 1.2787731112280996e+01 2.6820255645441122e+01 0 0 0
624 2 1.1074500000000002e+01 1.3498160618518829e+01 2.6820255645441122e+01 0 0 0
642 2 1.1074500000000002e+01 1.4919019630994494e+01 2.6820255645441122e+01 0 0 0
547 2 0.0000000000000000e+00 1.9892026174659328e+01 2.6820255645441122e+01 0 0 0
548 2 0.0000000000000000e+00 1.7050308149707998e+01 2.6820255645441122e+01 0 0 0
549 2 1.2305000000000001e+00 1.7760737655945832e+01 2.6820255645441122e+01 0 0 0
569 2 1.2305000000000001e+00 1.9181596668421495e+01 2.6820255645441122e+01 0 0 0
570 2 2.4610000000000003e+00 1.9892026174659328e+01 2.6820255645441122e+01 0 0 0
571 2 2.4610000000000003e+00 1.7050308149707998e+01 2.6820255645441122e+01 0 0 0
572 2 3.6914999999999996e+00 1.7760737655945832e+01 2.6820255645441122e+01 0 0 0
593 2 3.6914999999999996e+00 1.9181596668421495e+01 2.6820255645441122e+01 0 0 0
594 2 4.9220000000000006e+00 1.9892026174659328e+01 2.6820255645441122e+01 0 0 0
595 2 4.9220000000000006e+00 1.7050308149707998e+01 2.6820255645441122e+01 0 0 0
596 2 6.1524999999999999e+00 1.7760737655945832e+01 2.6820255645441122e+01 0 0 0
617 2 6.1524999999999999e+00 1.9181596668421495e+01 2.6820255645441122e+01 0 0 0
618 2 7.3829999999999991e+00 1.9892026174659328e+01 2.6820255645441122e+01 0 0 0
619 2 7.3830000000000009e+00 1.7050308149707998e+01 2.6820255645441122e+01 0 0 0
1242 1 6.8467198758066239e+00 1.6426146713705180e+01 3.5754247143722750e+01 0 0 0
620 2 8.6134999999999984e+00 1.7760737655945832e+01 2.6820255645441122e+01 0 0 0
638 2 8.6135000000000002e+00 1.9181596668421495e+01 2.6820255645441122e+01 0 0 0
639 2 9.8440000000000012e+00 1.9892026174659335e+01 2.6820255645441122e+01 0 0 0
640 2 9.8440000000000012e+00 1.7050308149707998e+01 2.6820255645441122e+01 0 0 0
641 2 1.1074500000000002e+01 1.7760737655945835e+01 2.6820255645441122e+01 0 0 0
655 2 1.1074500000000002e+01 1.9181596668421495e+01 2.6820255645441122e+01 0 0 0
657 2 1.2304999999999998e+01 1.7050308149707998e+01 2.6820255645441122e+01 0 0 0
613 2 3.6915000000000004e+00 2.3444173705848499e+01 2.6820255645441122e+01 0 0 0
566 2 0.0000000000000000e+00 2.4154603212086325e+01 2.6820255645441122e+01 0 0 0
567 2 0.0000000000000000e+00 2.1312885187134999e+01 2.6820255645441122e+01 0 0 0
568 2 1.2304999999999993e+00 2.2023314693372832e+01 2.6820255645441122e+01 0 0 0
589 2 1.2304999999999993e+00 2.3444173705848499e+01 2.6820255645441122e+01 0 0 0
590 2 2.4610000000000003e+00 2.4154603212086325e+01 2.6820255645441122e+01 0 0 0
591 2 2.4610000000000003e+00 2.1312885187134995e+01 2.6820255645441122e+01 0 0 0
592 2 3.6914999999999996e+00 2.2023314693372832e+01 2.6820255645441122e+01 0 0 0
1537 2 8.6135000000000002e+00 2.2023314693372832e+01 3.3241744354559685e+01 0 0 0
615 2 4.9220000000000006e+00 2.1312885187134995e+01 2.6820255645441122e+01 0 0 0
634 2 6.1524999999999999e+00 2.3444173705848499e+01 2.6820255645441122e+01 0 0 0
636 2 7.3829999999999991e+00 2.1312885187134999e+01 2.6820255645441122e+01 0 0 0
616 2 6.1524999999999990e+00 2.2023314693372832e+01 2.6820255645441122e+01 0 0 0
635 2 7.3830000000000009e+00 2.4154603212086336e+01 2.6820255645441122e+01 0 0 0
614 2 4.9220000000000006e+00 2.4154603212086325e+01 2.6820255645441122e+01 0 0 0