
# Create simulation box and atoms

read_data data.graphite_substrate
  orthogonal box = (0 0 -0.0398667) to (49.22 49.0196 60.1019)
  4 by 2 by 5 MPI processor grid
  reading atoms ...
  6736 atoms
  reading velocities ...
  6736 velocities
group water type 1
3976 atoms in group water
group graphite type 2
2760 atoms in group graphite

# Define potential

pair_style sw
pair_coeff * * mWC.sw mW C
Reading potential file mWC.sw with DATE: 2019-02-27


# Fix graphite atoms in place

fix 5 graphite setforce 0.0 0.0 0.0
velocity graphite set 0.0 0.0 0.0


# Equilibration of molecular water

# Add velocity/set timestep

velocity	    water create ${TEMP} ${SEED} rot yes dist gaussian
velocity	    water create 225 ${SEED} rot yes dist gaussian
velocity	    water create 225 20142 rot yes dist gaussian
timestep	    5.0

# Define output

compute			1 water msd
compute			3 water temp
thermo	    	50
thermo_style	custom step temp press vol etotal ke pe c_1[4] c_3

# Neighbor lists

neigh_modify    delay 0 every 1 check yes

# Set fixes

fix             1 water momentum 10 linear 1 1 1 rescale
fix             2 water nve
fix             3 water temp/csvr ${TEMP} ${TEMP} 500.0 ${SEED}
fix             3 water temp/csvr 225 ${TEMP} 500.0 ${SEED}
fix             3 water temp/csvr 225 225 500.0 ${SEED}
fix             3 water temp/csvr 225 225 500.0 20142
fix             4 water press/berendsen z ${PRES} ${PRES} 1000.0 modulus 20000
fix             4 water press/berendsen z 1 ${PRES} 1000.0 modulus 20000
fix             4 water press/berendsen z 1 1 1000.0 modulus 20000

# Run 0.5 ns equilibration

dump		    1 all atom 2000 ${DIR}/eq.${NAME}-${TEMP}.dump
dump		    1 all atom 2000 run_4/eq.${NAME}-${TEMP}.dump
dump		    1 all atom 2000 run_4/eq.het_freeze_4-${TEMP}.dump
dump		    1 all atom 2000 run_4/eq.het_freeze_4-225.dump

reset_timestep  0

run	            100000
Neighbor list info ...
  update every 1 steps, delay 0 steps, check yes
  max neighbors/atom: 2000, page size: 100000
  master list distance cutoff = 7.76
  ghost atom cutoff = 7.76
  binsize = 3.88, bins = 13 13 16
  1 neighbor lists, perpetual/occasional/extra = 1 0 0
  (1) pair sw, perpetual
      attributes: full, newton on
      pair build: full/bin/atomonly
      stencil: full/bin/3d
      bin: standard
Per MPI rank memory allocation (min/avg/max) = 4.107 | 4.218 | 4.541 Mbytes
Step Temp Press Volume TotEng KinEng PotEng c_1[4] c_3 
       0     132.7951   -1147.9579    145106.76   -36018.829     2665.962   -38684.791            0          225 
      50    168.27994   -825.28506    144566.11   -36443.652    3378.3469   -39821.999   0.82890529    285.12336 
     100    166.31322   -1002.2872    144229.46   -36818.029    3338.8635   -40156.893    1.8447194    281.79107 
     150      159.879   -716.94176    143777.63   -37138.288    3209.6918    -40347.98    2.7143261    270.88933 
     200    157.22887   -923.80003    143388.25   -37430.402    3156.4883    -40586.89     3.470449     266.3991 
     250    154.53353   -627.42463    143058.34   -37624.341    3102.3774   -40726.719    4.1581443    261.83228 
     300    152.31127   -757.10266     142695.5    -37800.21    3057.7639   -40857.974    4.8669758    258.06702 
     350    147.83316   -896.53932    142348.04   -37968.389    2967.8624   -40936.251    5.5250716    250.47958 
     400    145.82319    -830.7101    141948.96    -38147.05    2927.5107   -41074.561    6.1370909      247.074 
     450    143.05767   -527.16056    141666.21   -38268.872    2871.9908   -41140.863    6.6806126    242.38828 
     500    141.23866   -421.39089    141411.99   -38347.082    2835.4728   -41182.555    7.1614545    239.30626 
     550    144.33078   -383.87532    141272.37   -38425.029    2897.5495   -41322.578      7.66912    244.54536 
     600     139.4402   -238.36837    141164.69   -38539.865    2799.3675   -41339.232    8.0612295    236.25906 
     650    139.59493   -384.76867    141054.62   -38678.125    2802.4737   -41480.599    8.3976599    236.52122 
     700    139.54967    -343.0666    140947.09   -38707.989     2801.565   -41509.554    8.6787049    236.44453 
     750    142.91582   -706.83246    140759.62   -38690.939    2869.1431   -41560.082    9.0968809    242.14794 
     800      137.796    -220.1549    140704.34   -38787.622    2766.3588   -41553.981    9.5145134    233.47322 
     850    136.76503   -347.28969    140660.78   -38855.413    2745.6614   -41601.074    9.8980073    231.72641 
     900    135.38786   -272.66288    140582.99   -38853.657    2718.0136    -41571.67    10.293202    229.39302 
     950    138.63899   -365.28166    140542.61   -38828.398    2783.2824   -41611.681    10.745022    234.90153 
    1000    137.59935    -360.6838    140330.35    -38846.12     2762.411   -41608.531    11.202471    233.14004 
    1050    137.78322   -319.28362    140226.19   -38956.351    2766.1022   -41722.453    11.642808    233.45156 
    1100    137.20104   -436.36743    140131.16   -38973.642    2754.4146   -41728.057    12.002056    232.46517 
    1150    138.55032   -320.11767    140112.52   -38958.182    2781.5023   -41739.684    12.371849    234.75129 
    1200    136.29293   -469.47892    140077.99   -38986.096    2736.1835    -41722.28    12.700702    230.92651 
    1250    137.37363   -382.99694    140054.79    -39009.06    2757.8794    -41766.94     13.16063    232.75758 
    1300     136.5483   -431.66749    139906.19   -39028.977    2741.3103   -41770.287    13.497287    231.35919 
    1350    138.62695   -246.94624    139864.63   -39006.553    2783.0408   -41789.594    13.982122    234.88114 
    1400    136.17357   -262.37479    139867.93   -39083.694    2733.7874   -41817.481    14.302739    230.72428 
    1450    135.01527    -203.9733    139926.86   -39119.967    2710.5336   -41830.501    14.579423    228.76172 
    1500    132.24375   -210.72637    140011.03   -39161.358    2654.8931   -41816.251    14.941918    224.06582 
    1550    131.87511   -369.17962    139979.28   -39166.507    2647.4924       -41814    15.248288    223.44122 
    1600    131.98719   -139.65185     139914.5   -39151.433    2649.7426   -41801.176     15.55787    223.63113 
    1650    131.43574    -386.9943    139839.32   -39148.444    2638.6719   -41787.116    15.914396    222.69679 
    1700    132.27898    81.753188    139863.16   -39143.875    2655.6005   -41799.476    16.133171    224.12552 
    1750    134.32043   -362.92406    139895.39    -39138.44    2696.5842   -41835.024    16.452889    227.58443 
    1800    130.87745   -88.878507    139904.11   -39183.309    2627.4638   -41810.773    16.782869    221.75086 
    1850    133.03376   -209.24401    139857.55   -39203.104    2670.7533   -41873.858    17.105521    225.40437 
    1900    132.75819   -175.91946    139856.94   -39201.357     2665.221   -41866.578    17.334366    224.93746 
    1950    134.47324   -259.31023    139909.71   -39259.545    2699.6519   -41959.197    17.620185    227.84334 
    2000    134.06609    32.335818    139924.94   -39280.934     2691.478   -41972.412    18.014876    227.15348 
    2050    132.81812   -98.179504    139956.97   -39265.339    2666.4242   -41931.763    18.235464    225.03901 
    2100    135.18868   -103.18058    139944.58   -39271.505     2714.015    -41985.52    18.473553    229.05554 
    2150    132.54944    120.47631    140024.44   -39283.199    2661.0302   -41944.229    18.812718    224.58377 
    2200    135.31431   -271.27065    139986.15   -39229.786     2716.537   -41946.323    19.157698     229.2684 
    2250    134.84671   -138.69081    140012.76   -39212.841    2707.1497   -41919.991    19.425596    228.47613 
    2300    133.99259   -133.85611    140050.07   -39305.229    2690.0024   -41995.232    19.621592    227.02895 
    2350    130.17952    18.873462    140018.88   -39375.602    2613.4522   -41989.054    19.928041    220.56831 
    2400    134.69802    51.248834       140010   -39329.972    2704.1646   -42034.136    20.211201     228.2242 
    2450    135.40471   -178.88786    140028.99   -39295.409    2718.3519   -42013.761    20.489361    229.42157 
    2500    134.43619    19.793331     140059.9   -39281.177    2698.9082   -41980.085    20.782392    227.78057 
    2550    134.57546   -57.303793       140120   -39262.825     2701.704   -41964.529     21.04295    228.01653 
    2600    132.22399   -249.60581     140133.4   -39310.574    2654.4966   -41965.071    21.381707    224.03235 
    2650    131.81481   -151.56786    140186.51   -39309.848     2646.282    -41956.13    21.665496    223.33906 
    2700     133.5068    58.039158    140298.89   -39285.713    2680.2499   -41965.963    21.816898    226.20586 
    2750    133.11257   -210.96788    140261.26   -39250.898    2672.3354   -41923.233    22.004996     225.5379 
    2800    132.72558   -40.638936    140250.52   -39301.338    2664.5664   -41965.905    22.121941    224.88221 
    2850    135.35755   -307.17764    140219.17   -39279.902    2717.4051   -41997.308    22.316288    229.34166 
    2900    133.52644   -116.88208    140250.77   -39277.876    2680.6442    -41958.52    22.520614    226.23914 
    2950    132.88227   -110.84594    140287.02   -39319.841    2667.7119   -41987.553    22.717296    225.14769 
    3000    132.02591   -399.83337    140269.29   -39332.162    2650.5198   -41982.682    22.911215    223.69672 
    3050    133.43686   -401.57795    140253.51   -39313.786    2678.8458   -41992.631     23.10962    226.08736 
    3100    132.48916   -218.71203    140249.68   -39342.365    2659.8199   -42002.184     23.36913    224.48163 
    3150     131.7377   -113.08346     140281.4   -39342.563    2644.7339   -41987.297    23.454175    223.20841 
    3200    130.69584    -111.4067    140315.38   -39367.188    2623.8177   -41991.006    23.585648    221.44313 
    3250    133.62342   -183.26551    140372.75   -39317.114    2682.5911   -41999.705    23.741069    226.40346 
    3300    132.01889   -257.87489    140423.65    -39350.22     2650.379   -42000.598    23.987065    223.68483 
    3350    133.63358   -226.69951    140436.02   -39346.463    2682.7952   -42029.258    24.241286    226.42068 
    3400    133.76621   -172.14778    140605.95   -39329.518    2685.4578   -42014.976    24.455744    226.64539 
    3450    134.42921    -390.3088    140634.01   -39353.706    2698.7679   -42052.474    24.580185    227.76873 
    3500    130.88727   -246.16651    140648.67   -39350.856    2627.6608   -41978.517    24.762218    221.76748 
    3550    134.26852   -518.36179    140662.82   -39313.403     2695.542   -42008.945    24.851178    227.49648 
    3600    131.66418   -374.01656    140655.59   -39354.856    2643.2579   -41998.114    25.165393    223.08383 
    3650    131.11079   -310.15745    140592.93   -39354.868    2632.1482   -41987.017    25.547553    222.14621 
    3700    132.33201   -364.63471    140626.41   -39351.827    2656.6651   -42008.492    25.732644    224.21537 
    3750    129.88123    -304.8984    140622.43   -39428.052    2607.4638   -42035.516     25.86654    220.06291 
    3800    133.54848   -294.57983    140641.04   -39346.449    2681.0866   -42027.536    26.146527    226.27647 
    3850    133.08637   -376.35253       140593    -39382.33    2671.8094    -42054.14     26.40177    225.49351 
    3900    132.12674   -223.84432    140589.04   -39393.587    2652.5442   -42046.131    26.662775    223.86758 
    3950    134.69213   -125.75518    140582.37   -39387.472    2704.0462   -42091.519    26.842986    228.21421 
    4000    132.70755   -240.29699     140613.8   -39409.056    2664.2043    -42073.26    27.077548    224.85166 
    4050    129.99982   -359.17081    140498.82   -39384.812    2609.8446   -41994.657    27.287829    220.26384 
    4100    133.70797   -244.33864    140432.48   -39366.068    2684.2885   -42050.356    27.496975    226.54671 
    4150    134.00121   -15.365529    140426.01    -39316.08    2690.1756   -42006.256    27.788289    227.04357 
    4200    137.46956   -59.569939    140501.25   -39248.232    2759.8054   -42008.037    28.047107    232.92013 
    4250    135.23222   -241.31178    140548.81   -39303.486     2714.889   -42018.375    28.304132    229.12931 
    4300    135.89428 -0.056704762    140562.46   -39318.779    2728.1804    -42046.96    28.625728    230.25106 
    4350    135.87396   -220.34203    140612.11   -39296.069    2727.7724   -42023.841    28.960699    230.21664 
    4400    132.79252   -152.10751    140652.43   -39314.862    2665.9102   -41980.772    29.067705    224.99563 
    4450    131.85699   -38.929592    140686.22   -39351.597    2647.1287   -41998.726    29.373503    223.41052 
    4500    131.92622   -258.88147    140691.34   -39390.441    2648.5186   -42038.959    29.709878    223.52782 
    4550    133.96289   -76.155126    140661.64    -39343.62    2689.4062   -42033.026    29.914289    226.97863 
    4600    133.46738   -70.215862    140787.05    -39368.69    2679.4585   -42048.148    30.116867    226.13907 
    4650    133.75811   -194.81393    140836.74   -39403.731    2685.2951   -42089.026     30.32776    226.63166 
    4700    132.10605   -347.91361    140786.51   -39442.027    2652.1288   -42094.156    30.510061    223.83251 
    4750    131.74441   -296.85003    140719.34   -39402.956    2644.8686   -42047.824    30.829651    223.21978 
    4800    131.34375   -359.05636    140732.98   -39370.879     2636.825   -42007.703    31.132797    222.54091 
    4850    133.28918   -155.38431    140762.72     -39319.8    2675.8811   -41995.681    31.273148    225.83715 
    4900    133.97687   -167.34162    140820.87   -39288.476    2689.6869   -41978.163    31.427434    227.00232 
    4950    134.69166   -291.93498    140763.95   -39320.105    2704.0369   -42024.142    31.562718    228.21342 
    5000    136.34732   -130.81037    140731.84   -39341.333    2737.2755   -42078.609    31.872127    231.01867 
    5050    134.99159   -316.82598    140727.45   -39397.285    2710.0583   -42107.343    32.055017    228.72161 
    5100    131.56325   -180.01231    140701.77    -39425.28    2641.2317   -42066.512    32.141999    222.91283 
    5150    134.45611   -223.79525    140689.87   -39373.851     2699.308   -42073.159    32.364548    227.81432 
    5200    132.69692   -208.73493     140652.1   -39460.203    2663.9909   -42124.193    32.542717    224.83364 
    5250    131.23235   -150.84405    140630.41    -39462.65    2634.5885   -42097.238    32.738373    222.35217 
    5300    130.54175    87.781926    140653.17   -39485.754    2620.7242   -42106.478    33.043731    221.18205 
    5350    131.52517   -235.50797    140695.47   -39520.001    2640.4672   -42160.468    33.334896    222.84831 
    5400    130.84572    64.310531    140726.87   -39486.411    2626.8267   -42113.237    33.580558    221.69709 
    5450     133.0943   -131.79186    140693.22   -39476.597    2671.9687   -42148.566    33.762284    225.50695 
    5500    130.90584   -36.851201    140794.79   -39488.279    2628.0337   -42116.313    33.965801    221.79895 
    5550    129.14086   -149.23298    140811.33   -39508.923    2592.6003   -42101.524    34.228358    218.80847 
    5600    130.99546   -173.97643     140787.7   -39458.791    2629.8329   -42088.624    34.450664     221.9508 
    5650    133.68643   -161.56952    140748.08   -39416.742    2683.8562   -42100.598    34.651883    226.51022 
    5700    130.70058   -121.95044    140754.51   -39427.694    2623.9129   -42051.607    34.997823    221.45117 
    5750    134.85343    35.289718    140783.32   -39399.889    2707.2844   -42107.173    35.036286     228.4875 
    5800    130.36841   -175.98022    140789.17   -39416.571    2617.2443   -42033.815    35.310821    220.88836 
    5850      130.434   -3.7343854    140761.79    -39468.88    2618.5611   -42087.441     35.57684    220.99949 
    5900    133.54852   -295.87037    140821.26    -39431.42    2681.0875   -42112.508    35.851748    226.27655 
    5950     131.0591   -118.68492     140733.9   -39439.385    2631.1104   -42070.496    36.239074    222.05862 
    6000    131.26431   -261.10587    140741.23    -39473.18    2635.2303    -42108.41    36.379628    222.40632 
    6050    132.22101   -28.140345    140843.84   -39449.606    2654.4367   -42104.043    36.471034     224.0273 
    6100    130.34007   -285.42981    140892.37   -39498.266    2616.6753   -42114.941    36.778019    220.84034 
    6150    130.77561   -205.39461    140916.63   -39460.528    2625.4192   -42085.947    37.058953     221.5783 
    6200    132.78855   -64.112764    140984.39   -39464.938    2665.8304   -42130.769     37.20156    224.98889 
    6250     133.0088   -47.371147    141087.39   -39427.972    2670.2522   -42098.224    37.316058    225.36208 
    6300    135.25424   -615.24579    141110.73    -39433.75    2715.3311   -42149.081    37.411092    229.16662 
    6350    132.91506   -231.57469     140988.3    -39440.18    2668.3703    -42108.55    37.549558    225.20326 
    6400    135.15503   -253.55503    140920.59   -39459.722    2713.3393   -42173.061    37.699629    228.99852 
    6450    131.79742   -193.32345    140928.61    -39484.17    2645.9328   -42130.103     38.02925    223.30959 
    6500    133.08342    -200.8945    140932.92   -39533.728    2671.7502   -42205.478    38.367131    225.48851 
    6550    133.82773   -394.16454    140923.38    -39478.07    2686.6929   -42164.763    38.529066    226.74963 
    6600    130.59141   -157.86958    140876.04   -39539.189    2621.7212    -42160.91    38.751557     221.2662 
    6650     132.6598   -110.70048     140914.6   -39544.772    2663.2457   -42208.017    38.916982    224.77076 
    6700    129.64311   -452.87362    140811.64   -39550.057    2602.6835   -42152.741    39.296797    219.65946 
    6750    130.62503   -203.48663    140783.75   -39537.494    2622.3961   -42159.891    39.386045    221.32316 
    6800    130.34498   -204.43974    140814.87   -39516.844     2616.774   -42133.618    39.665307    220.84867 
    6850    132.68414   -47.838762       140819   -39493.951    2663.7343   -42157.686    39.855301    224.81199 
    6900      130.925    98.499639    140880.24   -39525.958    2628.4183   -42154.376    40.043318    221.83141 
    6950    133.04275   -169.84964    140851.64   -39492.622    2670.9338   -42163.555     40.20265     225.4196 
    7000    133.63683   -356.14377    140811.43   -39464.532    2682.8603   -42147.393    40.337275    226.42617 
    7050    134.36922   -278.16024    140788.65   -39456.893    2697.5636   -42154.456    40.512371    227.66709 
    7100    131.18158   -142.89583    140807.32   -39482.064    2633.5693   -42115.634    40.697235    222.26614 
    7150    132.05336   -132.31643    140883.76   -39434.641     2651.071   -42085.712    40.784115    223.74324 
    7200    133.08563   -232.39488    140915.68   -39431.466    2671.7946   -42103.261    40.897212    225.49226 
    7250    133.62018    -96.13879    140932.99   -39463.022    2682.5261   -42145.548    40.848599    226.39796 
    7300    131.47654    -253.9436    140914.77   -39484.505    2639.4909   -42123.996    40.932891    222.76591 
    7350    131.15172    -280.4213    140902.84   -39495.072    2632.9699   -42128.042    41.093763    222.21555 
    7400    130.07122   -197.51057    140869.56   -39425.318     2611.278   -42036.596    41.174481    220.38482 
    7450    131.93846   -313.43886    140936.17    -39410.62    2648.7643   -42059.384    41.241523    223.54856 
    7500    133.12363   -193.33168    140934.55   -39438.518    2672.5576   -42111.075    41.355803    225.55665 
    7550    130.98579   -240.47443    140905.15   -39472.564    2629.6388   -42102.203    41.603768    221.93442 
    7600    131.92887   -180.55754    140900.06   -39479.661    2648.5717   -42128.232      41.9397    223.53231 
    7650    129.85007   -212.50733    140895.95   -39508.736    2606.8382   -42115.574    42.337535    220.01011 
    7700    130.67917   -242.79303    140899.17   -39486.594    2623.4832   -42110.077    42.643183     221.4149 
    7750    131.10464    7.0327208    140854.85   -39402.229    2632.0247   -42034.253    42.865942    222.13579 
    7800    133.64573   -276.78272    140859.42   -39437.705    2683.0391   -42120.744    43.095932    226.44126 
    7850    132.11233    -309.8925    140821.55   -39513.167    2652.2548   -42165.422    43.392522    223.84315 
    7900    131.20613   -230.82138    140802.51   -39506.259    2634.0622   -42140.321    43.563835    222.30774 
    7950    128.11405    -279.3473    140880.03   -39521.601    2571.9863   -42093.587    43.884018    217.06871 
    8000    131.53342   -272.31634    140917.93   -39503.281    2640.6328   -42143.914    44.123494    222.86228 
    8050    132.01398   -169.16652    140948.91   -39482.814    2650.2804   -42133.095    44.426691    223.67652 
    8100    130.74192   -362.39783    141000.95   -39526.624    2624.7429   -42151.367    44.613881    221.52122 
    8150    128.38335   -129.91754    141047.66    -39495.48    2577.3927   -42072.873    44.547369    217.52499 
    8200    130.83307   -238.92222     141093.3   -39508.326    2626.5728   -42134.899    44.912775    221.67566 
    8250     132.2774   -338.28834    141026.91   -39534.351    2655.5689    -42189.92    45.214805    224.12285 
    8300    129.32013   -262.69901    141020.55   -39543.741    2596.1994   -42139.941    45.288315    219.11223 
    8350    131.58114   -305.30603    140979.35   -39497.827    2641.5909   -42139.418    45.266296    222.94315 
    8400    132.91757   -307.01802    140957.53   -39514.897    2668.4207   -42183.317    45.074726    225.20751 
    8450    131.16697   -90.723734     140957.4   -39456.874    2633.2761    -42090.15    45.168637     222.2414 
    8500    134.22362   -111.12786    140981.83   -39432.802    2694.6407   -42127.442    45.499374     227.4204 
    8550    133.92297   -366.89649    140940.46   -39450.043    2688.6048   -42138.648     45.79395    226.91099 
    8600    130.18447   -307.12448     140892.2   -39445.241    2613.5516   -42058.792    46.130429     220.5767 
    8650    132.93256   -256.21642    140814.86   -39446.152    2668.7216   -42114.874    46.411327     225.2329 
    8700    132.29298   -382.85307    140805.91   -39448.848    2655.8816    -42104.73    46.915072    224.14924 
    8750     128.9807   -198.26038    140800.66   -39422.987    2589.3849   -42012.372    47.179696     218.5371 
    8800    131.28998   -183.39814    140833.05    -39424.55    2635.7455   -42060.296    47.483142    222.44981 
    8850      131.206   -120.88106    140861.92   -39423.052    2634.0596   -42057.112    47.664984    222.30752 
    8900    131.50454   -183.01913    140924.63   -39436.896    2640.0531   -42076.949    47.954713    222.81336 
    8950     133.4421   -220.49956    140997.41   -39391.415    2678.9511   -42070.366    48.182562    226.09624 
    9000    132.28574   -125.62151    141083.86   -39359.167    2655.7363   -42014.903    48.523227    224.13698 
    9050    133.91721    -266.8058    141137.08   -39405.677    2688.4891   -42094.166    48.729622    226.90123 
    9100    131.91421    -42.89858    141190.73   -39447.262    2648.2775   -42095.539     48.98384    223.50748 
    9150    133.25811   -305.44654    141225.11   -39452.041    2675.2572   -42127.298    49.170891    225.78449 
    9200    130.62704   -164.81485    141175.54   -39432.563    2622.4366   -42054.999    49.248987    221.32657 
    9250    132.91136   -287.99705    141188.67   -39412.349    2668.2959   -42080.645     49.58739    225.19698 
    9300    133.59041   -259.66122    141206.47   -39416.072    2681.9285       -42098    49.844129    226.34753 
    9350    135.99511   -208.98952     141283.1   -39342.634    2730.2047   -42072.839    49.958727    230.42191 
    9400    133.65772   -53.039351     141259.1   -39302.823    2683.2798   -41986.103    50.109463    226.46158 
    9450    139.60698   -251.12602    141351.27   -39263.224    2802.7156   -42065.939    50.487695    236.54163 
    9500    134.48328    -235.4155    141356.03   -39319.724    2699.8535   -42019.578     50.74169    227.86035 
    9550     134.8094   -193.03482    141398.52    -39376.27    2706.4005    -42082.67    50.939408     228.4129 
    9600    136.03944   -65.629954    141433.77   -39353.884    2731.0946   -42084.979    51.327686    230.49702 
    9650    132.53943   -271.22078    141434.19   -39396.746    2660.8293   -42057.575    51.440241    224.56681 
    9700    134.36568   -374.58286    141412.55   -39385.609    2697.4926   -42083.102    51.741701    227.66109 
    9750    133.96826   -254.72133    141396.06   -39444.451    2689.5141   -42133.965    51.990365    226.98773 
    9800    133.52077   -248.00705    141386.99   -39459.562    2680.5303   -42140.092    52.202079    226.22953 
    9850    131.31777   -227.83608    141307.64   -39502.115    2636.3036   -42138.418    52.235655    222.49691 
    9900    132.80915   -318.13692    141212.87   -39446.156    2666.2441     -42112.4    52.378594    225.02381 
    9950    128.70835   -284.79743    141174.98   -39502.461    2583.9175   -42086.378    52.421597    218.07566 
   10000    129.17617   -121.87928       141178   -39543.421    2593.3093    -42136.73    52.475912    218.86831 
   10050    131.18044   -40.351728    141126.57   -39503.658    2633.5465   -42137.204      52.3822    222.26422 
   10100     133.7556   -148.15259     141168.6   -39482.926    2685.2446    -42168.17    52.377943     226.6274 
   10150      132.883   -284.50463    141208.66   -39487.162    2667.7266   -42154.888    52.433058    225.14893 
   10200    131.40113   -137.80515     141146.4   -39501.625    2637.9771   -42139.602    52.686093    222.63815 
   10250    131.65174   -206.49071     141103.4   -39509.275    2643.0082   -42152.284      52.9547    223.06276 
   10300    134.07827   -51.360626    141100.57   -39514.354    2691.7225   -42206.077    53.069386    227.17412 
   10350    131.09374   -132.78625    141158.36   -39523.121    2631.8059   -42154.927    53.256654    222.11732 
   10400    132.53845    54.527483    141187.62   -39496.443    2660.8096   -42157.252    53.373589    224.56515 
   10450    132.05918   -294.55637    141212.62   -39512.539    2651.1878   -42163.727     53.45619     223.7531 
   10500    131.40069   -230.65879    141130.61   -39515.566    2637.9681   -42153.534    53.676456    222.63739 
   10550    131.51723   -330.88205    141097.26    -39485.19    2640.3078   -42125.498    53.626305    222.83485 
   10600    131.39329   -419.04905    140987.03    -39476.72    2637.8196   -42114.539    53.913466    222.62486 
   10650    132.56305    -246.9916    140916.49   -39459.357    2661.3033   -42120.661     54.38739    224.60682 
   10700    130.60981   -160.08356    140895.93   -39479.409    2622.0905   -42101.499    54.541508    221.29737 
   10750    133.04743   -78.267252     140912.4   -39490.879    2671.0278   -42161.907    55.020975    225.42754 
   10800    132.73681   -348.68578    140866.03   -39474.657    2664.7917   -42139.449    55.210916    224.90123 
   10850     132.0576    33.191531    140811.31   -39442.209    2651.1561   -42093.365    55.291893    223.75043 
   10900     133.5682   -148.85699    140815.18   -39409.422    2681.4826   -42090.905    55.754724     226.3099 
   10950    131.97244   -197.27308    140816.53    -39419.86    2649.4464   -42069.307    55.712087    223.60613 
   11000    135.09506   -44.914946    140883.12    -39435.22    2712.1354   -42147.355    56.038809    228.89691 
   11050    135.21838   -359.70113    140891.22   -39426.883    2714.6112   -42141.495    56.181678    229.10586 
   11100    133.75274   -233.93397    140869.78   -39421.951    2685.1873   -42107.138    56.523423    226.62256 
   11150    132.12933   -80.733584    140853.76   -39419.431    2652.5961   -42072.027     56.83372    223.87195 
   11200    134.60001   -64.499321    140909.81   -39425.456     2702.197   -42127.653    56.913199    228.05814 
   11250    130.62015   -188.58499    140927.91   -39474.738    2622.2983   -42097.037    57.100479     221.3149 
   11300    131.59515   -309.11434    140937.36   -39401.749    2641.8721   -42043.621    57.376175    222.96688 
   11350    132.95906   -326.66248    140905.27   -39407.426    2669.2536    -42076.68    57.570289     225.2778 
   11400      132.707   -194.06494    140890.33   -39420.867    2664.1934    -42085.06    57.884855    224.85073 
   11450    134.69234   -234.29745    140846.99   -39413.283    2704.0505   -42117.334     57.95856    228.21457 
   11500    133.41029   -145.26137    140844.14   -39407.365    2678.3124   -42085.677    58.256099    226.04234 
   11550    133.73007   -191.49156    140843.81   -39430.748    2684.7323    -42115.48    58.541833    226.58416 
   11600    131.29982   -148.11681    140809.52   -39443.318    2635.9431   -42079.261    58.657154    222.46649 
   11650    131.78148   -215.41158    140824.28   -39413.814    2645.6127   -42059.427    58.667426    223.28257 
   11700    132.61766    -371.8888    140793.07   -39403.917    2662.3998   -42066.316    58.782765    224.69936 
   11750    136.12396   -131.06054     140753.9   -39354.994    2732.7914   -42087.785    59.118011    230.64022 
   11800    134.12075   -261.62336    140736.59   -39316.993    2692.5754   -42009.568    59.499603     227.2461 
   11850    133.96504   -21.232457    140764.41   -39332.089    2689.4495   -42021.538    59.812503    226.98228 
   11900    132.92979   -25.017565    140725.16   -39375.172    2668.6659   -42043.838    60.253708    225.22821 
   11950    134.65639   -170.11062    140703.19    -39342.95    2703.3287   -42046.279    60.560228    228.15365 
   12000    135.30169   -93.676131    140700.91   -39346.793    2716.2837   -42063.077    60.918463    229.24702 
   12050    130.27741   -281.68011    140698.93   -39432.495    2615.4174   -42047.912    61.078457    220.73417 
   12100    131.04928   -84.303658    140660.12   -39432.743    2630.9133   -42063.656    61.379121    222.04199 
   12150    130.08714   -196.37245     140634.4   -39439.741    2611.5977   -42051.339    61.857823     220.4118 
   12200    134.12962   -159.12458    140639.92   -39372.874    2692.7535   -42065.628    61.951306    227.26113 
   12250     133.8729   -82.639287    140670.59   -39332.683    2687.5997   -42020.282    62.268888    226.82616 
   12300    132.98464   -119.14096    140741.36    -39299.34    2669.7671   -41969.107    62.655114    225.32114 
   12350    132.49766   -111.51008    140826.32   -39336.391    2659.9907   -41996.382    62.958964    224.49604 
   12400    132.61516   -41.398284    140902.46   -39317.002    2662.3495   -41979.352    63.079193    224.69512 
   12450    132.19844   -106.87637    140913.93   -39309.387    2653.9835   -41963.371    63.318898    223.98905 
   12500    129.00247    -78.83251    140928.86    -39333.38    2589.8221   -41923.202    63.555281      218.574 
   12550    132.13107   -218.81251    140970.31   -39366.405    2652.6311   -42019.036    63.739083    223.87491 
   12600    133.73372   -41.748157    140961.66   -39333.387    2684.8055   -42018.192    63.910019    226.59035 
   12650    133.28505   -8.2469039    141045.21   -39301.129    2675.7981   -41976.927    64.051471    225.83014 
   12700     137.6432   -127.42671    141148.11   -39279.306    2763.2913   -42042.597    64.269865    233.21433 
   12750    133.97107   -132.09735    141172.55   -39286.599    2689.5705    -41976.17    64.570356    226.99249 
   12800    136.50474   -255.20732    141146.13   -39301.527    2740.4358   -42041.963    64.869202    231.28538 
   12850     131.8581   -182.07296    141146.86   -39323.193     2647.151   -41970.344    65.247879    223.41241 
   12900    133.33699   -323.85478    141113.13   -39381.922    2676.8408   -42058.763    65.515993    225.91814 
   12950    131.63024   -396.70946    141082.64   -39371.419    2642.5766   -42013.996    65.675583    223.02633 
   13000    133.68798   -187.65992    140980.44   -39388.448    2683.8872   -42072.335    65.953123    226.51284 
   13050    134.17784   -196.78473    140910.75   -39362.135    2693.7216   -42055.856    66.343452    227.34284 
   13100     132.8476   -470.89901    140851.81   -39382.228     2667.016   -42049.244    66.584091    225.08895 
   13150    132.79485   -445.74797    140755.05   -39383.562    2665.9569   -42049.519    66.899383    224.99957 
   13200    133.10038   -306.35628    140685.14   -39340.787    2672.0908   -42012.878    67.115576    225.51725 
   13250    132.88454   -302.65006     140544.7   -39383.135    2667.7575   -42050.893     67.28727    225.15154 
   13300    133.64001   -14.633923    140509.45   -39340.072    2682.9241   -42022.996    67.536965    226.43156 
   13350    135.04533    69.852279    140632.52   -39382.409     2711.137   -42093.546    67.476095    228.81265 
   13400    133.82625   -153.08398    140681.21   -39393.652    2686.6631   -42080.315    67.712962    226.74712 
   13450    133.22221   -216.46067    140661.79   -39374.284    2674.5365    -42048.82    67.951409    225.72366 
   13500    132.37242   -27.815559    140683.88   -39392.388    2657.4764   -42049.864    68.048731    224.28384 
   13550    137.17389   -146.42955    140749.86   -39366.162    2753.8695   -42120.031     68.31531    232.41916 
   13600    134.17435   -244.27596    140789.06     -39380.8    2693.6514   -42074.451    68.537389    227.33691 
   13650    132.34591   -334.07811    140757.83   -39379.213    2656.9443   -42036.158    68.719113    224.23893 
   13700    134.13137    -192.0216    140779.31   -39382.084    2692.7886   -42074.873    68.799304     227.2641 
   13750    132.93424   -136.22729    140784.04   -39394.513    2668.7553   -42063.268    69.022237    225.23575 
   13800      129.917   -125.17228    140708.97   -39421.625     2608.182   -42029.807    69.286137    220.12353 
   13850    133.45527   -209.06323     140722.1   -39440.464    2679.2154    -42119.68    69.526729    226.11855 
   13900    133.50074   -221.70754    140739.92   -39347.542    2680.1282   -42027.671     69.67314    226.19559 
   13950    134.06946   -99.222799    140741.66   -39356.641    2691.5456   -42048.186    69.905406    227.15919 
   14000    131.55872   -102.46874    140731.66   -39350.205    2641.1408   -41991.346     69.99269    222.90516 
   14050     131.5382    -88.28733    140723.08   -39407.741    2640.7288    -42048.47    70.198883    222.87039 
   14100    130.61561   -109.36857    140771.73   -39455.465    2622.2071   -42077.672    70.312549     221.3072 
   14150    133.46695   -67.858291    140858.94   -39486.666    2679.4499   -42166.116    70.682715    226.13834 
   14200    134.35125   -382.31521     140821.6   -39475.695     2697.203   -42172.898    71.028905    227.63665 
   14250    133.68471   -36.185328    140819.97   -39416.159    2683.8216   -42099.981    71.378103     226.5073 
   14300    134.43016    -319.1637    140772.67   -39426.407     2698.787   -42125.194    71.507117    227.77034 
   14350    134.67108   -205.72394    140765.89   -39431.541    2703.6236   -42135.165    71.749592    228.17854 
   14400     133.3474   -224.43962    140749.29   -39400.062    2677.0499   -42077.111    72.107958    225.93579 
   14450    132.26623   -170.77554    140706.32   -39399.549    2655.3446   -42054.894    72.183778    224.10392 
   14500     132.7007   -31.485643    140782.96    -39420.74    2664.0669   -42084.807    72.292426    224.84006 
   14550    130.62496   -160.41352    140872.48   -39398.988    2622.3949   -42021.383    72.522424    221.32305 
   14600    131.34548   -128.53009    140861.76   -39421.036    2636.8597   -42057.895    72.784449    222.54384 
   14650    129.92033   -146.76193    140847.89   -39447.359    2608.2487   -42055.608    73.013006    220.12916 
   14700    131.53604   -55.174296    140823.92   -39428.862    2640.6853   -42069.548    73.297652    222.86672 
   14750    131.56207   -148.62105     140854.5   -39436.374     2641.208   -42077.582    73.528476    222.91083 
   14800    131.45905   -284.30405    140848.54   -39499.597    2639.1398   -42138.737    73.889112    222.73628 
   14850    132.81596   -261.24692    140792.03    -39472.81    2666.3807   -42139.191    74.119189    225.03534 
   14900     133.4156   -244.13482    140770.14   -39498.779    2678.4189   -42177.198    74.509361    226.05133 
   14950      130.674   -160.99533    140727.89   -39479.466    2623.3793   -42102.845    74.640248    221.40614 
   15000    133.00873   -279.66859    140773.09   -39481.898    2670.2508   -42152.149    74.799408    225.36197 
   15050    131.17268   -263.34441    140732.89   -39525.486    2633.3908   -42158.877    74.993844    222.25108 
   15100    132.67194    -215.1179    140716.25   -39531.117    2663.4895   -42194.606    75.322365    224.79133 
   15150    130.97194   -205.41773    140706.65   -39551.017    2629.3606   -42180.377    75.539464    221.91094 
   15200    130.85113   -299.93958    140633.05   -39486.682    2626.9354   -42113.617    75.585068    221.70626 
   15250     128.7503   -74.707258    140702.64   -39486.608    2584.7595   -42071.368    75.540527    218.14673 
   15300    129.29309   -114.32917    140792.54   -39495.298    2595.6565   -42090.954    75.778389     219.0664 
   15350    129.57259   -269.52013    140742.34   -39482.756    2601.2676   -42084.023    76.070718    219.53997 
   15400     131.4536   -105.19127     140711.4   -39464.788    2639.0304   -42103.819    76.319188    222.72705 
   15450    128.84211    153.38222    140804.95   -39414.023    2586.6027   -42000.625    76.477529    218.30229 
   15500    133.36772   -186.96242    140868.16   -39391.574    2677.4579   -42069.031    76.571249    225.97022 
   15550    132.92367   -179.73012    140958.97   -39367.907    2668.5432    -42036.45     76.64194    225.21785 
   15600    134.49308   -312.14196    140992.65    -39365.08    2700.0503   -42065.131    76.867237    227.87696 
   15650    135.03353   -172.83154    140938.34   -39310.871    2710.9002   -42021.771    77.098469    228.79267 
   15700    133.24417   -179.19897    140877.17    -39322.56    2674.9774   -41997.538    77.320546    225.76087 
   15750    133.38339   -117.38579    140870.31   -39332.426    2677.7723   -42010.198    77.501481    225.99676 
   15800     134.6217   -255.25392    140867.95   -39336.687    2702.6324    -42039.32    77.631901    228.09489 
   15850      132.796     -165.816    140910.02   -39385.346      2665.98   -42051.326    77.788055    225.00152 
   15900    134.39492   -72.480997     140917.7   -39409.053    2698.0797   -42107.133    78.017908    227.71064 
   15950    132.39983   -65.628876    141009.76    -39438.87    2658.0267   -42096.897    78.081583    224.33028 
   16000    132.94812   -162.61266    141083.95   -39402.387    2669.0339   -42071.421    78.322689    225.25926 
   16050    130.28365   -307.27892    141078.08   -39455.986    2615.5426   -42071.529    78.604258    220.74474 
   16100    133.04111   -258.90335    141094.26   -39472.417    2670.9008   -42143.318    78.679741    225.41683 
   16150    130.79855   -287.86629    140980.56   -39497.586    2625.8797   -42123.466    78.912648    221.61716 
   16200    130.34786   -126.60978     140801.7   -39461.532    2616.8317   -42078.364    79.134407    220.85354 
   16250    133.32453    49.625974    140771.61   -39468.042    2676.5907   -42144.633    79.354271    225.89703 
   16300    134.11732   -8.8929992    140801.04   -39488.091    2692.5065   -42180.597    79.784708    227.24029 
   16350    132.54754   -214.52599    140869.51    -39507.43    2660.9921   -42168.422    80.041719    224.58056 
   16400    132.98408   -296.89737     140855.5    -39524.32    2669.7559   -42194.076    80.182744    225.32019 
   16450    130.58913   -230.74046     140859.3   -39550.985    2621.6755   -42172.661    80.477187    221.26234 
   16500    131.85511   -283.80917    140844.87   -39528.051     2647.091   -42175.142    80.939641    223.40734 
   16550    133.46492   -64.014507    140837.78   -39511.737    2679.4092   -42191.146    81.007551    226.13491 
   16600    134.52344   -225.56634    140844.81   -39530.865    2700.6597   -42231.525    80.992462    227.92839 
   16650    131.09506   -118.66274    140799.37   -39485.929    2631.8323   -42117.762    81.245021    222.11955 
   16700    129.85707   -156.87085    140767.42   -39509.078    2606.9788   -42116.056    81.309362    220.02198 
   16750    132.58893   -204.13249    140764.54   -39487.403     2661.823   -42149.226    81.594799    224.65068 
   16800    131.86106   -135.74931    140813.08   -39478.086    2647.2105   -42125.297    81.929933    223.41742 
   16850    132.15163    -267.9536     140776.5   -39464.211    2653.0438   -42117.255    82.102192    223.90974 
   16900    133.98285   -196.08409    140821.63   -39438.827     2689.807   -42128.634    82.141216    227.01246 
   16950    135.11142  -0.31759179    140838.65   -39419.274    2712.4639   -42131.738    82.389871    228.92464 
   17000    134.30119   -245.34228    140862.87   -39412.798    2696.1978   -42108.996    82.679822    227.55182 
   17050    133.91227    -258.3704    140795.87   -39441.906      2688.39   -42130.296    82.836494    226.89287 
   17100    131.54505   -328.42434    140704.64   -39464.364    2640.8663    -42105.23    83.170303    222.88199 
   17150    133.06285   -92.191077    140681.88   -39443.539    2671.3372   -42114.877    83.207563    225.45365 
   17200    132.32253   -267.60683    140708.49   -39508.092    2656.4749   -42164.566    83.440732    224.19931 
   17250    135.02286   -249.30074    140665.73   -39442.313    2710.6859   -42152.998    83.644105    228.77458 
   17300    133.59599   -125.01143    140602.74    -39496.88    2682.0405    -42178.92    83.602419    226.35699 
   17350    133.27018   -225.50549    140628.64   -39499.486    2675.4996   -42174.986    83.818867    225.80495 
   17400    133.12184   -262.52623    140635.17   -39536.407    2672.5216   -42208.929    84.080683    225.55361 
   17450    134.14488   -178.40789    140641.25   -39549.893    2693.0598   -42242.953     84.50772    227.28698 
   17500    133.34364   -108.71039    140713.16   -39534.894    2676.9743   -42211.868    85.008104    225.92941 
   17550     132.2081   -189.48536    140720.62    -39565.95    2654.1775   -42220.127    85.170118    224.00542 
   17600    132.36929   -231.82668    140649.15   -39554.001    2657.4135   -42211.414    85.232305    224.27853 
   17650    131.16325   -143.89461     140639.2   -39566.026    2633.2014   -42199.227    85.542742     222.2351 
   17700    132.11669   -221.92118    140611.78   -39543.129    2652.3424   -42195.471    85.437139    223.85055 
   17750    133.37708   -107.66085    140608.43   -39518.608    2677.6456   -42196.253    85.620276    225.98606 
   17800    131.01821   -143.86665    140561.72   -39493.318    2630.2897   -42123.608    85.812634    221.98935 
   17850    132.35193   -173.22105    140534.95   -39507.676    2657.0651   -42164.741    86.008389    224.24912 
   17900    131.77838   -36.058477    140566.73   -39433.648    2645.5506   -42079.199    86.110314    223.27734 
   17950    135.80786    -164.6607    140651.06   -39424.169    2726.4453   -42150.614    86.273357    230.10463 
   18000    134.68599   -187.25202    140725.74   -39343.912     2703.923   -42047.835    86.479078    228.20381 
   18050    136.59587   -319.89054     140663.1   -39336.551    2742.2652   -42078.816    86.521105    231.43979 
   18100    135.31533   -283.67648    140627.47   -39365.541    2716.5575   -42082.098    86.488263    229.27013 
   18150    132.88144   -325.66358    140640.65   -39418.711    2667.6954   -42086.407    86.658968    225.14629 
   18200    132.24794   -220.96716    140680.21   -39450.696    2654.9773   -42105.673    87.011125    224.07292 
   18250    126.84938   -150.69565    140631.36   -39484.902    2546.5971   -42031.499    87.223945    214.92592 
   18300    133.16615    -243.6538    140627.95   -39427.606     2673.411   -42101.017     87.28822    225.62868 
   18350    130.63452   -316.14471    140678.67   -39471.601    2622.5867   -42094.188    87.373673    221.33925 
   18400    131.80603   -149.88274    140618.71   -39453.447    2646.1057   -42099.553    87.382588    223.32419 
   18450    132.43109   -188.32956    140736.46   -39483.811    2658.6541   -42142.465    87.422644    224.38324 
   18500    131.66977   -210.31421    140746.74   -39428.742    2643.3701   -42072.112    87.473014     223.0933 
   18550    134.58477   -139.20498    140722.37   -39397.928    2701.8911   -42099.819    87.765138    228.03232 
   18600    132.35364   -63.560701    140693.88     -39434.9    2657.0993       -42092    87.972038    224.25202 
   18650    131.11902    -449.5498    140589.07    -39450.74    2632.3134   -42083.053    88.132702    222.16015 
   18700    131.96149   -235.79986    140453.71   -39446.464    2649.2267   -42095.691    88.297678    223.58758 
   18750    132.71441   -133.27052    140403.06   -39390.504     2664.342   -42054.846    88.500237    224.86328 
   18800    132.17127   -22.284026    140418.01   -39364.028    2653.4381   -42017.467    88.773033    223.94302 
   18850    132.19357   -170.70885    140452.22   -39386.662    2653.8858   -42040.548     88.88114    223.98081 
   18900    133.47593   -113.45675    140478.79    -39381.66    2679.6301    -42061.29     88.90815    226.15355 
   18950    132.10962   -256.66979       140434   -39346.674    2652.2004   -41998.874    88.958373    223.83856 
   19000    133.11602   -196.07912    140425.47   -39350.997    2672.4047   -42023.401    88.988377    225.54374 
   19050    132.23887   -165.87173    140445.36   -39419.767    2654.7952   -42074.563    89.142495    224.05755 
   19100    131.38483   -165.79729    140373.17   -39438.764    2637.6498   -42076.413    89.373129    222.61053 
   19150    133.61557   -46.342522    140397.79   -39442.822    2682.4336   -42125.256    89.571032    226.39016 
   19200    133.48818   -13.362506    140490.22   -39478.644    2679.8761    -42158.52    89.728661    226.17432 
   19250    129.87504   -114.24503    140511.24   -39505.853    2607.3395   -42113.192    89.945384    220.05242 
   19300    132.38394   -38.355372    140586.73   -39450.508    2657.7076   -42108.216      89.8871    224.30336 
   19350    130.57721   -151.00006    140623.64   -39478.797    2621.4361   -42100.233    90.144627    221.24214 
   19400    130.18252   -233.64428     140643.6   -39504.302    2613.5125   -42117.815    90.283899    220.57341 
   19450    130.60575   -189.86418    140638.51   -39469.835    2622.0091   -42091.844    90.452031    221.29049 
   19500    132.18049   -8.3545587    140655.37   -39493.588    2653.6232   -42147.212    90.424054    223.95864 
   19550     137.3723   -325.18325    140742.26    -39426.54    2757.8527   -42184.393    90.411106    232.75533 
   19600    135.21197   -54.382175    140783.73   -39404.361    2714.4824   -42118.844     90.52536      229.095 
   19650    133.30693    -514.0249    140726.82   -39432.073    2676.2373    -42108.31    90.523886    225.86721 
   19700    131.44905   -483.95997    140554.65   -39417.698     2638.939   -42056.637    90.863391    222.71933 
   19750    133.45624   -341.36683    140489.49   -39419.293    2679.2348   -42098.528    91.180149    226.12019 
   19800    133.85144   -176.18508    140561.93   -39392.474    2687.1688   -42079.643    91.378448     226.7898 
   19850    131.72015   -265.20956    140563.18   -39463.437    2644.3815   -42107.818    91.610974    223.17866 
   19900    132.61348   -303.34861    140541.04   -39493.421    2662.3158   -42155.737     91.62943    224.69227 
   19950    130.65355   -189.03902    140508.23   -39515.072    2622.9688   -42138.041    91.681476    221.37149 
   20000    133.37667   -142.03471    140500.45   -39430.022    2677.6374   -42107.659    91.759523    225.98537 
   20050    134.09927   -221.32422    140514.12   -39346.234    2692.1442   -42038.379    92.123522     227.2097 
   20100    134.43755    -26.04056    140597.71   -39315.045    2698.9354    -42013.98    92.151429    227.78287 
   20150     134.7565   -88.996242    140724.23   -39326.166    2705.3386   -42031.504    92.092337    228.32328 
   20200    133.77933   -210.46504    140678.22   -39317.235    2685.7212   -42002.956      92.0425    226.66763 
   20250    136.37481   -104.44645    140699.51   -39327.043    2737.8273    -42064.87    92.262356    231.06524 
   20300    132.88748    138.92447     140704.5   -39332.254    2667.8166    -42000.07    92.392637    225.15653 
   20350    133.66854    19.972295    140704.82    -39370.01    2683.4969   -42053.507     92.60327     226.4799 
   20400    132.35749   -127.44049    140743.96   -39395.835    2657.1767   -42053.012    92.869752    224.25854 
   20450    134.15013   -17.789455    140775.36   -39399.939    2693.1653   -42093.104    93.412413    227.29589 
   20500    131.98719   -143.34131    140742.19   -39374.224    2649.7426   -42023.967    93.747651    223.63113 
   20550    133.06162   -59.312756    140793.23   -39403.078    2671.3127   -42074.391    94.100369    225.45158 
   20600    132.45304   -116.98197    140835.63   -39412.501    2659.0948   -42071.596    94.392592    224.42043 
   20650    134.69745   -121.79604    140846.08   -39433.538    2704.1531   -42137.691    94.810535    228.22323 
   20700    132.03541   -67.978827    140911.17   -39447.804    2650.7106   -42098.515    95.038361    223.71282 
   20750    133.24474    178.15448    141002.63   -39479.316    2674.9889   -42154.304    95.292422    225.76184 
   20800    131.71624   -151.63402    141023.94   -39480.264     2644.303   -42124.567    95.502044    223.17204 
   20850    132.19661   -267.26808     141029.3   -39481.058    2653.9469   -42135.005    95.580866    223.98596 
   20900    133.54491   -314.98511    140991.45    -39475.02    2681.0151   -42156.036    95.826796    226.27044 
   20950    133.00991   -359.55673    140936.75   -39507.538    2670.2744   -42177.813    95.796424    225.36395 
   21000    132.38531   -205.52746    140847.35   -39539.608    2657.7352   -42197.344    95.698868    224.30568 
   21050    133.01229   -64.431207    140831.83   -39565.912    2670.3223   -42236.234    95.764295      225.368 
   21100    131.53081   -178.50973    140884.65   -39564.458    2640.5804   -42205.038     95.96979    222.85787 
   21150    132.41329   -296.01552    140836.44   -39520.566    2658.2969   -42178.863    96.246186    224.35309 
   21200    131.07502   -108.13788    140929.43   -39546.896    2631.4301   -42178.326     96.27787     222.0856 
   21250    131.66754   -45.550178     140991.5   -39537.919    2643.3253   -42181.245    96.297993    223.08952 
   21300    131.20621   -204.36138    141028.63   -39544.951    2634.0638   -42179.014    96.334921    222.30788 
   21350    133.77078   -275.33626    141054.04   -39546.032    2685.5496   -42231.582    96.460169    226.65314 
   21400    133.21136   -136.02488    141076.97   -39524.403    2674.3187   -42198.722    96.785653    225.70529 
   21450     135.1733   -202.82051     141122.6   -39505.658    2713.7062   -42219.364    96.965467    229.02948 
   21500    131.50487   -167.22807       141120   -39541.186    2640.0597   -42181.246    97.144812    222.81391 
   21550    134.16257   -289.65906    141104.03   -39530.626    2693.4151   -42224.041    97.344679    227.31696 
   21600    130.51484   -130.64132    141042.66   -39543.143    2620.1841   -42163.327    97.624002    221.13647 
   21650    131.10177   -413.98861    141032.45    -39561.98    2631.9672   -42193.948     98.08161    222.13093 
   21700    130.15969   -353.34957    140977.26   -39577.214    2613.0542   -42190.268    98.243862    220.53473 
   21750     131.7898   -201.90871    140987.39   -39549.906    2645.7798   -42195.686    98.437528    223.29667 
   21800    131.09628   -402.53122    140966.47   -39577.225     2631.857   -42209.082    98.383475    222.12163 
   21850    130.47604   -130.94964    140916.31   -39557.442    2619.4052   -42176.847    98.525178    221.07073 
   21900    131.30697   -216.39053    140940.77   -39570.715    2636.0866   -42206.801    98.602303     222.4786 
   21950    131.19513   -68.625487    140983.07   -39558.168    2633.8414   -42192.009    98.799235    222.28911 
   22000    132.51442   -362.26279    140933.79   -39549.777    2660.3271   -42210.104     98.89495    224.52443 
   22050    133.18386   -161.51884    140902.76   -39563.596    2673.7667   -42237.363    99.394012     225.6587 
   22100    133.21307   -342.53609    140957.53    -39533.56    2674.3531   -42207.913    99.579255    225.70819 
   22150    134.88302   -75.784889    140973.36   -39489.559    2707.8786   -42197.438    99.740645    228.53765 
   22200     134.1301    -81.19507     141037.4   -39478.194    2692.7632   -42170.957    99.818179    227.26195 
   22250    134.14844   -110.88699    141101.63   -39453.322    2693.1313   -42146.453    99.866269    227.29302 
   22300    137.42322   -404.47772    141119.72   -39502.943     2758.875   -42261.818    100.06051    232.84161 
   22350    130.16232   -321.78909    141082.95    -39521.58     2613.107   -42134.687    100.30775    220.53918 
   22400    130.67944    -336.3603     141109.9   -39484.555    2623.4885   -42108.044     100.4465    221.41535 
   22450    133.63251   -243.94078    141115.67   -39446.588    2682.7735   -42129.361    100.40324    226.41885 
   22500    132.16886   -268.95206    141088.28   -39529.388    2653.3897   -42182.778    100.14234    223.93893 
   22550    132.19868   -274.26584    141034.25   -39573.016    2653.9883   -42227.004    100.31516    223.98946 
   22600    132.30712   -330.13258    141021.53   -39522.927    2656.1655   -42179.093    100.36827     224.1732 
   22650    133.65365   -345.87324    141045.71   -39511.075     2683.198   -42194.273    100.65718    226.45468 
   22700    131.91555   -284.25477    141063.06   -39499.159    2648.3043   -42147.464    100.84886    223.50974 
   22750    134.45599   -285.68553    141064.68   -39446.172    2699.3055   -42145.477    101.08194    227.81411 
   22800      133.289    -435.8994    141030.76   -39462.757    2675.8775   -42138.635    100.89867    225.83684 
   22850    136.12262   -287.32419     141004.4    -39458.11    2732.7645   -42190.875    100.97075    230.63796 
   22900    133.35564   -260.28104    141024.83   -39521.326    2677.2152   -42198.541     100.9861    225.94974 
   22950    133.93307   -299.72496    141073.38   -39509.206    2688.8076   -42198.014    101.02253    226.92811 
   23000     131.8918   -361.62538    140965.03   -39519.654    2647.8276   -42167.481    101.14793    223.46951 
   23050    134.69917   -178.36818    140914.18   -39548.642    2704.1876   -42252.829    101.38363    228.22614 
   23100    130.27361   -383.45305    140865.34   -39579.043    2615.3412   -42194.384    101.61986    220.72774 
   23150    132.19354   -298.34104    140812.68    -39518.82    2653.8853   -42172.706    102.03974    223.98076 
   23200    134.06904   -189.87894    140794.99    -39498.94    2691.5373   -42190.477    102.13674    227.15848 
   23250     133.1477   -17.874234    140803.56    -39515.75    2673.0407   -42188.791     102.3016    225.59742 
   23300    132.16166    51.274771    140833.59   -39572.991    2653.2452   -42226.236    102.36737    223.92674 
   23350    131.64302   -433.80069    140783.64   -39570.973     2642.833   -42213.806    102.58125    223.04798 
   23400    132.56556   -187.60727     140747.8    -39562.48    2661.3538   -42223.834    102.81308    224.61108 
   23450    132.91724   -55.931628    140744.92   -39536.583     2668.414   -42204.997    103.02111    225.20694 
   23500    131.01184    -1.539972    140807.35   -39553.551    2630.1617   -42183.713    103.12481    221.97855 
   23550    132.26444   -164.11401    140878.33   -39580.029    2655.3086   -42235.337    103.03957    224.10089 
   23600    131.36862   -279.11889    140935.98   -39591.799    2637.3243   -42229.123    103.09139    222.58305 
   23650    132.11657     -190.064    140927.88   -39578.286    2652.3399   -42230.626    103.50654    223.85033 
   23700    130.67885   -110.78949    140947.68    -39553.65    2623.4768   -42177.126    103.80469    221.41436 
   23750    131.61657   -198.54662     140961.6   -39540.169    2642.3021   -42182.471    104.15791    223.00317 
   23800    132.23322   -406.96788    140985.56   -39510.589    2654.6818   -42165.271    104.39426    224.04798 
   23850    130.42243   -202.93419    141026.34   -39501.343    2618.3288   -42119.672    104.51334    220.97989 
   23900    131.95718   -258.40359    141038.66   -39465.316    2649.1401   -42114.456    104.74255    223.58028 
   23950    133.80146   -233.81609    141049.66   -39442.822    2686.1653   -42128.987    104.73799    226.70511 
   24000    133.78418    -386.6843    141006.83   -39448.264    2685.8184   -42134.083    104.87183    226.67583 
   24050    133.05346   -140.14603    140972.97   -39459.595    2671.1488   -42130.744       105.02    225.43776 
   24100    131.37273   -152.41265    140990.18    -39509.99    2637.4068   -42147.397    104.90673    222.59002 
   24150    130.56097   -137.88282     141050.7   -39490.762    2621.1101   -42111.872    105.21385    221.21462 
   24200    128.98441   -93.507492    140981.29   -39545.186    2589.4596   -42134.646    105.29821     218.5434 
   24250    131.26384   -113.09015    140955.63   -39569.349    2635.2208    -42204.57    105.52818    222.40553 
   24300    129.40643   -75.520881     140997.2    -39552.51    2597.9318   -42150.441    105.80711    219.25844 
   24350    131.07619   -248.93793     140968.6   -39519.119    2631.4535   -42150.572    106.15751    222.08758 
   24400     134.3975   -266.49293    140951.56   -39522.468    2698.1313   -42220.599    106.23631    227.71501 
   24450    135.16459   -25.688796    140975.22   -39438.975    2713.5312   -42152.506    106.52642    229.01471 
   24500     134.6879   -72.742695    141026.44   -39461.023    2703.9614   -42164.984    106.73038    228.20705 
   24550    133.98808   -330.99146    141071.53   -39464.919     2689.912   -42154.831    107.03519    227.02131 
   24600    133.81016   -371.49903    140967.25    -39446.39    2686.3401    -42132.73    107.52217    226.71986 
   24650    133.28172   -130.02034    140929.79   -39415.497    2675.7313   -42091.228    107.82491    225.82451 
   24700    132.66549    -90.66295    140943.73   -39419.429    2663.3599   -42082.789    108.12894    224.78039 
   24750    133.55444   -262.76015    140970.02     -39397.5    2681.2062   -42078.706    108.35954    226.28657 
   24800    132.68671   -267.05783     141000.1   -39418.459    2663.7859   -42082.244    108.55007    224.81634 
   24850     132.1263   -33.161051    140971.04   -39444.754    2652.5354   -42097.289    108.93796    223.86683 
   24900    133.93274   -148.43985    141021.74   -39469.091    2688.8009   -42157.892    109.37665    226.92754 
   24950    131.14023   -317.68255    141031.46   -39484.796    2632.7393   -42117.535    109.73914    222.19609 
   25000    134.05201   -259.15248    140970.32    -39466.99    2691.1954   -42158.186    109.87266    227.12963 
   25050    131.54297   -279.75093    140885.68   -39457.545    2640.8245   -42098.369    110.35345    222.87846 
   25100    132.90007   -234.69848    140812.33     -39445.8    2668.0693   -42113.869    110.59517    225.17785 
   25150    129.99193   -178.40654       140821   -39477.593    2609.6863   -42087.279    110.66599    220.25048 
   25200      132.321   -146.32016    140910.37   -39518.311    2656.4441   -42174.755    110.89516    224.19672 
   25250    132.75351   -70.553293    140917.36   -39472.762    2665.1271   -42137.889    111.07347    224.92954 
   25300    131.55319   -146.07985    140875.85   -39452.126    2641.0296   -42093.155     111.3168    222.89578 
   25350    134.21447   -210.77896     140900.9     -39451.2    2694.4569   -42145.656     111.5942     227.4049 
   25400    134.63263   -148.75447    140862.23   -39461.484    2702.8519   -42164.336    111.81145    228.11341 
   25450    131.92187   -133.80884    140938.37   -39465.781    2648.4313   -42114.213     112.1954    223.52045 
   25500    132.92074   -176.35318    140951.76   -39454.603    2668.4844   -42123.088    112.42465    225.21288 
   25550    130.68958   -274.51086    140922.01    -39499.63    2623.6921   -42123.322    112.51696    221.43253 
   25600    132.88795   -195.79143    140842.12   -39445.941     2667.826   -42113.767    112.70714    225.15731 
   25650    133.56842   -142.93581    140929.65   -39441.828     2681.487   -42123.315    113.04733    226.31027 
   25700    132.27595   -228.29281    140920.96   -39412.864    2655.5396   -42068.404    113.47126    224.12038 
   25750    134.41647   -11.284742    140904.53   -39419.406    2698.5123   -42117.919    113.60027    227.74716 
   25800    133.68586   -76.532643    140994.85   -39480.352    2683.8447   -42164.197    113.85326    226.50925 
   25850    134.12928   -262.68443    141030.14    -39448.57    2692.7467   -42141.317    114.12395    227.26056 
   25900    134.39223   -441.07525    141012.91   -39472.192    2698.0256   -42170.218    114.17626    227.70609 
   25950    131.46237   -129.68065    141008.32   -39448.228    2639.2064   -42087.434     114.5972     222.7419 
   26000    133.17708   -83.795055    141024.11    -39447.39    2673.6306    -42121.02    114.92826    225.64721 
   26050    133.35731   -50.833052    141082.92   -39402.339    2677.2488   -42079.588    115.02001    225.95258 
   26100    132.60221   -130.50857    141028.83   -39416.658    2662.0896   -42078.748    115.24015    224.67318 
   26150    132.18561    -259.0343    141066.63   -39423.639    2653.7261   -42077.365    115.72528    223.96732 
   26200    131.74147   -113.61836    140989.51   -39421.936    2644.8096   -42066.745    115.69595     223.2148 
   26250    133.68911   -134.54481     141017.8   -39419.912    2683.9099   -42103.822    115.66424    226.51476 
   26300    133.25253   -68.369371    140969.63   -39420.202    2675.1452   -42095.347    115.88841    225.77504 
   26350    132.97143    -211.6382    140917.63   -39404.623     2669.502   -42074.125     116.1079    225.29877 
   26400    132.93976   -56.289975    141001.36   -39405.059     2668.866   -42073.925    116.30213    225.24509 
   26450     130.9753   -146.12222    140999.84   -39434.162    2629.4281    -42063.59    116.34406    221.91664 
   26500    132.84718   -201.94301    140949.15   -39422.185    2667.0075   -42089.193    116.56387    225.08824 
   26550    132.53723   -95.190825       141038   -39431.767     2660.785   -42092.552    116.80336    224.56308 
   26600    132.14313   -220.08426    141059.64   -39483.713    2652.8733   -42136.586    116.94682    223.89535 
   26650    132.11293   -205.81789    141131.71   -39462.525     2652.267   -42114.792    117.17222    223.84418 
   26700    129.26932   -67.438787    141084.75   -39497.475    2595.1792   -42092.654    117.53274    219.02613 
   26750     130.5918   -389.14627    140990.96   -39548.487    2621.7291   -42170.216    117.83221    221.26686 
   26800    130.73891   -172.42806    140974.24   -39473.508    2624.6824    -42098.19    118.03366    221.51611 
   26850    131.14685   -404.37703    140939.98    -39506.37     2632.872   -42139.242    118.26676     222.2073 
   26900    131.40635   -288.84876    140891.67   -39524.315    2638.0817   -42162.397    118.43276    222.64698 
   26950    132.37533   -239.16933    140884.11   -39466.646    2657.5347   -42124.181     118.5553    224.28876 
   27000     133.9602   -18.799381     140969.1   -39446.003    2689.3522   -42135.355    118.77787    226.97407 
   27050    131.64052   -205.67791    141000.94   -39446.919     2642.783   -42089.702    118.97746    223.04376 
   27100    132.38609   -305.08341    141126.08   -39481.012    2657.7508   -42138.762    119.35401    224.30699 
   27150    128.88597   -149.23466    141080.45   -39489.333    2587.4832   -42076.816    119.48355    218.37661 
   27200     131.7339   -273.93497    141086.29    -39461.92    2644.6576   -42106.577    119.44738    223.20196 
   27250    134.23473    -136.3279    141075.96   -39441.506    2694.8637    -42136.37    119.78073    227.43922 
   27300     134.2045   -260.09843    141114.71   -39420.018    2694.2568   -42114.275    120.10882      227.388 
   27350    131.64294   -133.82931    141078.93   -39411.382    2642.8314   -42054.214    120.36417    223.04784 
   27400    134.95436   -148.11132    141082.63   -39397.848    2709.3108   -42107.159    120.66437    228.65853 
   27450    133.72982   -333.81281    141102.25   -39430.883    2684.7272    -42115.61    120.85089    226.58373 
   27500    134.73563   -274.91936    141116.43   -39412.297    2704.9196   -42117.216    121.10102    228.28791 
   27550     135.9271   -30.548514    141191.87   -39329.982    2728.8392   -42058.822    121.04169    230.30667 
   27600     131.8341   -63.912238    141211.89   -39395.521    2646.6691    -42042.19    121.11339    223.37173 
   27650    133.96914   -269.45933       141250   -39397.352    2689.5318   -42086.884    121.57579    226.98923 
   27700    130.73681   -175.96238     141257.9   -39425.351    2624.6402   -42049.991    121.71085    221.51255 
   27750    130.90056   -203.48509    141291.66   -39446.183    2627.9277   -42074.111    122.07804    221.79001 
   27800    131.78475   -394.90984    141240.74   -39454.912    2645.6784   -42100.591    122.03073    223.28812 
   27850    134.10729   -347.08728    141161.97   -39428.938    2692.3053   -42121.244    121.90082     227.2233 
   27900    135.44882   -102.93344    141160.17   -39379.862    2719.2373     -42099.1    121.98704     229.4963 
   27950    134.15082   -279.03557    141163.37   -39473.256    2693.1791   -42166.436    122.12105    227.29705 
   28000    133.40195    -234.2497    141124.86   -39469.369    2678.1449   -42147.514    122.19207     226.0282 
   28050     132.0088   -216.21253    141080.74   -39479.349    2650.1765   -42129.526    122.71337    223.66774 
   28100    133.73367   -122.16447    141043.95   -39478.526    2684.8044    -42163.33    123.02868    226.59025 
   28150    131.70513    6.2452504    141076.29    -39467.79      2644.08    -42111.87    122.99861    223.15322 
   28200     133.7007   -123.42615    141062.67   -39471.804    2684.1427   -42155.947    123.11472     226.5344 
   28250     133.8722    -56.90113    141110.01   -39481.374    2687.5857   -42168.959    123.17185    226.82498 
   28300    133.95716   -196.19591     141106.4   -39546.645    2689.2913   -42235.936    123.44818    226.96893 
   28350    133.17681   -341.75027    141053.84   -39556.751    2673.6251   -42230.376    123.50659    225.64674 
   28400    131.97062   -393.06931    141021.03   -39578.302    2649.4099   -42227.712    123.82702    223.60305 
   28450    132.20758    -404.9113    140971.29   -39511.023    2654.1671    -42165.19     123.8924    224.00454 
   28500    131.06528   -190.28501    140972.05   -39542.836    2631.2346    -42174.07     123.9211     222.0691 
   28550    135.61004   -287.08495    140917.26   -39508.749     2722.474   -42231.223    124.27803    229.76946 
   28600    131.42271   -190.82324    141001.36    -39531.77    2638.4103    -42170.18    124.43326    222.67471 
   28650    130.47093   -335.64135    140981.25   -39537.447    2619.3025   -42156.749    124.75631    221.06207 
   28700    129.63743   -139.73342    141018.89   -39578.986    2602.5694   -42181.555      124.985    219.64983 
   28750     131.2589   -266.39794    141057.26   -39572.331    2635.1216   -42207.453    125.16323    222.39715 
   28800    130.66025   -295.37524    141023.36   -39572.438    2623.1033   -42195.541    125.66967    221.38284 
   28850    130.84073   -233.69501    141026.47   -39565.383    2626.7265    -42192.11    125.88194    221.68863 
   28900    131.14169   -148.80086    141025.37   -39518.632    2632.7684     -42151.4    126.11168    222.19855 
   28950    131.33251   -301.88688    141003.81   -39522.166    2636.5995   -42158.765    126.17668    222.52188 
   29000    134.05023   -431.04051     140988.3   -39498.927    2691.1597   -42190.086     126.5473    227.12662 
   29050    131.51227   -144.82117    140974.58   -39516.022    2640.2082    -42156.23    126.58387    222.82645 
   29100    132.39327   -448.96052    140965.36   -39445.846    2657.8949   -42103.741    126.80977    224.31916 
   29150    131.73768   -214.14016    140916.45   -39453.995    2644.7335   -42098.729    127.19913    223.20837 
   29200    132.31834   -185.43463    140973.23   -39452.322    2656.3906   -42108.713    127.14847     224.1922 
   29250    132.38652   -253.39794    140983.08   -39465.915    2657.7594   -42123.674    127.43368    224.30772 
   29300    131.81342    -193.8851    140988.36   -39417.719    2646.2539   -42063.973    127.60959    223.33669 
   29350    132.88163   -125.02133    141005.52   -39467.025    2667.6992   -42134.724    127.99004    225.14662 
   29400    131.57378   -147.09737    141056.93   -39517.516     2641.443   -42158.959    128.17782    222.93066 
   29450    131.49936   -307.79445    141052.16   -39510.219     2639.949   -42150.169    128.58935    222.80458 
   29500      130.571   -320.41277    140969.01   -39493.767    2621.3115   -42115.078    129.01039    221.23162 
   29550    131.79205   -391.91135     140928.2   -39546.163     2645.825   -42191.988    129.37497    223.30049 
   29600    131.59482   -353.32546    140921.88   -39534.372    2641.8654   -42176.238    129.72989    222.96631 
   29650     133.0797   -443.25636    140900.15    -39518.08    2671.6756   -42189.756    130.22644    225.48222 
   29700     133.4253    -274.2005    140876.83   -39482.109    2678.6137   -42160.722    130.53086    226.06777 
   29750    133.71947   -214.46039    140862.54   -39469.246    2684.5195   -42153.765    130.46013     226.5662 
   29800    134.06508   -351.91566    140874.71    -39440.32    2691.4579   -42131.778    130.63047    227.15178 
   29850    132.18628   -382.96736    140840.45   -39491.784    2653.7394   -42145.523    130.88016    223.96845 
   29900    131.69062   -455.24102    140826.67   -39478.727    2643.7886   -42122.516    130.97437    223.12863 
   29950    132.33195   -204.10916    140848.07   -39439.619    2656.6639   -42096.283    130.91198    224.21527 
   30000    131.38005   -262.66068    140878.97   -39429.515    2637.5537   -42067.069    130.89212    222.60242 
   30050    133.97693   -153.56816    140915.67   -39394.897    2689.6881   -42084.585    130.91099    227.00242 
   30100    132.74796   -185.12511     140898.3   -39402.403    2665.0156   -42067.419    131.32017    224.92012 
   30150    132.20369   -436.96891    140929.12   -39425.859    2654.0891   -42079.948    131.24299    223.99796 
   30200    132.61688   -132.34708    140897.88   -39444.966    2662.3842    -42107.35    131.22634    224.69804 
   30250    131.41287   -25.791263    140881.03   -39465.757    2638.2126   -42103.969    131.32165    222.65802 
   30300    131.72929   -200.13054    140919.18   -39482.879     2644.565   -42127.444    131.52178    223.19415 
   30350     133.0596   -118.63729    140894.15   -39462.046     2671.272   -42133.318    131.54118    225.44815 
   30400    132.64614   -144.11692    140842.86   -39465.233    2662.9715   -42128.205    131.54012    224.74761 
   30450    134.92854   -4.3029889    140822.69   -39392.094    2708.7924   -42100.886    131.57886    228.61477 
   30500     132.5928   -344.23637    140867.18   -39367.414    2661.9006   -42029.314    131.88725    224.65723 
   30550    132.74115   -100.87791    140880.91   -39419.493    2664.8789   -42084.372    131.98684    224.90859 
   30600     133.3403   -140.25933    140925.84   -39455.689    2676.9074   -42132.596    132.02119    225.92376 
   30650     131.0262   -78.094829     140886.4   -39453.749    2630.4501   -42084.199    131.99139    222.00289 
   30700    129.89652   -156.77597    140923.77    -39536.32    2607.7709   -42144.091    132.16724    220.08883 
   30750    132.94897    -262.7482    140839.29   -39444.127    2669.0511   -42113.178    132.41735    225.26071 
   30800    133.21805   -208.21233    140835.42    -39415.75     2674.453   -42090.203    132.65964    225.71662 
   30850    134.71205   -116.23907    140881.93   -39409.324    2704.4462    -42113.77    133.07065    228.24796 
   30900     134.0385   -239.36089    140892.04   -39381.502    2690.9242   -42072.427    133.25702    227.10674 
   30950    135.12106   -250.84001    140801.67   -39364.115    2712.6574   -42076.772    133.18821    228.94097 
   31000    132.95291   -179.81672    140755.69   -39372.532    2669.1302   -42041.662     133.3289    225.26739 
   31050    135.66275    -343.4827    140676.59   -39352.057    2723.5322   -42075.589    133.46082    229.85877 
   31100    132.11604   -153.86866    140694.43   -39354.253    2652.3292   -42006.582    133.64084    223.84943 
   31150    134.15633    -281.6248    140646.58   -39366.445    2693.2897   -42059.735    134.04163    227.30639 
   31200    133.10132   -148.58226    140626.36   -39364.356    2672.1096   -42036.465    134.36706    225.51884 
   31250    133.54055   -229.20863    140661.83   -39388.603    2680.9274    -42069.53    134.68725    226.26304 
   31300    135.42429   -151.31792    140679.45   -39411.643     2718.745   -42130.388    134.70994    229.45474 
   31350    135.15897   -255.30672    140707.14   -39386.691    2713.4184   -42100.109    134.68456     229.0052 
   31400    132.46367   -41.776658    140716.17   -39387.055    2659.3084   -42046.364     134.7524    224.43845 
   31450    131.08092   -424.24729    140687.82   -39387.509    2631.5486   -42019.057    135.09573     222.0956 
   31500    133.80411   -251.53244    140685.01   -39417.885    2686.2186   -42104.103    135.68065     226.7096 
   31550    131.40865    -253.8815    140679.11   -39414.201     2638.128   -42052.329    136.12022    222.65089 
   31600       130.88    -227.1417    140658.16   -39355.685    2627.5149     -41983.2    136.65897    221.75517 
   31650    133.40256   -174.58653    140694.85   -39336.411    2678.1571   -42014.568    136.88254    226.02924 
   31700    136.22144    -95.14354    140726.21   -39364.059    2734.7483   -42098.807    136.87036    230.80538 
   31750    136.28691   -234.17175    140794.59   -39379.882    2736.0628   -42115.945    136.99778    230.91632 
   31800    135.68093   -360.29411     140784.4    -39396.95    2723.8973   -42120.847    137.41424    229.88958 
   31850    130.78338   -258.18449     140746.3   -39403.764    2625.5753   -42029.339     137.5734    221.59147 
   31900    133.64148   -24.862893    140724.35   -39319.621    2682.9537   -42002.575    137.79419    226.43406 
   31950    133.96536   -306.89165    140666.32   -39326.359    2689.4559   -42015.815    138.08432    226.98282 
   32000    134.71412   -222.73555    140640.27   -39299.197    2704.4878   -42003.684    137.88086    228.25148 
   32050    134.28973   -129.76216     140607.2   -39292.543    2695.9679   -41988.511    138.19765    227.53241 
   32100    135.46924   -169.20325    140592.78   -39289.549    2719.6473   -42009.197    138.49728    229.53089 
   32150    135.74324   -156.88715    140614.14   -39273.366    2725.1482   -41998.515    138.70966    229.99516 
   32200    131.38911   -183.16297     140655.5    -39344.83    2637.7356   -41982.566     139.1022    222.61777 
   32250    133.29902   -120.71473    140659.18   -39357.691    2676.0786    -42033.77    139.18649    225.85382 
   32300    132.75965   -238.11278    140617.12   -39363.292    2665.2502   -42028.543    139.17595    224.93993 
   32350    134.33412   -188.43273    140594.84   -39318.247    2696.8589   -42015.106    139.56529    227.60762 
   32400    134.09574   -253.22309    140503.52   -39340.353    2692.0733   -42032.426    139.70413    227.20373 
   32450    136.16122   -190.47459    140440.46   -39345.675    2733.5395   -42079.214    139.85343    230.70336 
   32500    132.36051   -86.157506    140509.94   -39315.073    2657.2373   -41972.311    139.90022    224.26366 
   32550    136.34102   -333.86824    140539.46   -39334.487     2737.149   -42071.636    139.83861    231.00799 
   32600    132.47293   -216.92163    140463.27   -39373.061    2659.4941   -42032.555    140.40722    224.45413 
   32650    135.33769    -187.7964    140431.32   -39382.275    2717.0064   -42099.282     140.6021    229.30801 
   32700    132.93837   -91.450485    140422.54   -39392.726    2668.8382   -42061.564    140.44626    225.24274 
   32750    133.96873   -363.25793    140344.49   -39440.305    2689.5235   -42129.829     140.5314    226.98853 
   32800    131.67218    38.082952     140300.2   -39385.826    2643.4186   -42029.245    140.85774     223.0974 
   32850    133.84186   -8.1098252    140371.79   -39300.563    2686.9765    -41987.54    141.06572    226.77357 
   32900    130.49745   -60.121469    140388.74   -39345.596     2619.835   -41965.431    141.26906    221.10701 
   32950    132.60812   -60.936527    140385.82   -39328.705    2662.2082   -41990.913    141.22168    224.68319 
   33000    134.19027   -105.18807    140430.59   -39329.529     2693.971     -42023.5    141.54687    227.36388 
   33050    132.11856   -402.22857       140438   -39355.699    2652.3798   -42008.079    141.88142     223.8537 
   33100     136.5154   -218.61348    140383.52   -39263.062    2740.6499   -42003.712    142.18742    231.30346 
   33150    136.07035   -183.01803    140366.83   -39257.296    2731.7151   -41989.011    142.31021    230.54939 
   33200    135.68266    107.34123     140367.7   -39263.419    2723.9318   -41987.351    142.47368     229.8925 
   33250    133.34721   -22.919031    140416.63   -39278.089     2677.046   -41955.136    142.77626    225.93546 
   33300    135.89261   -116.41941    140470.24   -39272.137    2728.1468   -42000.283    143.14814    230.24823 
   33350     135.0467   -108.82555    140513.82   -39295.777    2711.1646   -42006.942     143.3378    228.81498 
   33400    132.96504   -184.43183    140458.97   -39287.197    2669.3737   -41956.571    143.92798    225.28794 
   33450    129.53957   -253.31276    140414.69   -39308.962    2600.6047   -41909.566    144.29353    219.48402 
   33500    133.29025   -81.621667    140386.94   -39349.193    2675.9024   -42025.095    144.54121    225.83895 
   33550    131.38647   -91.911829    140380.38   -39355.479    2637.6827   -41993.162     144.9891    222.61331 
   33600    131.73638   -113.16809    140310.36   -39353.843    2644.7074    -41998.55    144.96028    223.20617 
   33650    132.85604    -171.6466    140261.31   -39350.271    2667.1854   -42017.457     145.0504    225.10326 
   33700    133.68618   -299.02007    140239.26   -39357.145    2683.8511   -42040.996    145.69057    226.50979 
   33750    131.94717   -213.75898    140196.61   -39339.647    2648.9391   -41988.586    146.00279    223.56331 
   33800    132.50194   -352.23651    140182.62   -39339.055    2660.0765   -41999.132    146.10552    224.50328 
   33850    132.66509   -185.77427    140242.68   -39350.646    2663.3519   -42013.998    146.35866    224.77972 
   33900    134.16468   -168.22527    140230.24   -39281.232    2693.4572    -41974.69    146.66617    227.32053 
   33950     133.0316   -22.977935    140281.89   -39266.087    2670.7098   -41936.796    146.87391     225.4007 
[...]
   92000    131.03673    -339.2756    140453.89   -39414.806    2630.6614   -42045.467    382.95083    222.02073 
   92050      133.598   -318.70544    140472.29   -39386.444    2682.0808   -42068.524    383.28583    226.36038 
   92100     131.5747   -254.66763    140518.52   -39392.617    2641.4614   -42034.078    383.31041    222.93222 
   92150    132.69697   -247.40799    140583.24   -39358.588    2663.9919    -42022.58    383.81925    224.83373 
   92200    135.13515   -267.10677    140601.28   -39336.322    2712.9402   -42049.263    384.06905    228.96484 
   92250    132.86324   -257.68556     140632.2   -39345.718      2667.33   -42013.048    384.21635    225.11545 
   92300    133.83648   -78.585791     140653.2   -39323.925    2686.8684   -42010.793    384.69076    226.76445 
   92350    132.75167   -254.99849    140695.93   -39355.314    2665.0901   -42020.405    385.24961    224.92641 
   92400    131.20397   -183.10305    140718.18   -39397.707    2634.0189   -42031.726    385.31987    222.30409 
   92450    134.04554   -363.99522    140693.85   -39394.505    2691.0654    -42085.57    385.31558    227.11866 
   92500    130.79769   -205.68038     140693.2   -39384.825    2625.8625   -42010.687    385.15167    221.61571 
   92550    131.32427   -232.29148    140670.25   -39422.673     2636.434   -42059.107    384.95002    222.50791 
   92600    131.10294    -127.5892    140698.66   -39470.303    2631.9906   -42102.294    385.43032     222.1329 
   92650    130.41844   -307.26794    140678.36   -39461.665    2618.2488   -42079.914    386.05662    220.97313 
   92700    132.14921   -292.25252    140615.49   -39417.006    2652.9953   -42070.001    386.45284    223.90565 
   92750    131.97401   -103.84216    140627.57   -39473.604     2649.478   -42123.082    386.86487     223.6088 
   92800    131.77626   -193.90887    140623.56   -39451.784     2645.508   -42097.293    387.39539    223.27374 
   92850    129.64667   -141.56808    140709.48   -39469.557     2602.755   -42072.312    387.93893     219.6655 
   92900    133.09473   -61.278369     140761.4   -39481.651    2671.9772   -42153.628    388.05496    225.50767 
   92950    130.29337   -368.95853    140792.89   -39462.364    2615.7378   -42078.102    388.78279    220.76121 
   93000    133.25783   -269.80666    140762.71   -39445.169    2675.2517   -42120.421    389.46054    225.78402 
   93050    131.94016   -375.94474    140749.71   -39462.027    2648.7985   -42110.825    389.83457    223.55145 
   93100      133.945   -98.132752    140778.08   -39432.217    2689.0472   -42121.264    390.03814    226.94833 
   93150     132.1266   -164.47737    140754.05   -39402.326    2652.5413   -42054.867    390.14131    223.86733 
   93200    131.34759    -229.5848    140707.22   -39410.571    2636.9022   -42047.473    390.36851    222.54743 
   93250    132.05881   -85.248742     140767.7   -39399.239    2651.1804   -42050.419    390.20887    223.75247 
   93300    132.00935   -144.53565    140816.85   -39386.316    2650.1874   -42036.503    390.41598    223.66867 
   93350    134.01861   -359.66263    140784.11   -39368.373    2690.5248   -42058.898    390.89368    227.07303 
   93400    133.64606   -95.694689    140765.55   -39361.448    2683.0456   -42044.494    391.17785    226.44181 
   93450    132.73037   -235.02156    140780.76   -39336.773    2664.6625   -42001.436    391.99202    224.89033 
   93500    130.16753   -309.19755    140772.54   -39342.121    2613.2116   -41955.332    392.08192    220.54801 
   93550    136.40175   -75.399166    140828.25   -39291.541    2738.3683   -42029.909    392.53425     231.1109 
   93600    135.10369   -137.34376    140887.12   -39277.981    2712.3086    -41990.29     392.6392    228.91153 
   93650    135.23909   -197.44712    140959.19   -39281.127    2715.0269   -41996.154    393.03883    229.14095 
   93700    133.05676   -298.59017    140999.17   -39283.199     2671.215   -41954.414    393.08186    225.44334 
   93750    132.06882   -155.26266    140977.07   -39301.712    2651.3814   -41953.093    393.42519    223.76944 
   93800    134.53529   -340.89151    141000.58   -39252.075    2700.8977   -41952.973    393.67078    227.94848 
   93850    136.31035   -210.42208    140954.67   -39236.156    2736.5333    -41972.69     393.7389    230.95603 
   93900    135.60112   -638.65029    140854.77   -39239.181     2722.295   -41961.476    393.56227    229.75436 
   93950    135.67491   -280.70362    140761.51     -39250.1    2723.7763   -41973.877    393.10694    229.87937 
   94000     135.2471   -153.66106    140705.08   -39282.507    2715.1878   -41997.695    393.25761    229.15452 
   94050     135.3663   -24.764177    140719.73   -39261.418    2717.5808   -41978.999     393.4858    229.35649 
   94100    135.67974   -260.67364    140727.99   -39291.123    2723.8734   -42014.997    393.96066    229.88756 
   94150    138.80403    -159.9808    140684.97   -39267.743    2786.5959   -42054.339    394.25849    235.18118 
   94200    134.72976     -119.539    140713.43   -39205.552    2704.8017   -41910.354    394.21404    228.27797 
   94250    136.11755   -138.05809    140780.76   -39190.403    2732.6626   -41923.066    394.47642    230.62935 
   94300    132.82001   -167.21349     140823.6   -39233.376    2666.4622   -41899.838     394.6104    225.04221 
   94350    130.66404   -183.94077    140885.74   -39242.261    2623.1793   -41865.441    394.44564    221.38926 
   94400    134.17413   -363.48351    140817.21   -39223.691    2693.6471   -41917.338    394.32954    227.33655 
   94450     134.5174   -162.42214    140806.95   -39227.739    2700.5384   -41928.277    393.90968    227.91815 
   94500    135.77305   -178.67831    140819.46   -39180.258    2725.7466   -41906.004    394.02238    230.04566 
   94550    133.90934   -340.04482    140863.22   -39237.484    2688.3313   -41925.816    394.21195    226.88791 
   94600    136.23841   -142.04954    140899.83   -39239.377    2735.0891   -41974.467     394.8439    230.83414 
   94650    134.88931   -256.25026    140869.76   -39276.522    2708.0047   -41984.527    394.92551     228.5483 
   94700    132.28079   -225.74323    140729.86   -39299.175    2655.6367   -41954.812     394.9335    224.12858 
   94750    134.40065   -122.49514    140703.81   -39289.771    2698.1946   -41987.966    395.28316    227.72034 
   94800    133.59282    -253.1631    140664.34   -39306.199    2681.9769   -41988.176    395.25156    226.35162 
   94850    133.53006   -332.08563    140614.36    -39269.91    2680.7169   -41950.627    395.43604    226.24528 
   94900    132.74685   -346.90886     140557.2   -39264.939    2664.9933   -41929.932    395.34344    224.91825 
   94950     132.9494   -248.18614    140593.06   -39313.686    2669.0596   -41982.746    395.97849    225.26143 
   95000    136.89699   -262.10726    140579.86   -39261.393    2748.3105   -42009.704    395.91788    231.94999 
   95050     133.8411   -254.10226    140689.38   -39303.863    2686.9613   -41990.824    396.19478    226.77229 
   95100    132.65693   -190.20012    140710.24    -39367.97    2663.1882   -42031.158    395.80908     224.7659 
   95150    133.69218   -245.72859    140638.14   -39345.649    2683.9715    -42029.62    395.90224    226.51995 
   95200     131.5494   -218.73618    140631.51    -39335.82    2640.9536   -41976.774    396.27457    222.88936 
   95250    134.13908   -320.99441       140666   -39335.885    2692.9434   -42028.828    396.57771    227.27716 
   95300    133.24745   -292.75898    140658.54   -39341.628    2675.0433   -42016.671    396.97463    225.76644 
   95350    133.24107   -150.86559    140682.75   -39331.027    2674.9151   -42005.942    397.00894    225.75562 
   95400     135.5028   -170.05713    140669.57   -39312.054     2720.321   -42032.375    397.32571    229.58776 
   95450    131.73669   -210.36155    140662.92   -39358.224    2644.7136   -42002.938    397.55276     223.2067 
   95500    135.77542   -144.07449    140674.55   -39338.632    2725.7941   -42064.426    397.64651    230.04967 
   95550    132.95198   -143.81124    140750.36   -39330.651    2669.1115   -41999.762    398.19296    225.26581 
   95600    130.47667   -303.66391     140723.1   -39401.948    2619.4177   -42021.366    398.53476    221.07179 
   95650    134.17149   -257.32772    140725.23   -39327.482    2693.5941   -42021.076     398.5765    227.33208 
   95700    133.19868   -284.79484    140660.96   -39337.911    2674.0641   -42011.975    398.53534    225.68379 
   95750    136.07938   -167.30221    140624.49   -39328.835    2731.8964   -42060.731    398.77499    230.56468 
   95800    133.47063   -151.94047    140659.12   -39333.985    2679.5239   -42013.508    399.34532    226.14458 
   95850    135.30246   -191.18819    140647.48   -39342.973    2716.2991   -42059.272    399.50166    229.24832 
   95900    133.37303   -279.60012    140642.53   -39354.713    2677.5644   -42032.277    399.47721    225.97921 
   95950    133.32994   -92.053373    140642.23   -39365.584    2676.6993   -42042.283    399.77156     225.9062 
   96000    132.99151    9.2557831    140681.44   -39339.587     2669.905   -42009.492    399.65036    225.33278 
   96050    131.56565    41.088116    140680.25   -39388.236    2641.2799   -42029.516    399.64043     222.9169 
   96100    132.51852   -273.82656    140699.66   -39409.342    2660.4094   -42069.751    399.92087    224.53138 
   96150    131.91533   -404.72373    140656.16   -39442.745       2648.3   -42091.045    400.24116    223.50937 
   96200    134.49095   -388.05965    140512.85   -39441.676    2700.0075   -42141.683    399.96331    227.87335 
   96250    134.07779   -44.862821    140575.41   -39444.878     2691.713   -42136.591    400.11171    227.17331 
   96300     132.8995   -203.45715    140631.74   -39454.811    2668.0578   -42122.869    400.16308    225.17688 
   96350     133.9243   -306.40062    140628.57   -39455.471    2688.6316   -42144.102    400.55019    226.91325 
   96400    135.43916   -167.72624    140716.39   -39423.877    2719.0434   -42142.921    400.72973    229.47993 
   96450    134.61911   -170.65227    140667.98   -39393.471    2702.5803   -42096.052     401.3463    228.09049 
   96500    133.06402   -126.34461    140693.92   -39411.423    2671.3607   -42082.784    401.23626    225.45564 
   96550    134.43031   -85.896841    140762.24   -39450.034    2698.7901   -42148.824    401.40166     227.7706 
   96600    132.28443    10.237237    140905.22   -39498.112      2655.71   -42153.822    401.92752    224.13476 
   96650    131.89463   -137.40194    140932.32   -39481.724    2647.8843   -42129.608    402.44298    223.47429 
   96700    134.70727    -131.2273    140917.78   -39477.502    2704.3503   -42181.852    402.85469    228.23987 
   96750    133.18577   -218.52755    140939.37   -39510.347    2673.8049   -42184.152    402.86459    225.66192 
   96800    131.55782   -199.75133     140961.4   -39552.905    2641.1226   -42194.027    402.85633    222.90362 
   96850    132.76747   -226.94319    140977.99   -39562.554    2665.4073   -42227.961    403.31252    224.95319 
   96900    133.28856   -172.76858    141041.33   -39577.736    2675.8686   -42253.604    403.60533    225.83609 
   96950    130.10449   -277.17053    141054.83   -39561.988    2611.9459   -42173.934    404.32819    220.44119 
   97000    135.58716   -420.02319    140992.29    -39485.03    2722.0148   -42207.044    404.25218     229.7307 
   97050    130.69698   -255.96538    140952.56   -39500.786    2623.8407   -42124.627    404.51452    221.44508 
   97100    131.17493   -113.91401    140984.21   -39527.701    2633.4359   -42161.137    405.14085    222.25489 
   97150    132.35673   -318.07399    140936.25   -39501.177    2657.1613   -42158.339    404.96358    224.25725 
   97200    133.90143   -144.61783    140952.69   -39509.418    2688.1725   -42197.591    405.47984     226.8745 
   97250    134.20738    -18.82105    141043.19   -39507.816    2694.3146   -42202.131    405.40056    227.39288 
   97300    133.11644   -152.27665    140972.04   -39459.371     2672.413   -42131.784    405.21193    225.54445 
   97350    133.87127   -113.57185    140920.67   -39418.203    2687.5669    -42105.77    405.77057     226.8234 
   97400    130.80067   -215.17398    140934.79   -39398.442    2625.9222   -42024.364    406.14587    221.62075 
   97450     134.3356   -238.54268    140857.54   -39337.825    2696.8886   -42034.714    406.25935    227.61012 
   97500     134.1687   -73.781947    140888.75   -39395.552     2693.538    -42089.09     406.9589    227.32734 
   97550    131.91868   -219.13217    140968.35   -39398.631    2648.3672   -42046.998    407.27182    223.51504 
   97600    130.31541   -341.07047    140985.51   -39369.162    2616.1804   -41985.342    407.21969    220.79857 
   97650    133.29888   -382.65976    140951.49    -39364.77    2676.0757   -42040.846    407.09369    225.85357 
   97700    133.48554   -168.88039    140920.69   -39386.754    2679.8232   -42066.578    407.56959    226.16985 
   97750    132.72408   -258.47539    140921.27   -39339.303    2664.5362   -42003.839    407.85622    224.87967 
   97800    135.79399   -130.93577     140895.5   -39274.317    2726.1669   -42000.483    407.90405    230.08113 
   97850    135.63208   -338.19382    140907.64    -39356.84    2722.9166   -42079.757    408.39429    229.80681 
   97900    133.63541   -334.40939    140856.35   -39369.504    2682.8319   -42052.336    408.75494    226.42377 
   97950    131.86925   -258.23798    140852.95     -39403.1    2647.3749   -42050.475    408.81809     223.4313 
   98000    134.00306   -373.37073    140793.05   -39388.317    2690.2127   -42078.529    408.63982    227.04669 
   98050    130.00994   -314.71448    140736.67   -39362.921    2610.0478   -41972.969     408.9653    220.28099 
   98100    135.03377   -163.87484    140714.42     -39353.8    2710.9049   -42064.704    409.62718    228.79306 
   98150    134.67593   -90.556273    140703.45   -39357.166    2703.7211   -42060.887    410.01366    228.18677 
   98200    133.97761   -289.48502    140664.19   -39386.283    2689.7018   -42075.985     410.1692    227.00357 
   98250     133.2342   -143.79231    140656.72    -39333.96    2674.7772   -42008.738    410.98732    225.74398 
   98300    135.67812   -132.28137    140723.48    -39315.31    2723.8408   -42039.151     411.5367    229.88482 
   98350    133.07381   -200.80159    140760.51   -39323.993    2671.5573    -41995.55    411.76234    225.47223 
   98400    135.40706   -306.13653    140810.24   -39320.027     2718.399   -42038.426    412.43912    229.42554 
   98450    135.50062   -255.48529    140811.59   -39291.857    2720.2772   -42012.134    412.74069    229.58406 
   98500    135.61042   -410.65021     140732.7   -39326.412    2722.4816   -42048.893    412.54163    229.77011 
   98550    135.30337   -182.57257    140794.43   -39309.051    2716.3174   -42025.369    412.32953    229.24986 
   98600    134.23061    -132.6611    140888.46   -39308.552    2694.7808   -42003.333    412.66974    227.43223 
   98650    133.91619   -300.18024    140980.19   -39294.892    2688.4687   -41983.361    413.55066    226.89951 
   98700    134.51154   -279.19559    141024.05   -39324.319    2700.4208    -42024.74    413.73637    227.90823 
   98750    131.44128   -261.90897    140938.07   -39400.638     2638.783   -42039.421    413.94949    222.70617 
   98800    131.98894   -297.02799    140956.37   -39359.978    2649.7777   -42009.756    413.82748    223.63409 
   98850    133.81046   -299.29063    141022.55   -39415.693    2686.3462   -42102.039      413.973    226.72037 
   98900    130.43176   -234.45353     141000.1   -39402.887    2618.5161   -42021.403    414.81704    220.99569 
   98950    131.42649   -324.03905    140900.62   -39365.707    2638.4861   -42004.193    414.61063    222.68111 
   99000    134.69582   -341.92124    140821.04   -39412.224    2704.1204   -42116.344    414.97867    228.22047 
   99050     134.8168   -48.239085    140867.59   -39299.599    2706.5491   -42006.148    415.48863    228.42544 
   99100    133.40152   -280.40976    140918.67   -39348.421    2678.1363   -42026.557    415.74487    226.02748 
   99150    133.01191    12.036306    140863.34   -39368.613    2670.3145   -42038.928    415.89469    225.36734 
   99200    131.88383   -368.15797    140898.45   -39408.852    2647.6675    -42056.52    416.22472    223.45599 
   99250    132.91673   -362.95907    140886.12   -39397.744    2668.4038   -42066.148    416.29709    225.20608 
   99300    133.51425    -207.4137    140839.63   -39399.381    2680.3995   -42079.781     416.5568    226.21849 
   99350    132.67654   -293.44225    140821.63    -39395.31    2663.5819   -42058.892    416.29231    224.79912 
   99400    131.89605   -311.12061    140767.12    -39414.91    2647.9128   -42062.823    416.72471     223.4767 
   99450    131.96509   -297.94977    140749.01    -39379.23    2649.2989   -42028.529    416.53787    223.59368 
   99500    132.39984   -127.41816    140771.81   -39337.549    2658.0267   -41995.576    417.38716    224.33029 
   99550    131.80387   -141.15952    140753.83   -39314.921    2646.0623   -41960.983    417.62596    223.32052 
   99600    132.24641   -374.35913    140711.36   -39339.123    2654.9466   -41994.069    417.98158    224.07033 
   99650    134.90863   -262.72766    140646.88   -39353.475    2708.3928   -42061.867    418.00347    228.58104 
   99700    132.04572   -125.93053    140684.81   -39329.718    2650.9177   -41980.636    418.01663     223.7303 
   99750    135.02223   -157.20714    140714.33    -39277.46    2710.6733   -41988.133    418.20802    228.77351 
   99800    135.20886   -164.18892    140706.74   -39272.327    2714.4201   -41986.747    418.49375    229.08973 
   99850    134.43057   -246.08824    140678.98   -39312.775    2698.7953   -42011.571    418.95655    227.77104 
   99900    135.85886   -236.02644    140644.67     -39311.3    2727.4693   -42038.769    419.33381    230.19105 
   99950    134.31508   -187.83396    140618.18   -39339.414    2696.4767   -42035.891    419.70327    227.57536 
  100000    129.18069   -197.83097    140565.09   -39397.756       2593.4   -41991.156    419.95009    218.87596 
Loop time of 303.127 on 40 procs for 100000 steps with 6736 atoms

Performance: 142.515 ns/day, 0.168 hours/ns, 329.895 timesteps/s
99.6% CPU use with 40 MPI tasks x no OpenMP threads

MPI task timing breakdown:
Section |  min time  |  avg time  |  max time  |%varavg| %total
---------------------------------------------------------------
Pair    | 56.101     | 146.57     | 243.24     | 604.1 | 48.35
Neigh   | 1.9681     | 4.1089     | 11.26      | 164.1 |  1.36
Comm    | 35.166     | 112.87     | 164.37     | 419.5 | 37.23
Output  | 0.1728     | 0.17708    | 0.19197    |   0.7 |  0.06
Modify  | 7.5987     | 38.075     | 79.66      | 526.5 | 12.56
Other   |            | 1.335      |            |       |  0.44

Nlocal:    168.4 ave 382 max 110 min
Histogram: 32 0 0 0 0 0 0 0 3 5
Nghost:    1282.95 ave 1661 max 870 min
Histogram: 16 0 0 0 0 0 0 3 13 8
Neighs:    0 ave 0 max 0 min
Histogram: 40 0 0 0 0 0 0 0 0 0
FullNghs:  20286.7 ave 69752 max 7052 min
Histogram: 32 0 0 0 0 0 0 0 2 6

Total # of neighbors = 811466
Ave neighs/atom = 120.467
Neighbor list builds = 6142
Dangerous builds = 0

write_data		${DIR}/data.eq-${NAME}-${TEMP}
write_data		run_4/data.eq-${NAME}-${TEMP}
write_data		run_4/data.eq-het_freeze_4-${TEMP}
write_data		run_4/data.eq-het_freeze_4-225
undump          1

reset_timestep  0

unfix           2
unfix           3
unfix           4


################################################
#######         Run Simulation         #########
################################################

log				${DIR}/log.run_${NAME}
log				run_4/log.run_${NAME}
log				run_4/log.run_het_freeze_4
