LAMMPS data file via write_data, version 16 Mar 2018, timestep = 8000000

4545 atoms
2 atom types

0.0000000000000000e+00 4.9219999999999999e+01 xlo xhi
0.0000000000000000e+00 4.9019635930410494e+01 ylo yhi
6.3532011078676476e-01 3.3000019675735388e+01 zlo zhi

Masses

1 18.015
2 12.01

Atoms # atomic

91 2 0.0000000000000000e+00 2.8417180249513345e+00 2.2489681819794374e+00 0 0 0
93 2 0.0000000000000000e+00 0.0000000000000000e+00 2.2489681819794374e+00 0 0 0
95 2 1.2305000000000001e+00 7.1042950623783474e-01 2.2489681819794374e+00 0 0 0
102 2 1.2305000000000001e+00 2.1312885187134998e+00 2.2489681819794374e+00 0 0 0
104 2 2.4610000000000003e+00 2.8417180249513345e+00 2.2489681819794374e+00 0 0 0
106 2 2.4610000000000003e+00 0.0000000000000000e+00 2.2489681819794374e+00 0 0 0
108 2 3.6915000000000004e+00 7.1042950623783474e-01 2.2489681819794374e+00 0 0 0
123 2 3.6914999999999996e+00 2.1312885187134998e+00 2.2489681819794374e+00 0 0 0
125 2 4.9220000000000006e+00 2.8417180249513332e+00 2.2489681819794374e+00 0 0 0
127 2 4.9220000000000006e+00 0.0000000000000000e+00 2.2489681819794374e+00 0 0 0
129 2 6.1524999999999999e+00 7.1042950623783407e-01 2.2489681819794374e+00 0 0 0
152 2 6.1524999999999999e+00 2.1312885187134989e+00 2.2489681819794374e+00 0 0 0
154 2 7.3829999999999991e+00 2.8417180249513345e+00 2.2489681819794374e+00 0 0 0
156 2 7.3829999999999991e+00 0.0000000000000000e+00 2.2489681819794374e+00 0 0 0
158 2 8.6134999999999984e+00 7.1042950623783407e-01 2.2489681819794374e+00 0 0 0
189 2 8.6134999999999984e+00 2.1312885187135002e+00 2.2489681819794374e+00 0 0 0
191 2 9.8440000000000012e+00 2.8417180249513332e+00 2.2489681819794374e+00 0 0 0
193 2 9.8440000000000012e+00 0.0000000000000000e+00 2.2489681819794374e+00 0 0 0
195 2 1.1074500000000002e+01 7.1042950623783330e-01 2.2489681819794374e+00 0 0 0
234 2 1.1074500000000002e+01 2.1312885187135002e+00 2.2489681819794374e+00 0 0 0
98 2 0.0000000000000000e+00 4.2625770374269996e+00 2.2489681819794374e+00 0 0 0
100 2 1.2305000000000001e+00 4.9730065436648339e+00 2.2489681819794374e+00 0 0 0
115 2 1.2305000000000001e+00 6.3938655561404980e+00 2.2489681819794374e+00 0 0 0
119 2 2.4610000000000003e+00 4.2625770374269996e+00 2.2489681819794374e+00 0 0 0
121 2 3.6914999999999996e+00 4.9730065436648339e+00 2.2489681819794374e+00 0 0 0
144 2 3.6914999999999996e+00 6.3938655561404980e+00 2.2489681819794374e+00 0 0 0
96 2 0.0000000000000000e+00 7.1042950623783341e+00 2.2489681819794374e+00 0 0 0
117 2 2.4610000000000003e+00 7.1042950623783341e+00 2.2489681819794374e+00 0 0 0
148 2 4.9220000000000006e+00 4.2625770374269978e+00 2.2489681819794374e+00 0 0 0
150 2 6.1524999999999999e+00 4.9730065436648339e+00 2.2489681819794374e+00 0 0 0
181 2 6.1524999999999999e+00 6.3938655561404980e+00 2.2489681819794374e+00 0 0 0
185 2 7.3829999999999991e+00 4.2625770374269996e+00 2.2489681819794374e+00 0 0 0
146 2 4.9220000000000006e+00 7.1042950623783341e+00 2.2489681819794374e+00 0 0 0
183 2 7.3830000000000009e+00 7.1042950623783341e+00 2.2489681819794374e+00 0 0 0
187 2 8.6135000000000002e+00 4.9730065436648339e+00 2.2489681819794374e+00 0 0 0
226 2 8.6135000000000002e+00 6.3938655561404980e+00 2.2489681819794374e+00 0 0 0
230 2 9.8440000000000012e+00 4.2625770374270004e+00 2.2489681819794374e+00 0 0 0
232 2 1.1074500000000002e+01 4.9730065436648339e+00 2.2489681819794374e+00 0 0 0
273 2 1.1074500000000002e+01 6.3938655561404980e+00 2.2489681819794374e+00 0 0 0
228 2 9.8440000000000012e+00 7.1042950623783341e+00 2.2489681819794374e+00 0 0 0
111 2 0.0000000000000000e+00 8.5251540748539991e+00 2.2489681819794374e+00 0 0 0
113 2 1.2305000000000001e+00 9.2355835810918343e+00 2.2489681819794374e+00 0 0 0
140 2 2.4610000000000003e+00 8.5251540748539991e+00 2.2489681819794374e+00 0 0 0
142 2 3.6915000000000004e+00 9.2355835810918343e+00 2.2489681819794374e+00 0 0 0
109 2 0.0000000000000000e+00 1.1366872099805333e+01 2.2489681819794374e+00 0 0 0
136 2 1.2305000000000001e+00 1.0656442593567498e+01 2.2489681819794374e+00 0 0 0
138 2 2.4610000000000003e+00 1.1366872099805333e+01 2.2489681819794374e+00 0 0 0
173 2 3.6914999999999996e+00 1.0656442593567499e+01 2.2489681819794374e+00 0 0 0
177 2 4.9220000000000006e+00 8.5251540748539991e+00 2.2489681819794374e+00 0 0 0
179 2 6.1524999999999999e+00 9.2355835810918343e+00 2.2489681819794374e+00 0 0 0
222 2 7.3830000000000009e+00 8.5251540748539991e+00 2.2489681819794374e+00 0 0 0
175 2 4.9220000000000006e+00 1.1366872099805333e+01 2.2489681819794374e+00 0 0 0
218 2 6.1524999999999999e+00 1.0656442593567499e+01 2.2489681819794374e+00 0 0 0
220 2 7.3829999999999991e+00 1.1366872099805333e+01 2.2489681819794374e+00 0 0 0
224 2 8.6134999999999984e+00 9.2355835810918343e+00 2.2489681819794374e+00 0 0 0
269 2 9.8440000000000012e+00 8.5251540748539956e+00 2.2489681819794374e+00 0 0 0
271 2 1.1074500000000002e+01 9.2355835810918343e+00 2.2489681819794374e+00 0 0 0
265 2 8.6134999999999984e+00 1.0656442593567498e+01 2.2489681819794374e+00 0 0 0
267 2 9.8440000000000012e+00 1.1366872099805333e+01 2.2489681819794374e+00 0 0 0
312 2 1.1074500000000002e+01 1.0656442593567498e+01 2.2489681819794374e+00 0 0 0
314 2 1.2304999999999998e+01 1.1366872099805333e+01 2.2489681819794374e+00 0 0 0
92 2 0.0000000000000000e+00 1.4208590124756650e+00 5.4762643243671851e+00 0 0 0
94 2 0.0000000000000000e+00 0.0000000000000000e+00 5.4762643243671851e+00 0 0 0
103 2 1.2305000000000001e+00 2.1312885187134998e+00 5.4762643243671851e+00 0 0 0
105 2 2.4610000000000003e+00 1.4208590124756650e+00 5.4762643243671851e+00 0 0 0
107 2 2.4610000000000003e+00 0.0000000000000000e+00 5.4762643243671851e+00 0 0 0
124 2 3.6914999999999996e+00 2.1312885187134998e+00 5.4762643243671851e+00 0 0 0
420 2 0.0000000000000000e+00 2.8417180249513345e+00 8.7035604667460564e+00 0 0 0
421 2 0.0000000000000000e+00 0.0000000000000000e+00 8.7035604667460564e+00 0 0 0
422 2 1.2305000000000001e+00 7.1042950623783474e-01 8.7035604667460564e+00 0 0 0
426 2 1.2305000000000001e+00 2.1312885187134998e+00 8.7035604667460564e+00 0 0 0
427 2 2.4610000000000003e+00 2.8417180249513345e+00 8.7035604667460564e+00 0 0 0
428 2 2.4610000000000003e+00 0.0000000000000000e+00 8.7035604667460564e+00 0 0 0
429 2 3.6915000000000004e+00 7.1042950623783474e-01 8.7035604667460564e+00 0 0 0
437 2 3.6914999999999996e+00 2.1312885187134998e+00 8.7035604667460564e+00 0 0 0
101 2 1.2305000000000001e+00 3.5521475311891644e+00 5.4762643243671851e+00 0 0 0
122 2 3.6914999999999996e+00 3.5521475311891644e+00 5.4762643243671851e+00 0 0 0
126 2 4.9220000000000006e+00 1.4208590124756650e+00 5.4762643243671851e+00 0 0 0
128 2 4.9220000000000006e+00 0.0000000000000000e+00 5.4762643243671851e+00 0 0 0
153 2 6.1524999999999999e+00 2.1312885187134989e+00 5.4762643243671851e+00 0 0 0
155 2 7.3829999999999991e+00 1.4208590124756659e+00 5.4762643243671851e+00 0 0 0
157 2 7.3829999999999991e+00 0.0000000000000000e+00 5.4762643243671851e+00 0 0 0
438 2 4.9220000000000006e+00 2.8417180249513332e+00 8.7035604667460564e+00 0 0 0
439 2 4.9220000000000006e+00 0.0000000000000000e+00 8.7035604667460564e+00 0 0 0
440 2 6.1524999999999999e+00 7.1042950623783407e-01 8.7035604667460564e+00 0 0 0
452 2 6.1524999999999999e+00 2.1312885187134989e+00 8.7035604667460564e+00 0 0 0
453 2 7.3829999999999991e+00 2.8417180249513345e+00 8.7035604667460564e+00 0 0 0
454 2 7.3829999999999991e+00 0.0000000000000000e+00 8.7035604667460564e+00 0 0 0
151 2 6.1524999999999999e+00 3.5521475311891644e+00 5.4762643243671851e+00 0 0 0
190 2 8.6134999999999984e+00 2.1312885187135002e+00 5.4762643243671851e+00 0 0 0
192 2 9.8440000000000012e+00 1.4208590124756659e+00 5.4762643243671851e+00 0 0 0
194 2 9.8440000000000012e+00 0.0000000000000000e+00 5.4762643243671851e+00 0 0 0
235 2 1.1074500000000002e+01 2.1312885187135002e+00 5.4762643243671851e+00 0 0 0
455 2 8.6134999999999984e+00 7.1042950623783407e-01 8.7035604667460564e+00 0 0 0
471 2 8.6134999999999984e+00 2.1312885187135002e+00 8.7035604667460564e+00 0 0 0
472 2 9.8440000000000012e+00 2.8417180249513332e+00 8.7035604667460564e+00 0 0 0
473 2 9.8440000000000012e+00 0.0000000000000000e+00 8.7035604667460564e+00 0 0 0
474 2 1.1074500000000002e+01 7.1042950623783330e-01 8.7035604667460564e+00 0 0 0
494 2 1.1074500000000002e+01 2.1312885187135002e+00 8.7035604667460564e+00 0 0 0
188 2 8.6134999999999984e+00 3.5521475311891657e+00 5.4762643243671851e+00 0 0 0
233 2 1.1074500000000002e+01 3.5521475311891644e+00 5.4762643243671851e+00 0 0 0
97 2 0.0000000000000000e+00 5.6834360499026637e+00 5.4762643243671851e+00 0 0 0
99 2 0.0000000000000000e+00 4.2625770374269996e+00 5.4762643243671851e+00 0 0 0
116 2 1.2305000000000001e+00 6.3938655561404980e+00 5.4762643243671851e+00 0 0 0
118 2 2.4610000000000003e+00 5.6834360499026637e+00 5.4762643243671851e+00 0 0 0
120 2 2.4610000000000003e+00 4.2625770374269996e+00 5.4762643243671851e+00 0 0 0
145 2 3.6914999999999996e+00 6.3938655561404980e+00 5.4762643243671851e+00 0 0 0
424 2 0.0000000000000000e+00 4.2625770374269996e+00 8.7035604667460564e+00 0 0 0
425 2 1.2305000000000001e+00 4.9730065436648339e+00 8.7035604667460564e+00 0 0 0
433 2 1.2305000000000001e+00 6.3938655561404980e+00 8.7035604667460564e+00 0 0 0
435 2 2.4610000000000003e+00 4.2625770374269996e+00 8.7035604667460564e+00 0 0 0
436 2 3.6914999999999996e+00 4.9730065436648339e+00 8.7035604667460564e+00 0 0 0
448 2 3.6914999999999996e+00 6.3938655561404980e+00 8.7035604667460564e+00 0 0 0
114 2 1.2305000000000001e+00 7.8147245686161639e+00 5.4762643243671851e+00 0 0 0
143 2 3.6914999999999996e+00 7.8147245686161639e+00 5.4762643243671851e+00 0 0 0
423 2 0.0000000000000000e+00 7.1042950623783341e+00 8.7035604667460564e+00 0 0 0
434 2 2.4610000000000003e+00 7.1042950623783341e+00 8.7035604667460564e+00 0 0 0
147 2 4.9220000000000006e+00 5.6834360499026637e+00 5.4762643243671851e+00 0 0 0
149 2 4.9220000000000006e+00 4.2625770374269978e+00 5.4762643243671851e+00 0 0 0
182 2 6.1524999999999999e+00 6.3938655561404980e+00 5.4762643243671851e+00 0 0 0
184 2 7.3829999999999991e+00 5.6834360499026637e+00 5.4762643243671851e+00 0 0 0
186 2 7.3829999999999991e+00 4.2625770374269996e+00 5.4762643243671851e+00 0 0 0
450 2 4.9220000000000006e+00 4.2625770374269978e+00 8.7035604667460564e+00 0 0 0
451 2 6.1524999999999999e+00 4.9730065436648339e+00 8.7035604667460564e+00 0 0 0
467 2 6.1524999999999999e+00 6.3938655561404980e+00 8.7035604667460564e+00 0 0 0
469 2 7.3829999999999991e+00 4.2625770374269996e+00 8.7035604667460564e+00 0 0 0
180 2 6.1524999999999999e+00 7.8147245686161639e+00 5.4762643243671851e+00 0 0 0
449 2 4.9220000000000006e+00 7.1042950623783341e+00 8.7035604667460564e+00 0 0 0
468 2 7.3830000000000009e+00 7.1042950623783341e+00 8.7035604667460564e+00 0 0 0
227 2 8.6135000000000002e+00 6.3938655561404980e+00 5.4762643243671851e+00 0 0 0
229 2 9.8440000000000012e+00 5.6834360499026637e+00 5.4762643243671851e+00 0 0 0
231 2 9.8440000000000012e+00 4.2625770374270004e+00 5.4762643243671851e+00 0 0 0
274 2 1.1074500000000002e+01 6.3938655561404980e+00 5.4762643243671851e+00 0 0 0
470 2 8.6135000000000002e+00 4.9730065436648339e+00 8.7035604667460564e+00 0 0 0
490 2 8.6135000000000002e+00 6.3938655561404980e+00 8.7035604667460564e+00 0 0 0
492 2 9.8440000000000012e+00 4.2625770374270004e+00 8.7035604667460564e+00 0 0 0
493 2 1.1074500000000002e+01 4.9730065436648339e+00 8.7035604667460564e+00 0 0 0
514 2 1.1074500000000002e+01 6.3938655561404980e+00 8.7035604667460564e+00 0 0 0
225 2 8.6135000000000002e+00 7.8147245686161639e+00 5.4762643243671851e+00 0 0 0
272 2 1.1074500000000002e+01 7.8147245686161639e+00 5.4762643243671851e+00 0 0 0
491 2 9.8440000000000012e+00 7.1042950623783341e+00 8.7035604667460564e+00 0 0 0
110 2 0.0000000000000000e+00 9.9460130873296642e+00 5.4762643243671851e+00 0 0 0
112 2 0.0000000000000000e+00 8.5251540748539991e+00 5.4762643243671851e+00 0 0 0
139 2 2.4610000000000003e+00 9.9460130873296642e+00 5.4762643243671851e+00 0 0 0
141 2 2.4610000000000003e+00 8.5251540748539991e+00 5.4762643243671851e+00 0 0 0
431 2 0.0000000000000000e+00 8.5251540748539991e+00 8.7035604667460564e+00 0 0 0
432 2 1.2305000000000001e+00 9.2355835810918343e+00 8.7035604667460564e+00 0 0 0
446 2 2.4610000000000003e+00 8.5251540748539991e+00 8.7035604667460564e+00 0 0 0
447 2 3.6915000000000004e+00 9.2355835810918343e+00 8.7035604667460564e+00 0 0 0
135 2 1.2305000000000001e+00 1.2077301606043163e+01 5.4762643243671851e+00 0 0 0
137 2 1.2305000000000001e+00 1.0656442593567498e+01 5.4762643243671851e+00 0 0 0
172 2 3.6914999999999996e+00 1.2077301606043163e+01 5.4762643243671851e+00 0 0 0
174 2 3.6914999999999996e+00 1.0656442593567499e+01 5.4762643243671851e+00 0 0 0
430 2 0.0000000000000000e+00 1.1366872099805333e+01 8.7035604667460564e+00 0 0 0
444 2 1.2305000000000001e+00 1.0656442593567498e+01 8.7035604667460564e+00 0 0 0
445 2 2.4610000000000003e+00 1.1366872099805333e+01 8.7035604667460564e+00 0 0 0
463 2 3.6914999999999996e+00 1.0656442593567499e+01 8.7035604667460564e+00 0 0 0
176 2 4.9220000000000006e+00 9.9460130873296642e+00 5.4762643243671851e+00 0 0 0
178 2 4.9220000000000006e+00 8.5251540748539991e+00 5.4762643243671851e+00 0 0 0
221 2 7.3830000000000009e+00 9.9460130873296642e+00 5.4762643243671851e+00 0 0 0
223 2 7.3830000000000009e+00 8.5251540748539991e+00 5.4762643243671851e+00 0 0 0
465 2 4.9220000000000006e+00 8.5251540748539991e+00 8.7035604667460564e+00 0 0 0
466 2 6.1524999999999999e+00 9.2355835810918343e+00 8.7035604667460564e+00 0 0 0
488 2 7.3830000000000009e+00 8.5251540748539991e+00 8.7035604667460564e+00 0 0 0
217 2 6.1524999999999999e+00 1.2077301606043163e+01 5.4762643243671851e+00 0 0 0
219 2 6.1524999999999999e+00 1.0656442593567499e+01 5.4762643243671851e+00 0 0 0
464 2 4.9220000000000006e+00 1.1366872099805333e+01 8.7035604667460564e+00 0 0 0
486 2 6.1524999999999999e+00 1.0656442593567499e+01 8.7035604667460564e+00 0 0 0
487 2 7.3829999999999991e+00 1.1366872099805333e+01 8.7035604667460564e+00 0 0 0
268 2 9.8440000000000012e+00 9.9460130873296642e+00 5.4762643243671851e+00 0 0 0
270 2 9.8440000000000012e+00 8.5251540748539956e+00 5.4762643243671851e+00 0 0 0
489 2 8.6134999999999984e+00 9.2355835810918343e+00 8.7035604667460564e+00 0 0 0
512 2 9.8440000000000012e+00 8.5251540748539956e+00 8.7035604667460564e+00 0 0 0
513 2 1.1074500000000002e+01 9.2355835810918343e+00 8.7035604667460564e+00 0 0 0
264 2 8.6135000000000002e+00 1.2077301606043163e+01 5.4762643243671851e+00 0 0 0
266 2 8.6134999999999984e+00 1.0656442593567498e+01 5.4762643243671851e+00 0 0 0
311 2 1.1074500000000002e+01 1.2077301606043163e+01 5.4762643243671851e+00 0 0 0
313 2 1.1074500000000002e+01 1.0656442593567498e+01 5.4762643243671851e+00 0 0 0
510 2 8.6134999999999984e+00 1.0656442593567498e+01 8.7035604667460564e+00 0 0 0
511 2 9.8440000000000012e+00 1.1366872099805333e+01 8.7035604667460564e+00 0 0 0
534 2 1.1074500000000002e+01 1.0656442593567498e+01 8.7035604667460564e+00 0 0 0
535 2 1.2304999999999998e+01 1.1366872099805333e+01 8.7035604667460564e+00 0 0 0
4523 1 1.7740524581204720e+00 2.7515050905731653e+00 1.0782573755505311e+01 -4 -2 0
1574 1 3.6535599852455634e+00 8.6903406667323979e-01 1.1757342888087278e+01 -3 1 0
792 1 6.4035167502019279e+00 1.6084824027674047e+00 1.1235254454812454e+01 0 0 0
2849 1 1.0790361320964555e+01 1.6846448115591275e+00 1.0972291869242959e+01 4 -1 0
3137 1 8.1429398223703053e+00 9.3913639105264917e+00 1.5302923815334202e+01 7 -2 -1
1552 1 2.6958184018372600e+00 5.2077042647352316e+00 1.1705565022813847e+01 1 3 -1
2932 1 6.4069791548930943e-01 6.9577469398861824e+00 1.1410915083465127e+01 -1 1 0
4544 1 7.5785699345932622e+00 4.1088671578425187e+00 1.1555483065083250e+01 2 5 -1
1355 1 5.3482029489113145e+00 6.0934522144593402e+00 1.1470431372934559e+01 -4 -4 0
1469 1 1.0614465417207160e+01 4.8525036574741529e+00 1.1368399800111286e+01 4 -5 0
2290 1 1.0792435322535752e+01 7.3515606452188011e+00 1.1470694332842449e+01 4 1 -1
3125 1 1.1969558129349791e+00 9.5990001071142093e+00 1.1374253403837466e+01 3 -3 0
3776 1 3.9917735088703692e+00 1.0481757091643372e+01 1.1459007055084177e+01 2 2 0
2380 1 6.2197895077330019e+00 8.7162194642248672e+00 1.1643585966479431e+01 -1 3 0
2367 1 8.8073191982390160e+00 9.1354074356815858e+00 1.1257534429744586e+01 4 1 0
2257 1 2.1227839402917099e+00 2.7853746363280747e+00 1.5479293473118659e+01 2 0 0
3828 1 4.0338541529997585e+00 9.5404466078526806e-01 1.4628775216054434e+01 1 2 0
614 1 6.7038885869301410e+00 1.7507250981189861e+00 1.5189636101641010e+01 3 0 1
1644 1 1.1052911337389052e+01 3.5044940063018197e+00 1.3798331686972835e+01 3 1 0
2389 1 1.1149286496580824e+01 8.9530418465356343e-01 1.5014178655099697e+01 -1 4 -1
3663 1 2.7834305315268852e+00 5.4440210167477847e+00 1.4461329961546149e+01 1 0 0
3775 1 8.9737689952967892e-01 7.3235268494761243e+00 1.5173349821173264e+01 0 1 -1
777 1 7.1586498196977084e+00 4.2937781767075940e+00 1.4330817281307592e+01 1 5 0
3639 1 5.3870815468855495e+00 5.9522186478939929e+00 1.5438445092924390e+01 1 -5 0
58 1 1.0044801932756375e+01 7.6671005419911582e+00 1.4454030895304669e+01 -2 5 1
4542 1 9.6110699180395187e+00 5.0466086865088924e+00 1.5400479890766372e+01 2 -1 -1
3648 1 3.8082483691901468e+00 1.0777203671589126e+01 1.4923604192927073e+01 -2 -6 0
3662 1 1.3137589183315173e+00 9.9285456417232130e+00 1.4276263164579911e+01 1 -1 0
3000 1 5.5546492484787047e+00 8.6403635812053174e+00 1.4397447242454527e+01 2 2 -1
818 1 8.5418318628419687e+00 1.1974558094518114e+01 1.4549572831346930e+01 0 -4 -1
3716 1 8.5046459778518777e+00 4.2925474136149097e-02 1.1638782202820829e+01 -3 2 -1
1431 1 2.0992881741487834e+00 3.3869488293224506e+00 1.8150084892408298e+01 -1 -2 0
3 1 2.5314530241867450e-01 4.9769275747827200e+00 2.1587992691332449e+01 -1 -6 0
1376 1 6.7073426780017726e+00 1.9590179459551484e+00 1.7824102345849948e+01 -5 4 0
709 1 4.6800433416727474e+00 3.5818160190863226e+00 1.8939305804442309e+01 -4 1 0
3122 1 9.1562887051849557e+00 2.5948552088820085e+00 1.8675730266762596e+01 4 1 0
585 1 1.1223374695522939e+01 8.5541075321383098e-01 1.7825476525898615e+01 6 2 0
3860 1 8.2960914459679969e-01 7.2334547912451077e+00 1.7978737417465062e+01 0 1 0
778 1 3.2129057803114645e+00 7.9437469227054143e+00 1.8740849536888085e+01 -1 4 1
704 1 9.5081126386239525e+00 1.2122955539499667e+01 2.9225946804777237e+01 -1 2 -1
1536 1 5.5759889727022394e+00 6.1980667651711157e+00 1.8335827573718902e+01 4 -4 0
3020 1 8.2785328510041420e+00 6.7774426569436805e+00 1.9087866604527079e+01 -2 -1 -1
4418 1 1.0012590034157741e+01 5.0603338935297293e+00 1.7902735487211622e+01 -1 0 -1
2231 1 3.6148654762790979e+00 1.0216102661196548e+01 1.7697473509371090e+01 6 1 0
2900 1 6.2336504844270246e+00 1.1092661160957110e+01 1.8799276436364892e+01 2 0 -1
4422 1 8.3959106328842950e+00 9.4631819456620967e+00 1.8003269287879888e+01 -1 2 0
2910 1 1.0666675250746851e+01 1.0343667259968036e+01 1.8783593667582625e+01 -1 -1 -1
4372 1 4.7935359543348719e+00 1.0114492613654551e+01 3.2187588429316691e+01 1 -1 0
2146 1 4.4961696500585697e+00 1.1595076966206215e+00 2.2375965723175788e+01 3 4 0
4468 1 4.7113610608880609e+00 3.6763435485009208e+00 2.1729404701967727e+01 4 -2 0
822 1 1.1720357711899908e+01 3.1141243971724624e+00 2.2540100696516156e+01 4 1 1
4402 1 9.1356208183491994e+00 2.5598772188319594e+00 2.1486669899987501e+01 -1 0 0
578 1 2.7353799844552316e+00 5.6800050964185296e+00 2.2356662106041103e+01 -2 3 0
1480 1 3.3416924914253037e+00 8.1950929387150868e+00 2.1374064248129518e+01 0 3 -1
1456 1 6.7581748171057514e+00 8.8350485014553275e+00 2.9097826996961643e+01 4 0 0
3623 1 7.1861707892607631e+00 4.4996526554417517e+00 2.2522563152218016e+01 1 3 -1
667 1 7.9620741153340067e+00 6.9932201503536753e+00 2.1930292575045634e+01 -1 0 1
30 1 1.0406008217332914e+01 7.4607901159163612e+00 2.2881696787926664e+01 4 2 0
1550 1 1.2500419803463356e+00 9.6727462238652873e+00 2.2595922789223565e+01 -1 -1 0
2866 1 5.7881679369168024e+00 8.8100347226845130e+00 2.2253633008472921e+01 -2 1 0
721 1 6.3166764978912715e+00 1.1233871460615310e+01 2.1466624531645238e+01 2 -4 0
3818 1 1.0898871569998482e+01 9.9695300655199564e+00 2.1452830464360733e+01 0 2 0
849 1 9.4277322525492160e+00 9.4433035445168052e+00 3.1690642414409069e+01 0 0 0
2255 1 2.4200672857310312e+00 2.8070123462301662e+00 2.5978844087323314e+01 1 2 0
3126 1 2.1112786055904875e+00 2.6730266161787593e+00 2.9019777869346761e+01 3 0 -1
3027 1 4.0408589353409381e+00 8.2104891883641185e-01 2.4996163473229750e+01 0 -1 -1
1545 1 6.5525035044342568e+00 1.7200074122511591e+00 2.6157148087926213e+01 -1 0 -1
857 1 7.4912905943621313e+00 1.4570745358135000e+00 2.9134500082642752e+01 0 -3 0
2341 1 1.1477697359185813e+01 3.0100820323322637e+00 2.5067833569005003e+01 -1 1 0
4348 1 1.1195503490888640e+01 5.2506951934791446e-01 2.5947000045765527e+01 3 -1 0
3145 1 3.0673396030566988e+00 5.5188534910979374e+00 2.5026497147764420e+01 0 -1 0
703 1 1.0904932108860921e+00 7.3040719602984030e+00 2.6094299329817822e+01 0 4 0
4389 1 3.3172970683040730e+00 5.0757165734573979e+00 2.9084226006348100e+01 0 -6 0
2125 1 7.2928788598727241e+00 4.1425588621426703e+00 2.5053323453709805e+01 3 -1 0
3750 1 5.5811711546574507e+00 6.1603244747288661e+00 2.6132119943121676e+01 -2 -6 -1
1609 1 6.0442557972667394e+00 6.0724706759671871e+00 2.8968295439877600e+01 0 1 0
681 1 1.0609647241987499e+01 7.1691647282001760e+00 2.5679772092761088e+01 1 -3 -1
3890 1 9.6417511252346948e+00 4.7179472312742936e+00 2.6162705262974058e+01 -6 1 0
2313 1 1.6793987849203067e+00 9.9515013645259884e+00 2.5358199609249596e+01 3 2 0
3852 1 4.5215750756464654e+00 1.0539763074658783e+01 2.8312682202444218e+01 -2 1 0
1575 1 4.4440661951523035e+00 1.0658888419696121e+01 2.5808717478295584e+01 4 1 1
1511 1 6.1985476138002351e+00 8.6469745197895467e+00 2.5011232708562559e+01 1 -2 -1
2937 1 8.7287121896158109e+00 9.3898775650282680e+00 2.5650593930271441e+01 0 -5 -1
1514 1 9.4918834881872218e+00 9.6347846450797370e+00 2.8545417298765088e+01 2 1 1
3117 1 9.4041123583981197e+00 1.2099985140625744e+01 2.5160714963145910e+01 -1 1 0
3608 1 2.0030265177763806e+00 2.5449204949370619e+00 3.1997000422349288e+01 5 1 -1
33 1 7.4825996887899695e+00 1.5762219988241633e+00 3.1838650074254438e+01 -2 4 -1
638 1 1.7904582959623505e+00 2.7980966617489506e-01 2.1877953210206154e+01 1 2 -1
2854 1 8.9199138236847944e+00 1.1824659046518823e+01 2.2411657322678757e+01 0 0 -1
1466 1 8.1940049438773848e+00 4.2355888790100407e+00 3.1940434753643093e+01 -2 -5 0
3149 1 1.2149213020817098e+00 6.9181965909293206e+00 2.8667073611499113e+01 1 1 -1
1523 1 1.2496672282604513e+00 6.8596626908736589e+00 3.1883510995334380e+01 2 0 0
52 1 3.1941271677117351e+00 5.1263865478522126e+00 3.1916537647321334e+01 4 -1 1
3783 1 6.9736808038768743e+00 8.4212819494209690e+00 3.1778763644712196e+01 -1 -3 0
684 1 5.8562590486579671e+00 5.9834057010263173e+00 3.1860506232497510e+01 -3 0 -1
718 1 1.1527702586127431e+01 7.8787109032270237e+00 2.9176506287034659e+01 4 2 -1
883 1 1.1598633342523227e+01 7.9061466972940604e+00 3.1884446464180979e+01 4 1 0
3008 1 1.0754030358779232e+01 5.2106904199250810e+00 2.9260321313207733e+01 0 -6 -1
2357 1 8.1802179058661011e+00 4.2395843284099470e+00 2.9017957214772558e+01 -4 2 1
3838 1 1.0842228266951444e+01 5.1268001976132922e+00 3.1933405992396867e+01 3 2 0
4516 1 1.8596891441916998e+00 9.6099492704175820e+00 2.9132510038732278e+01 0 1 -1
1629 1 1.9354812934615242e+00 9.3837631828973933e+00 3.1900646112792245e+01 3 -8 0
1446 1 1.0079441942158116e+01 4.7044641858523423e-01 3.1828841789794389e+01 0 5 0
4342 1 1.2213669441855526e+01 5.7641439562141823e+00 2.1780700596931535e+01 3 4 1
3058 1 1.6613055513669714e+00 1.1902067100080705e+01 1.8751565958369401e+01 4 -1 0
24 1 1.8632258670910657e+00 7.4756094286364816e-01 1.9001553669440387e+01 4 2 0
2867 1 9.7797918481161226e+00 1.2205752272697977e+01 3.2157576533367298e+01 -3 -1 0
3036 1 1.0221871429306864e+01 2.3809135051338007e-01 2.8851677393381898e+01 -1 -1 0
3131 1 8.4839492948997979e+00 2.4713333600011822e-02 2.5202546723893462e+01 1 3 0
2193 1 8.8645447419466059e+00 1.6234951834533717e-02 2.2411227113656075e+01 -1 1 1
132 2 0.0000000000000000e+00 1.2787731112280996e+01 2.2489681819794374e+00 0 0 0
134 2 1.2305000000000001e+00 1.3498160618518829e+01 2.2489681819794374e+00 0 0 0
169 2 2.4610000000000003e+00 1.2787731112280996e+01 2.2489681819794374e+00 0 0 0
171 2 3.6915000000000004e+00 1.3498160618518829e+01 2.2489681819794374e+00 0 0 0
130 2 0.0000000000000000e+00 1.5629449137232333e+01 2.2489681819794374e+00 0 0 0
165 2 1.2305000000000001e+00 1.4919019630994494e+01 2.2489681819794374e+00 0 0 0
167 2 2.4610000000000003e+00 1.5629449137232328e+01 2.2489681819794374e+00 0 0 0
210 2 3.6915000000000004e+00 1.4919019630994494e+01 2.2489681819794374e+00 0 0 0
214 2 4.9220000000000006e+00 1.2787731112280996e+01 2.2489681819794374e+00 0 0 0
216 2 6.1524999999999990e+00 1.3498160618518829e+01 2.2489681819794374e+00 0 0 0
261 2 7.3829999999999991e+00 1.2787731112280996e+01 2.2489681819794374e+00 0 0 0
212 2 4.9220000000000006e+00 1.5629449137232333e+01 2.2489681819794374e+00 0 0 0
257 2 6.1524999999999990e+00 1.4919019630994494e+01 2.2489681819794374e+00 0 0 0
259 2 7.3829999999999991e+00 1.5629449137232333e+01 2.2489681819794374e+00 0 0 0
263 2 8.6135000000000002e+00 1.3498160618518835e+01 2.2489681819794374e+00 0 0 0
308 2 9.8440000000000012e+00 1.2787731112280996e+01 2.2489681819794374e+00 0 0 0
310 2 1.1074500000000002e+01 1.3498160618518829e+01 2.2489681819794374e+00 0 0 0
304 2 8.6135000000000002e+00 1.4919019630994494e+01 2.2489681819794374e+00 0 0 0
306 2 9.8440000000000012e+00 1.5629449137232328e+01 2.2489681819794374e+00 0 0 0
346 2 1.1074500000000002e+01 1.4919019630994494e+01 2.2489681819794374e+00 0 0 0
161 2 0.0000000000000000e+00 1.7050308149707998e+01 2.2489681819794374e+00 0 0 0
206 2 2.4610000000000003e+00 1.7050308149707998e+01 2.2489681819794374e+00 0 0 0
159 2 0.0000000000000000e+00 1.9892026174659328e+01 2.2489681819794374e+00 0 0 0
163 2 1.2305000000000001e+00 1.7760737655945832e+01 2.2489681819794374e+00 0 0 0
202 2 1.2305000000000001e+00 1.9181596668421495e+01 2.2489681819794374e+00 0 0 0
204 2 2.4610000000000003e+00 1.9892026174659328e+01 2.2489681819794374e+00 0 0 0
208 2 3.6914999999999996e+00 1.7760737655945832e+01 2.2489681819794374e+00 0 0 0
249 2 3.6914999999999996e+00 1.9181596668421495e+01 2.2489681819794374e+00 0 0 0
253 2 4.9220000000000006e+00 1.7050308149707998e+01 2.2489681819794374e+00 0 0 0
300 2 7.3830000000000009e+00 1.7050308149707998e+01 2.2489681819794374e+00 0 0 0
251 2 4.9220000000000006e+00 1.9892026174659328e+01 2.2489681819794374e+00 0 0 0
255 2 6.1524999999999999e+00 1.7760737655945832e+01 2.2489681819794374e+00 0 0 0
296 2 6.1524999999999999e+00 1.9181596668421495e+01 2.2489681819794374e+00 0 0 0
298 2 7.3829999999999991e+00 1.9892026174659328e+01 2.2489681819794374e+00 0 0 0
342 2 9.8440000000000012e+00 1.7050308149707998e+01 2.2489681819794374e+00 0 0 0
376 2 1.2304999999999998e+01 1.7050308149707998e+01 2.2489681819794374e+00 0 0 0
302 2 8.6134999999999984e+00 1.7760737655945832e+01 2.2489681819794374e+00 0 0 0
338 2 8.6135000000000002e+00 1.9181596668421495e+01 2.2489681819794374e+00 0 0 0
340 2 9.8440000000000012e+00 1.9892026174659335e+01 2.2489681819794374e+00 0 0 0
344 2 1.1074500000000002e+01 1.7760737655945835e+01 2.2489681819794374e+00 0 0 0
372 2 1.1074500000000002e+01 1.9181596668421495e+01 2.2489681819794374e+00 0 0 0
196 2 0.0000000000000000e+00 2.4154603212086325e+01 2.2489681819794374e+00 0 0 0
198 2 0.0000000000000000e+00 2.1312885187134999e+01 2.2489681819794374e+00 0 0 0
200 2 1.2304999999999993e+00 2.2023314693372832e+01 2.2489681819794374e+00 0 0 0
241 2 1.2304999999999993e+00 2.3444173705848499e+01 2.2489681819794374e+00 0 0 0
243 2 2.4610000000000003e+00 2.4154603212086325e+01 2.2489681819794374e+00 0 0 0
245 2 2.4610000000000003e+00 2.1312885187134995e+01 2.2489681819794374e+00 0 0 0
247 2 3.6914999999999996e+00 2.2023314693372832e+01 2.2489681819794374e+00 0 0 0
288 2 3.6915000000000004e+00 2.3444173705848499e+01 2.2489681819794374e+00 0 0 0
290 2 4.9220000000000006e+00 2.4154603212086325e+01 2.2489681819794374e+00 0 0 0
292 2 4.9220000000000006e+00 2.1312885187134995e+01 2.2489681819794374e+00 0 0 0
294 2 6.1524999999999990e+00 2.2023314693372832e+01 2.2489681819794374e+00 0 0 0
330 2 6.1524999999999999e+00 2.3444173705848499e+01 2.2489681819794374e+00 0 0 0
332 2 7.3830000000000009e+00 2.4154603212086336e+01 2.2489681819794374e+00 0 0 0
334 2 7.3829999999999991e+00 2.1312885187134999e+01 2.2489681819794374e+00 0 0 0
336 2 8.6135000000000002e+00 2.2023314693372832e+01 2.2489681819794374e+00 0 0 0
364 2 8.6134999999999984e+00 2.3444173705848499e+01 2.2489681819794374e+00 0 0 0
366 2 9.8440000000000012e+00 2.4154603212086336e+01 2.2489681819794374e+00 0 0 0
368 2 9.8440000000000012e+00 2.1312885187134999e+01 2.2489681819794374e+00 0 0 0
370 2 1.1074500000000002e+01 2.2023314693372832e+01 2.2489681819794374e+00 0 0 0
390 2 1.1074500000000002e+01 2.3444173705848499e+01 2.2489681819794374e+00 0 0 0
133 2 0.0000000000000000e+00 1.2787731112280996e+01 5.4762643243671851e+00 0 0 0
170 2 2.4610000000000003e+00 1.2787731112280996e+01 5.4762643243671851e+00 0 0 0
442 2 0.0000000000000000e+00 1.2787731112280996e+01 8.7035604667460564e+00 0 0 0
443 2 1.2305000000000001e+00 1.3498160618518829e+01 8.7035604667460564e+00 0 0 0
461 2 2.4610000000000003e+00 1.2787731112280996e+01 8.7035604667460564e+00 0 0 0
462 2 3.6915000000000004e+00 1.3498160618518829e+01 8.7035604667460564e+00 0 0 0
131 2 0.0000000000000000e+00 1.4208590124756663e+01 5.4762643243671851e+00 0 0 0
166 2 1.2305000000000001e+00 1.4919019630994494e+01 5.4762643243671851e+00 0 0 0
168 2 2.4610000000000003e+00 1.4208590124756663e+01 5.4762643243671851e+00 0 0 0
211 2 3.6915000000000004e+00 1.4919019630994494e+01 5.4762643243671851e+00 0 0 0
441 2 0.0000000000000000e+00 1.5629449137232333e+01 8.7035604667460564e+00 0 0 0