
# Create simulation box and atoms

read_data data.ML_graphite_1atm_240K
  orthogonal box = (0 0 1.76685) to (49.22 49.0196 31.8685)
  4 by 4 by 2 MPI processor grid
  reading atoms ...
  4545 atoms
  reading velocities ...
  4545 velocities
group water type 1
1785 atoms in group water
group graphite type 2
2760 atoms in group graphite

# Define potential

pair_style sw
pair_coeff * * MLC_e.sw mW C


# Fix graphite atoms in place

fix 5 graphite setforce 0.0 0.0 0.0
velocity graphite set 0.0 0.0 0.0


# Equilibration of molecular water

# Add velocity/set timestep

velocity	    water create ${TEMP} ${SEED} rot yes dist gaussian
velocity	    water create 240 ${SEED} rot yes dist gaussian
velocity	    water create 240 20589 rot yes dist gaussian
timestep	    5.0

# Define output

compute			1 water msd
compute			3 water temp
thermo	    	50
thermo_style	custom step temp press vol etotal ke pe c_1[4] c_3

# Neighbor lists

neigh_modify    delay 0 every 1 check yes

# Set fixes

fix             1 water momentum 10 linear 1 1 1 rescale
fix             2 water nve
fix             3 water temp/csvr ${TEMP} ${TEMP} 500.0 ${SEED}
fix             3 water temp/csvr 240 ${TEMP} 500.0 ${SEED}
fix             3 water temp/csvr 240 240 500.0 ${SEED}
fix             3 water temp/csvr 240 240 500.0 20589
fix             4 water press/berendsen z ${PRES} ${PRES} 1000.0 modulus 20000
fix             4 water press/berendsen z 1 ${PRES} 1000.0 modulus 20000
fix             4 water press/berendsen z 1 1 1000.0 modulus 20000

# Run 0.5 ns equilibration

dump		    1 all atom 2000 ${DIR}/eq.${NAME}-${TEMP}.dump
dump		    1 all atom 2000 run_1/eq.${NAME}-${TEMP}.dump
dump		    1 all atom 2000 run_1/eq.het_freeze_1-${TEMP}.dump
dump		    1 all atom 2000 run_1/eq.het_freeze_1-240.dump

reset_timestep  0

run	            100000
Neighbor list info ...
  update every 1 steps, delay 0 steps, check yes
  max neighbors/atom: 2000, page size: 100000
  master list distance cutoff = 6.67472
  ghost atom cutoff = 6.67472
  binsize = 3.33736, bins = 15 15 10
  1 neighbor lists, perpetual/occasional/extra = 1 0 0
  (1) pair sw, perpetual
      attributes: full, newton on
      pair build: full/bin/atomonly
      stencil: full/bin/3d
      bin: standard
Per MPI rank memory allocation (min/avg/max) = 4.115 | 4.302 | 4.489 Mbytes
Step Temp Press Volume TotEng KinEng PotEng c_1[4] c_3 
       0    94.225352   -657.89738    72627.636   -17236.286    1276.2636    -18512.55            0          240 
      50    94.760504   -688.07565    72670.237   -17252.341    1283.5122   -18535.853   0.51955341    241.36308 
     100    94.046743   -395.15708    72694.524   -17232.778    1273.8444   -18506.622   0.89516659    239.54507 
     150    94.786516   -439.84671    72692.697   -17220.011    1283.8645   -18503.876    1.0809558    241.42933 
     200    93.778655   -918.72043    72614.788   -17249.182    1270.2132   -18519.395    1.2773572    238.86222 
     250    91.750581   -601.89215    72555.464   -17250.045    1242.7433   -18492.788    1.5023641    233.69655 
     300    94.360117   -514.85198    72551.938   -17219.678     1278.089   -18497.767    1.7261574    240.34326 
     350    94.567857   -295.76135    72540.683   -17203.113    1280.9028   -18484.015    1.9175382    240.87239 
     400    96.099305   -22.508158    72578.215   -17194.168    1301.6459   -18495.814    2.0518574    244.77312 
     450    96.911642   -680.21978    72624.726   -17203.987    1312.6489   -18516.636     2.216047    246.84221 
     500    95.575156   -735.73936    72597.347   -17197.266    1294.5465   -18491.812    2.4020605    243.43807 
     550    93.453723   -293.73951    72616.049   -17240.451    1265.8121   -18506.264    2.5947649     238.0346 
     600    96.211974   -684.62434    72598.557    -17237.87     1303.172   -18541.042    2.7668124     245.0601 
     650    95.788292   -764.61005    72565.991   -17253.771    1297.4333   -18551.204    2.9280188    243.98094 
     700    97.683538   -776.02589    72488.579   -17246.427    1323.1041   -18569.531    3.1913186    248.80829 
     750    92.992581   -809.70542    72501.031   -17277.862     1259.566   -18537.428    3.3466146    236.86003 
     800    92.662552   -512.77619    72495.878   -17331.241    1255.0958   -18586.337    3.5339874    236.01941 
     850    88.349043   -646.16595    72403.174   -17365.377    1196.6702   -18562.047    3.7828595    225.03254 
     900    90.031563   -850.70872     72357.25   -17345.445    1219.4596   -18564.905    3.9888762    229.31806 
     950    91.748491   -736.42399     72352.28    -17301.83     1242.715   -18544.545    4.2284381    233.69122 
    1000     90.05102   -698.19642     72355.52    -17310.38    1219.7231   -18530.103    4.5459815    229.36762 
    1050    90.253347   -336.38647    72386.184   -17319.935    1222.4636   -18542.398    4.7520003    229.88297 
    1100    91.611037   -184.14546     72393.12   -17304.532    1240.8532   -18545.385    4.8363083    233.34112 
    1150    95.466838   -416.42964    72397.176   -17279.027    1293.0793   -18572.106     4.973169    243.16217 
    1200    92.661463   -358.00146    72506.958   -17281.558    1255.0811   -18536.639    5.3010628    236.01664 
    1250    94.023778   -200.98875    72559.911   -17248.312    1273.5334   -18521.845    5.5686313    239.48657 
    1300    93.950605   -491.79005    72563.438   -17225.686    1272.5422   -18498.229    5.9135806     239.3002 
    1350    96.745736   -465.91188    72561.198   -17197.129    1310.4017   -18507.531    6.1260865    246.41963 
    1400    96.646141   -231.13945    72570.107   -17200.448    1309.0527   -18509.501    6.4616947    246.16596 
    1450    93.947004   -425.42154     72620.08   -17230.171    1272.4935   -18502.665    6.7749988    239.29102 
    1500    96.207706   -855.20636    72596.575   -17229.771    1303.1142   -18532.885    7.0835139    245.04922 
    1550    93.522254    -539.8878    72597.089   -17251.648    1266.7403   -18518.389     7.383788    238.20915 
    1600    94.642513    -232.2023    72639.223   -17254.587     1281.914   -18536.501    7.7381636    241.06254 
    1650    95.205517   -266.73539    72661.702   -17256.859    1289.5398   -18546.399    7.9769678    242.49656 
    1700    92.446039   -304.20967    72688.441   -17277.702    1252.1632   -18529.865    8.1773169    235.46794 
    1750    94.258361   -103.47223    72695.576   -17239.587    1276.7107   -18516.297    8.4430733    240.08408 
    1800    95.809731    -404.7795     72736.26   -17217.692    1297.7237   -18515.416    8.6572564    244.03555 
    1850    95.622396   -22.248649    72763.156   -17221.759    1295.1863   -18516.945    9.0610644    243.55839 
    1900    94.696623   -296.74938    72767.536   -17228.769    1282.6469   -18511.416    9.2570975    241.20037 
    1950    95.878284   -283.63179    72779.996   -17222.928    1298.6523    -18521.58    9.3803692    244.21016 
    2000    92.334046   -687.70027     72799.21   -17275.128    1250.6463   -18525.774    9.5154639    235.18268 
    2050     93.44271   -253.40511    72775.265   -17269.503    1265.6629   -18535.166    9.6568623    238.00654 
    2100    95.542468   -71.355253    72820.744   -17235.018    1294.1037   -18529.122    9.9386788    243.35481 
    2150    94.869789    -723.2775    72809.344   -17240.271    1284.9924   -18525.263    10.151606    241.64144 
    2200    93.792187   -702.41766     72787.29   -17256.354    1270.3965    -18526.75    10.336915    238.89669 
    2250    96.366078   -412.62055    72849.852   -17226.966    1305.2593   -18532.225     10.61933    245.45261 
    2300    94.176644    -613.5369    72807.808   -17203.169    1275.6039   -18478.773    10.931173    239.87594 
    2350    92.707976   -563.42765    72839.191   -17261.708    1255.7111   -18517.419    11.290804    236.13511 
    2400    94.228496   -398.35942    72867.503   -17234.586    1276.3062   -18510.892     11.58163    240.00801 
    2450    95.530384   -327.31959    72841.083   -17238.789      1293.94    -18532.73     11.81583    243.32403 
    2500    95.430512   -317.03713    72798.769   -17236.084    1292.5873   -18528.671    12.207458    243.06964 
    2550    95.993153   -372.62788    72792.512    -17187.94    1300.2081   -18488.148    12.681997    244.50274 
    2600    96.019282   -881.62172    72807.652    -17175.47    1300.5621   -18476.032    12.818598    244.56929 
    2650    94.144407   -687.97421    72771.402   -17123.434    1275.1672   -18398.601    13.045883    239.79383 
    2700    96.587742   -418.78717    72755.566   -17166.259    1308.2617    -18474.52    13.369437    246.01721 
    2750    98.012498   -389.99926    72703.352   -17157.788    1327.5598   -18485.347    13.734839    249.64618 
    2800    95.258362    -46.30181    72690.101   -17154.956    1290.2555   -18445.211    13.874801    242.63117 
    2850    96.813538   -367.75138    72642.871   -17176.104    1311.3201   -18487.424    14.120726    246.59233 
    2900     95.72959   -516.36765    72661.049   -17206.856    1296.6382   -18503.494    14.371751    243.83142 
    2950    92.565508    -577.6457     72597.09   -17219.059    1253.7814   -18472.841    14.588066    235.77224 
    3000    93.937936   -124.80084    72527.508   -17212.101    1272.3706   -18484.471    14.790873    239.26793 
    3050    91.969101    -14.38723    72465.848   -17250.829    1245.7032   -18496.532    15.000884    234.25314 
    3100    91.389615   -195.26723    72471.895   -17290.125    1237.8541   -18527.979    15.286511    232.77714 
    3150      89.7993   -198.91406    72459.003   -17284.006    1216.3136    -18500.32    15.574792    228.72647 
    3200    91.367205   -507.64006    72458.605   -17311.598    1237.5506   -18549.148    15.725718    232.72006 
    3250    96.432998   -470.68196    72388.384   -17267.181    1306.1658   -18573.347    16.214354    245.62306 
    3300    96.295766   -435.51043    72396.907   -17284.343     1304.307    -18588.65    16.401962    245.27352 
    3350     94.55066   -363.30487    72395.871   -17242.224    1280.6699   -18522.894    16.627555    240.82859 
    3400    96.701841   -237.22494    72435.108   -17269.934    1309.8072   -18579.741    16.926159    246.30783 
    3450    91.263081   -134.09622    72385.085    -17292.34    1236.1403    -18528.48    16.981688    232.45484 
    3500      93.1111   -625.55797    72449.248   -17298.209    1261.1713    -18559.38    17.147127    237.16191 
    3550    93.100348   -154.85532    72448.625   -17295.763    1261.0257   -18556.788    17.386305    237.13452 
    3600    94.703428   -631.05393    72447.079   -17283.057    1282.7391   -18565.796    17.552199     241.2177 
    3650    94.944135   -500.65402    72449.565    -17285.33    1285.9994   -18571.329    17.857841     241.8308 
    3700    93.687043   -235.06002    72454.113   -17288.373    1268.9723   -18557.345    18.317917    238.62888 
    3750    92.151689   -337.15457    72492.976    -17288.51    1248.1763   -18536.686    18.607967     234.7182 
    3800    93.109773   -555.11901    72516.261   -17295.983    1261.1533   -18557.136    18.759895    237.15853 
    3850    92.872783   -317.90543    72469.462   -17283.712    1257.9434   -18541.655    18.969623    236.55489 
    3900    91.764556   -583.09342    72418.446   -17290.018    1242.9326   -18532.951    19.360827    233.73214 
    3950    93.850528   -248.47877    72419.168   -17268.973    1271.1867    -18540.16    19.671756    239.04529 
    4000    93.403539   -368.05756    72425.116   -17223.974    1265.1323   -18489.107    19.889204    237.90677 
    4050    92.287501   -216.74735    72448.055   -17264.187    1250.0158   -18514.203    20.253698    235.06413 
    4100    92.788043   -401.39094    72442.626   -17239.035    1256.7956    -18495.83    20.527502    236.33905 
    4150    94.362606   -366.84762    72470.499   -17235.968    1278.1227   -18514.091    20.521156     240.3496 
    4200    93.254735   -397.34349    72402.476   -17234.867    1263.1168   -18497.984    20.645963    237.52776 
    4250    91.847898   -353.37154    72408.086   -17228.715    1244.0615   -18472.777    20.879872    233.94442 
    4300    94.854938   -228.14801    72373.785   -17209.887    1284.7912   -18494.678    20.959795    241.60361 
    4350    92.706292   -463.34683    72378.262   -17221.815    1255.6883   -18477.504    21.146013    236.13082 
    4400    96.879928    -16.01631    72378.026   -17212.275    1312.2193   -18524.494    21.274598    246.76143 
    4450    96.511668   -371.21824    72442.128   -17164.139    1307.2313    -18471.37    21.571102    245.82344 
    4500    93.804553   -281.58489    72421.735   -17167.789     1270.564   -18438.353    21.865206    238.92819 
    4550    92.908063   -72.276677    72415.779   -17162.714    1258.4212   -18421.135    22.050485    236.64475 
    4600    95.242277   -274.34926    72485.646   -17155.757    1290.0377   -18445.794    22.529515    242.59019 
    4650    94.979574    -230.0942    72497.932   -17162.185    1286.4794   -18448.664    22.716791    241.92107 
    4700    92.990876   -500.78885     72457.49   -17216.068    1259.5429   -18475.611    22.954795    236.85568 
    4750    93.517059    -433.4312    72480.965   -17212.601    1266.6699   -18479.271    23.181978    238.19592 
    4800    94.024695   -371.24325    72500.082    -17213.57    1273.5458   -18487.116    23.482474    239.48891 
    4850    96.747256   -460.03862    72499.326   -17224.235    1310.4223   -18534.657    23.680479     246.4235 
    4900    96.507838   -159.49127    72553.105   -17230.669    1307.1794   -18537.849     23.86462    245.81369 
    4950    94.275254    -549.2724    72568.761   -17227.138    1276.9395   -18504.077    24.056896    240.12711 
    5000    93.178327   -539.14828    72610.644   -17220.768    1262.0819   -18482.849    24.435465    237.33314 
    5050    95.869396   -123.13738     72651.02     -17227.1    1298.5319   -18525.632    24.656002    244.18752 
    5100    96.695728   -392.30087    72695.916   -17239.839    1309.7244   -18549.564    24.767402    246.29226 
    5150    94.996356   -287.15036    72762.942   -17248.573    1286.7067    -18535.28    24.775959    241.96381 
    5200     95.02879   -288.92041    72805.514   -17259.135     1287.146   -18546.281    24.932836    242.04643 
    5250     92.12972   -191.42199    72841.093    -17282.75    1247.8787   -18530.629    24.840571    234.66225 
    5300    93.771246   -453.14315     72870.88   -17297.516    1270.1129   -18567.629    24.979498    238.84335 
    5350    93.791815   -624.71846    72884.617    -17250.59    1270.3915   -18520.982     24.93587    238.89574 
    5400    94.861898   -624.14626    72880.688   -17254.906    1284.8855   -18539.791    25.077254    241.62134 
    5450    94.549363   -274.05995    72901.161   -17230.781    1280.6523   -18511.433    25.419641    240.82528 
    5500    93.646562   -231.41732    72890.739   -17231.487     1268.424   -18499.911    25.684973    238.52577 
    5550    94.739368   -861.24382    72894.944   -17219.461    1283.2259   -18502.686    25.987238    241.30924 
    5600    97.441241   -415.15686    72766.337   -17226.491    1319.8222   -18546.313    26.165978    248.19114 
    5650    91.990467   -695.53634    72724.563   -17233.263    1245.9926   -18479.256    26.514283    234.30756 
    5700    95.810382   -738.53303    72707.875   -17245.265    1297.7325   -18542.997    26.749289    244.03721 
    5750    93.302151   -402.64867     72713.48   -17202.051    1263.7591    -18465.81     26.91246    237.64853 
    5800    95.315593   -235.84888    72712.182   -17192.535    1291.0307   -18483.566    27.178908    242.77694 
    5850    95.011539   -373.64679    72759.896   -17184.442    1286.9124   -18471.355      27.3972    242.00248 
    5900    94.516016   -688.58793    72765.962    -17195.67    1280.2006   -18475.871    27.532815    240.74035 
    5950    98.536628   -353.98676     72741.07   -17205.408     1334.659   -18540.067    27.819197    250.98119 
    6000    96.014868    -274.8884    72790.686   -17230.646    1300.5023   -18531.148    28.117427    244.55805 
    6050    92.114312   -305.95158    72856.798    -17244.92      1247.67    -18492.59    28.264088      234.623 
    6100    95.391487   -519.56739    72825.205   -17253.098    1292.0587   -18545.157    28.407126    242.97025 
    6150    93.820308    -294.5391    72745.247    -17263.25    1270.7774   -18534.027    28.519461    238.96832 
    6200    96.440572   -491.35714    72752.512   -17239.909    1306.2683   -18546.177    28.640524    245.64235 
    6250     91.49656   -386.22748    72730.442   -17253.707    1239.3027   -18493.009    28.982301    233.04953 
    6300    94.387372   -620.68935    72716.269   -17258.635    1278.4582   -18537.093    29.192535    240.41268 
    6350    93.393837   -910.49327    72635.859   -17277.912    1265.0009   -18542.913    29.520681    237.88206 
    6400     93.39634   -443.42172    72600.438   -17271.068    1265.0348   -18536.103     29.56878    237.88844 
    6450    94.514953   -392.07712     72647.96   -17265.581    1280.1862   -18545.767    29.485263    240.73764 
    6500    95.492682   -622.56215    72636.502   -17234.046    1293.4294   -18527.475    29.952751      243.228 
    6550    96.099171   -165.24243    72690.354   -17237.526    1301.6441    -18539.17    30.110645    244.77278 
    6600    92.200459   -642.07526    72707.384   -17248.816    1248.8369   -18497.653    30.459841    234.84242 
    6650    94.410148    -530.4244    72662.607   -17214.855    1278.7667   -18493.621    30.567016    240.47069 
    6700    94.028637   -519.56781    72666.985   -17172.825    1273.5992   -18446.425    30.885269    239.49895 
    6750    95.954512   -643.45927    72621.615   -17189.985    1299.6848    -18489.67    31.054159    244.40432 
    6800    98.237781   -513.19679    72514.468   -17204.549    1330.6112    -18535.16    31.225308       250.22 
    6850    95.515272   -130.88848    72488.078   -17238.636    1293.7353   -18532.372    31.340872    243.28554 
    6900     96.14938   -382.30206    72543.523   -17253.122    1302.3242   -18555.446    31.775643    244.90066 
    6950    94.710038    -453.8041    72577.545   -17282.003    1282.8286   -18564.832    31.959152    241.23454 
    7000    90.819649    -629.0485    72574.917   -17313.733    1230.1341   -18543.867    32.164837    231.32538 
    7050    93.545292   -790.67757    72584.478   -17283.075    1267.0523   -18550.128    32.440246    238.26783 
    7100    90.734241   -608.66499    72504.599   -17250.827    1228.9772   -18479.804    32.394418    231.10784 
    7150    96.710248   -609.40517    72485.023    -17221.54    1309.9211   -18531.461    32.688942    246.32924 
    7200    94.619225   -308.95278    72512.094   -17243.987    1281.5986   -18525.586    32.954386    241.00323 
    7250    95.323176   -505.30216     72546.53   -17234.374    1291.1334   -18525.508     33.03439    242.79625 
    7300    92.974783   -372.14087    72520.917   -17229.098    1259.3249   -18488.423    33.484079    236.81469 
    7350    93.261288   -244.72235    72518.519   -17241.743    1263.2056   -18504.948    34.009419    237.54445 
    7400    93.094278   -507.96738    72542.186   -17234.258    1260.9435   -18495.202    34.272276    237.11906 
    7450    94.638378   -326.67545    72579.119   -17205.479     1281.858   -18487.337    34.410438    241.05201 
    7500    96.967902   -388.38896    72613.321   -17214.728    1313.4109   -18528.139    34.477155    246.98551 
    7550    96.757064    -410.0463     72605.43   -17201.375    1310.5552    -18511.93    34.712798    246.44849 
    7600    95.534375   -804.12514    72593.685   -17221.944    1293.9941   -18515.938    34.940638    243.33419 
    7650    94.621415   -880.75675    72552.715    -17181.69    1281.6282   -18463.318    35.134708     241.0088 
    7700    97.918166   -810.35382    72523.823   -17187.573    1326.2821   -18513.855    35.296611    249.40591 
    7750     98.20133   -622.26708    72526.558   -17176.362    1330.1175   -18506.479    35.453126    250.12715 
    7800    98.045387    -562.2759    72554.238   -17177.447    1328.0052   -18505.452    35.826103    249.72995 
    7850    97.096549   -597.12225    72590.447   -17159.594    1315.1534   -18474.748    35.891805    247.31318 
    7900    94.677476   -630.02768    72582.242   -17185.439    1282.3876   -18467.826    36.215089     241.1516 
    7950    95.501214   -522.10376    72560.418   -17195.699    1293.5449   -18489.244    36.540641    243.24973 
    8000    93.247662   -638.09509    72562.161   -17202.532     1263.021   -18465.553    36.779967    237.50974 
    8050    97.233063   -563.04642    72562.335   -17214.342    1317.0025   -18531.345    37.141454     247.6609 
    8100    96.562636   -629.04566     72560.77     -17194.8    1307.9217   -18502.721    37.484105    245.95326 
    8150     92.98674   -570.82487    72565.686   -17205.782    1259.4869   -18465.269     37.66887    236.84515 
    8200    92.371865   -576.89281    72523.387   -17243.783    1251.1585   -18494.941    37.913982    235.27901 
    8250    96.337817   -371.74386     72570.77   -17217.347    1304.8765   -18522.223     38.20226    245.38063 
    8300    96.457243   -730.05714     72609.73   -17242.254    1306.4942   -18548.748    38.452408    245.68482 
    8350     95.39408   -423.85705    72640.597   -17245.086    1292.0938    -18537.18    38.626373    242.97685 
    8400    93.536541   -264.40769    72680.394   -17229.762    1266.9338   -18496.696    38.683817    238.24554 
    8450    92.644769   -136.77741    72687.176   -17220.096    1254.8549   -18474.951    39.069371    235.97412 
    8500     92.01728   -342.93981    72747.627   -17232.018    1246.3557   -18478.373    39.249192    234.37585 
    8550    94.821355   -730.24025    72764.182   -17242.359    1284.3364   -18526.696     39.52262    241.51807 
    8600    92.518997   -205.10024    72733.002   -17255.862    1253.1514   -18509.013    39.746191    235.65377 
    8650    92.718123   -520.53493    72747.822    -17252.31    1255.8485   -18508.158     40.12979    236.16096 
    8700    94.745589   -184.56392    72799.547   -17243.431    1283.3101   -18526.741     40.41973    241.32509 
    8750    93.187579   -288.87813    72858.634   -17269.687    1262.2072   -18531.894    40.537584     237.3567 
    8800    92.130223   -571.58545    72875.695    -17229.05    1247.8855   -18476.936     40.71519    234.66353 
    8850    95.700902   -232.91579    72943.553   -17183.862    1296.2497   -18480.112    40.738655    243.75835 
    8900    94.066557   -306.06795    72975.695   -17159.749    1274.1128   -18433.862    40.957878    239.59554 
    8950    93.276162   -619.20831    72990.047   -17197.048     1263.407   -18460.455    41.121111    237.58233 
    9000    93.815221   -367.40948    72950.088   -17214.938    1270.7085   -18485.646    41.166559    238.95536 
    9050     94.30178   -637.42499    72907.673   -17233.752    1277.2988   -18511.051     41.33936    240.19467 
    9100    94.636019   -712.84119    72896.694   -17233.646     1281.826   -18515.472    41.421071      241.046 
    9150    96.485482   -378.76932    72849.316    -17259.77    1306.8766   -18566.647    41.376147    245.75674 
    9200    92.697721   -486.01962    72818.181   -17227.918    1255.5722    -18483.49    41.474347    236.10899 
    9250    95.669298    9.5943074     72876.06   -17223.749    1295.8216    -18519.57    41.765932    243.67785 
    9300    91.069369   -378.89358    72872.042   -17258.223    1233.5165    -18491.74    41.992994    231.96144 
    9350    92.136954   -465.51023    72827.927   -17294.871    1247.9767   -18542.848    42.138886    234.68067 
    9400    91.763717   -594.00432    72791.299   -17271.864    1242.9213   -18514.785    42.322686       233.73 
    9450    93.782948   -814.14578    72734.315   -17269.955    1270.2714   -18540.227    42.577514    238.87316 
    9500     92.81612    -531.3838    72658.888   -17245.546    1257.1759   -18502.722    42.839471    236.41057 
    9550    95.300902   -529.45706    72635.252   -17209.877    1290.8317   -18500.709     43.04512    242.73952 
    9600    91.293385   -240.35115    72589.682   -17262.225    1236.5507   -18498.776    43.192589    232.53203 
    9650    94.894122   -403.05809    72611.225   -17257.676     1285.322   -18542.998    43.576834    241.70341 
    9700    93.334348   -973.14036    72541.465   -17242.591    1264.1952   -18506.787    43.981469    237.73054 
    9750    92.763355   -340.39227    72526.031    -17260.69    1256.4612   -18517.152    43.992247    236.27617 
    9800    91.487017   -347.61065    72541.228   -17269.722    1239.1734   -18508.896    43.921246    233.02523 
    9850    93.095083   -589.04814    72535.299   -17277.325    1260.9544    -18538.28    44.256962    237.12111 
    9900    93.141385   -668.35137    72521.378   -17271.818    1261.5815     -18533.4    44.701204    237.23904 
    9950    93.128308   -366.48996     72485.44   -17278.256    1261.4044   -18539.661    44.917409    237.20574 
   10000    92.761329   -584.67483    72461.681    -17282.57    1256.4337   -18539.004     45.13437    236.27101 
   10050    93.787452     154.2955    72467.874   -17280.094    1270.3324   -18550.426    45.307988    238.88463 
   10100    92.848414    -2.180347    72486.226   -17255.999    1257.6133   -18513.613    45.756266    236.49282 
   10150    94.406042   -311.06189    72500.491   -17242.316     1278.711   -18521.027    46.002485    240.46023 
   10200    92.363808   -292.54832    72567.119   -17246.082    1251.0494   -18497.132    46.194048    235.25849 
   10250     96.54685   -985.22209    72565.753   -17266.379    1307.7079   -18574.087    46.392192    245.91305 
   10300    94.683549   -545.75383    72519.334   -17269.792    1282.4698   -18552.262    46.736661    241.16707 
   10350    93.642739   -441.91635     72506.39    -17259.79    1268.3723   -18528.162    46.859167    238.51604 
   10400    93.146687   -260.35974    72522.481   -17274.146    1261.6533   -18535.799    46.979198    237.25255 
   10450      94.0706   -482.70257    72548.412   -17248.835    1274.1675   -18523.003    47.276215    239.60583 
   10500    92.708931    -338.5658    72571.751   -17235.355     1255.724   -18491.079    47.619735    236.13755 
   10550    95.909628    -419.9572    72614.638   -17237.773    1299.0768    -18536.85    48.074514       244.29 
   10600    96.573561   -491.83133    72624.834   -17227.726    1308.0696   -18535.796    48.534096    245.98109 
   10650     94.90268   -669.25414    72632.657   -17211.554    1285.4379   -18496.991    48.519741    241.72521 
   10700    96.476037   -474.90701    72611.247   -17224.121    1306.7487   -18530.869    48.670951    245.73269 
   10750    95.906033   -457.00877    72664.037   -17218.565    1299.0281   -18517.593    48.510279    244.28084 
   10800    95.349114    -318.7155    72701.055   -17232.903    1291.4848   -18524.388    48.535569    242.86232 
   10850    94.914589   -370.46655    72682.106   -17224.964    1285.5992   -18510.563    48.730844    241.75554 
   10900    96.278458   -533.53118    72675.672   -17243.626    1304.0725   -18547.698    49.107465    245.22944 
   10950     94.70026   -398.34964    72717.851    -17211.62    1282.6962   -18494.317    49.107741    241.20963 
   11000    92.538428   -379.57411    72687.885   -17244.507    1253.4146   -18497.921    49.492223    235.70326 
   11050    93.467731   -512.25766    72644.364   -17257.757    1266.0018   -18523.759    49.741249    238.07028 
   11100    94.466593    -221.0353    72640.608   -17229.774    1279.5312   -18509.306    49.828379    240.61446 
   11150     92.72853   -294.20683    72626.307   -17223.568    1255.9895   -18479.557     50.40092    236.18747 
   11200    97.679847    84.126954    72667.816   -17234.255    1323.0541   -18557.309    50.402196    248.79889 
   11250    97.070874   -588.24832    72667.385    -17240.87    1314.8057   -18555.675    50.715463    247.24779 
   11300    93.400377   -713.06278     72609.42   -17256.582    1265.0895   -18521.672    50.915761    237.89872 
   11350    92.872645   -180.90141    72680.391   -17250.806    1257.9415   -18508.747    51.333814    236.55454 
   11400    95.242376   -313.43891    72723.116   -17218.295     1290.039   -18508.334    51.872335    242.59045 
   11450    94.745521   -662.10709    72676.589   -17249.204    1283.3092   -18532.513    51.748316    241.32491 
   11500    96.019288   -461.63525    72658.772   -17234.753    1300.5621   -18535.315    52.014898    244.56931 
   11550    94.257089   -309.03491    72626.711   -17214.257    1276.6935   -18490.951    52.520582    240.08084 
   11600    93.716001   -521.83048     72618.28   -17227.102    1269.3646   -18496.466    52.930625    238.70264 
   11650    92.902574   -830.56238    72594.937   -17262.463    1258.3469    -18520.81    53.166093    236.63077 
   11700    94.018671   -413.79411    72587.381   -17292.564    1273.4642   -18566.028    53.399676    239.47356 
   11750    96.180392   -529.19635    72556.391   -17279.332    1302.7443   -18582.077    53.296272    244.97965 
   11800    93.417836   -432.43187    72547.296    -17259.48     1265.326   -18524.806    53.406313    237.94319 
   11850    92.804606    -395.9399     72554.48   -17286.758    1257.0199   -18543.778    53.566529    236.38124 
   11900    94.428294   -114.34496    72555.078   -17313.774    1279.0124   -18592.787    53.782905    240.51691 
   11950    92.092443   -257.50699    72569.626       -17338    1247.3738   -18585.374    53.913754     234.5673 
   12000     94.65059   -218.89787    72546.046   -17319.989    1282.0234   -18602.012    53.982435    241.08312 
   12050    92.112805   -369.64609    72480.631    -17332.05    1247.6496     -18579.7    54.329715    234.61916 
   12100    91.960021   -673.49256    72475.153   -17341.386    1245.5802   -18586.967    54.577713    234.23001 
   12150    93.420809   -409.81287    72466.498   -17363.637    1265.3663   -18629.003    54.620105    237.95076 
   12200     93.44522   -92.053222    72474.546   -17323.532    1265.6969   -18589.229    55.111781    238.01294 
   12250     91.46243    -207.6785    72525.222    -17352.54    1238.8404    -18591.38    55.195575     232.9626 
   12300    91.253338   -131.03118     72538.51   -17350.415    1236.0083   -18586.423    55.482361    232.43003 
   12350    96.515142   -380.11365    72586.092   -17326.071    1307.2784   -18633.349     56.09982    245.83229 
   12400    92.409467    -800.4013    72577.398   -17341.534    1251.6678   -18593.201     56.31711    235.37479 
   12450    90.921841   -641.98646    72552.867   -17314.171    1231.5182   -18545.689    56.451624    231.58568 
   12500    94.857411    -291.3827    72600.323   -17297.728    1284.8247   -18582.553    56.595205    241.60991 
   12550    95.151162   -350.63517    72705.788   -17235.986    1288.8035    -18524.79    56.751019    242.35812 
   12600    95.224572   -401.81314    72760.481   -17221.678    1289.7979   -18511.476    57.230981     242.5451 
   12650    94.237307   -481.66116    72699.632   -17246.009    1276.4256   -18522.434    57.569066    240.03045 
   12700    97.566651   -610.74766    72694.344   -17204.015    1321.5209   -18525.535    58.012256    248.51057 
   12750    95.600259   -546.88017    72640.803   -17216.385    1294.8865   -18511.271    58.487754      243.502 
   12800    95.379152   -260.77516    72576.719   -17211.027    1291.8916   -18502.918    58.795325    242.93883 
   12850    94.012004   -159.18965     72650.37   -17195.986    1273.3739    -18469.36    59.570759    239.45658 
   12900    95.256012   -416.63276    72669.362   -17202.513    1290.2237   -18492.736    60.054867    242.62518 
   12950    96.130165    -940.4562    72637.097   -17203.322    1302.0639   -18505.386    60.034249    244.85172 
   13000    96.220135   -649.94687    72607.126   -17211.419    1303.2826   -18514.702    60.389371    245.08088 
   13050    93.488095   -592.07556    72629.123   -17220.644    1266.2776   -18486.922    60.344007    238.12214 
   13100    93.772736   -316.07918    72604.052    -17250.58     1270.133   -18520.713     60.57723    238.84715 
   13150    91.586404    -435.4312     72658.55   -17306.013    1240.5196   -18546.533    60.968583    233.27838 
   13200    92.921292   -705.87978    72606.448   -17332.192    1258.6004   -18590.792      61.5711    236.67845 
   13250    91.658851   -254.56846    72533.624    -17341.74    1241.5009   -18583.241    61.849367     233.4629 
   13300    92.360555   -370.79315    72510.557   -17273.266    1251.0053   -18524.272    61.930397     235.2502 
   13350    92.043697   -756.72537    72495.337   -17264.858    1246.7136   -18511.572    62.223663    234.44314 
   13400    93.036955   -570.77184    72434.394   -17241.849     1260.167   -18502.016    62.527275    236.97305 
   13450    94.384664   -475.52431    72403.438   -17266.378    1278.4215   -18544.799    62.716651    240.40578 
   13500    94.142175   -764.73634     72416.56   -17273.836     1275.137   -18548.973    62.922347    239.78814 
   13550    94.871251   -139.69884    72382.577   -17251.406    1285.0122   -18536.419    62.971058    241.64516 
   13600    93.778373   -655.68019    72387.574   -17285.559    1270.2094   -18555.768    62.831917    238.86151 
   13650    92.690241   -335.77847    72373.715   -17290.549    1255.4709    -18546.02    62.453079    236.08994 
   13700    92.175708   -244.27909    72446.417   -17312.542    1248.5016   -18561.043    62.743192    234.77938 
   13750    92.116074   -895.59679    72440.776   -17310.891    1247.6939   -18558.585    63.125596    234.62749 
   13800     92.81448   -246.17051    72418.538   -17279.666    1257.1537   -18536.819     62.96626    236.40639 
   13850    94.849111   -641.28568    72408.727   -17230.053    1284.7123   -18514.766    63.070474    241.58877 
   13900     94.50151    -362.3775    72383.711    -17241.01    1280.0041   -18521.014    63.214334     240.7034 
   13950     92.89631   -554.31145    72418.062   -17249.199     1258.262   -18507.461    63.513512    236.61482 
   14000    94.411215   -284.07232    72440.747   -17301.786    1278.7811   -18580.567    63.773167    240.47341 
   14050    93.622881   -660.89544    72464.844   -17290.771    1268.1033   -18558.874    64.098846    238.46545 
   14100    93.722238   -577.76254    72461.377   -17278.061     1269.449    -18547.51    64.312013    238.71853 
   14150    89.325301   -713.69487    72463.346   -17298.394    1209.8934   -18508.287    64.509591    227.51915 
   14200      90.7951   -730.86714    72445.667   -17300.334    1229.8015   -18530.136    64.958145    231.26286 
   14250    91.143383   -515.76535    72483.915   -17305.123     1234.519   -18539.642    65.315937    232.14996 
   14300    92.355567    -517.0025    72438.598   -17302.536    1250.9378   -18553.474    65.099081     235.2375 
   14350    94.003545   -541.58069    72478.703    -17303.45    1273.2593   -18576.709    65.228051    239.43504 
   14400    93.928472   -272.66177    72493.004   -17276.751    1272.2424   -18548.993    65.292144    239.24382 
   14450     92.98219   -301.84856     72555.05   -17269.516    1259.4253   -18528.942    65.287684    236.83356 
   14500    93.626121   -963.31943    72635.781   -17287.182    1268.1472   -18555.329    65.444963    238.47371 
   14550    93.122381   -705.49183    72636.142   -17298.825    1261.3241   -18560.149    65.549498    237.19064 
   14600    94.089842   -543.67635    72673.702   -17291.231    1274.4282   -18565.659    65.628907    239.65484 
   14650    92.058239   -547.35657    72621.841   -17288.237    1246.9105   -18535.148    65.704447    234.48018 
   14700    93.318269   -752.40929    72617.348   -17276.863    1263.9774    -18540.84    65.787199    237.68958 
   14750    93.378124   -529.59674    72639.627    -17319.85    1264.7881   -18584.638    65.814672    237.84204 
   14800    92.601905   -299.12245    72648.227   -17278.073    1254.2744   -18532.347    66.054327    235.86494 
   14850    95.449003    -506.0965    72625.953    -17258.96    1292.8377   -18551.798    66.561008    243.11674 
   14900    94.520178    -289.6296    72598.423   -17239.573     1280.257    -18519.83    66.599169    240.75095 
   14950    91.317573   -480.69402    72683.178   -17240.716    1236.8783   -18477.595    67.139719    232.59364 
   15000    94.315316   -669.81714    72632.068    -17246.51    1277.4822   -18523.992    67.134329    240.22915 
   15050    95.661361   -402.68994    72649.273   -17229.037    1295.7141   -18524.751    67.245414    243.65764 
   15100    97.767416   -163.08098    72692.556   -17226.093    1324.2402   -18550.334    67.611922    249.02194 
   15150    96.819529   -331.19994    72764.971   -17208.664    1311.4012   -18520.065    67.599934    246.60759 
   15200    95.699063    -279.3157    72778.322   -17202.012    1296.2247   -18498.236    68.175247    243.75367 
   15250    94.132535   -242.82475    72754.883    -17195.84    1275.0064   -18470.847    68.314603    239.76359 
   15300    95.920258   -407.66301    72763.816   -17224.172    1299.2208   -18523.393    68.609529    244.31707 
   15350    93.675874   -363.74051    72728.562   -17224.297    1268.8211   -18493.118    69.027019    238.60043 
   15400    93.128702   -659.24333    72707.019   -17238.344    1261.4097   -18499.753     69.08038    237.20674 
   15450    93.561958   -488.71247      72752.9   -17236.497    1267.2781   -18503.775    69.075863    238.31028 
   15500    96.028336   -328.30011    72772.007   -17198.567    1300.6847   -18499.252    69.274415    244.59235 
   15550    93.419122   -427.81178    72802.437   -17208.281    1265.3434   -18473.624    69.823219    237.94646 
   15600    95.166167   -497.09816     72802.03   -17198.498    1289.0068   -18487.505    70.362514    242.39634 
   15650    96.194817   -484.27758    72812.756   -17235.915    1302.9396   -18538.854    70.639505     245.0164 
   15700    94.151706   -569.67799    72830.066    -17252.97    1275.2661   -18528.236    70.964253    239.81242 
   15750     92.60243   -511.78735     72868.49    -17255.72    1254.2815   -18510.002    70.836437    235.86628 
   15800    96.515703   -826.64938    72868.256   -17234.107     1307.286   -18541.393    71.149822    245.83372 
   15850    94.375984   -333.66123    72908.609   -17262.537    1278.3039   -18540.841    71.553829    240.38367 
   15900    95.268842   -260.20259    72983.416   -17260.417    1290.3975   -18550.815     71.41792    242.65786 
   15950    94.409806   -647.16881    72989.012   -17249.102     1278.762   -18527.864    71.289968    240.46982 
   16000    93.437578   -215.07281    72972.745   -17215.552    1265.5934   -18481.145    71.298924    237.99347 
   16050    94.718147   -434.29401    72960.309   -17227.847    1282.9384   -18510.786    71.251445    241.25519 
   16100     96.29223   -304.44926    72950.076   -17245.898    1304.2591   -18550.157    71.625555    245.26451 
   16150    92.460723   -446.49676     72969.83   -17287.189    1252.3621   -18539.551    71.999585    235.50534 
   16200    93.249604    -709.9713    72982.893   -17285.949    1263.0473   -18548.996    72.070032    237.51469 
   16250    93.946624   -505.36255        72990   -17290.617    1272.4883   -18563.105    72.242855    239.29006 
   16300     91.07079   -528.69146    73049.477   -17297.408    1233.5357   -18530.944    72.524164    231.96506 
   16350     92.88412   -574.41402     73015.09   -17313.473    1258.0969    -18571.57    72.942702    236.58377 
   16400    93.681919   -430.36805     72980.92    -17294.06    1268.9029   -18562.963    73.203476    238.61583 
   16450    92.565137   -514.12875    72943.368   -17300.277    1253.7763   -18554.053     73.48392    235.77129 
   16500    90.836187   -581.35272    72911.843   -17315.722    1230.3581    -18546.08    73.983697    231.36751 
   16550    95.573934   -440.81172    72861.674   -17310.747    1294.5299   -18605.277    74.139859    243.43495 
   16600    95.058694   -454.51253    72853.097   -17321.018    1287.5511   -18608.569    74.163517    242.12259 
   16650    91.993217   -637.70888    72805.665   -17322.277    1246.0298   -18568.307    74.353572    234.31456 
   16700    91.815866   -354.75587    72812.776   -17352.286    1243.6276   -18595.913    74.453793    233.86283 
   16750    94.753553   -442.42818    72806.122   -17367.013     1283.418   -18650.431    74.749633    241.34537 
   16800    94.914792   -688.46771    72851.018   -17336.525     1285.602   -18622.127     74.81148    241.75606 
   16850    92.562087   -582.84995    72847.418   -17335.486     1253.735   -18589.221     75.05251    235.76352 
   16900    93.713496   -360.24866    72815.116    -17308.01    1269.3306   -18577.341    75.146306    238.69626 
   16950    92.734464   -312.53821    72787.168   -17329.653    1256.0698   -18585.723    75.036259    236.20258 
   17000    94.805655   -379.35418    72830.564   -17332.988    1284.1237   -18617.112    75.054967    241.47808 
   17050    92.470672   -416.07935    72900.937   -17323.183    1252.4968    -18575.68    75.277919    235.53068 
   17100    93.631517   -376.87722    72905.747   -17303.874    1268.2203   -18572.095    75.318957    238.48745 
   17150    91.241671   -520.65681    72932.248     -17308.3    1235.8503    -18544.15    75.649234    232.40031 
   17200    90.304299   -385.26149    72911.091   -17328.532    1223.1537   -18551.686    75.831043    230.01274 
   17250    92.906321   -631.04434    72876.069   -17298.264    1258.3976   -18556.661    75.874523    236.64032 
   17300    95.246797   -492.59522    72920.015   -17282.554    1290.0989   -18572.653    76.052815    242.60171 
   17350    91.055096   -358.14733    72962.108   -17333.018    1233.3231   -18566.341    76.476871    231.92509 
   17400    95.272666   -588.26697    72989.458   -17290.956    1290.4493   -18581.405    77.060243     242.6676 
   17450    93.528953   -719.54209     72961.56   -17298.813    1266.8311   -18565.644    77.217963    238.22621 
   17500    96.151267   -265.21429    72950.702   -17303.337    1302.3498   -18605.687    77.116167    244.90547 
   17550       93.565   -685.45927    72883.842    -17297.11    1267.3193   -18564.429    77.066795    238.31803 
   17600    92.991872   -490.93511    72867.806   -17312.318    1259.5564   -18571.875    77.307821    236.85822 
   17650    93.730569   -354.98503    72947.852   -17300.547    1269.5619   -18570.109    77.811457    238.73974 
   17700     93.94572    -848.2607    73011.346   -17313.435    1272.4761   -18585.911    78.229977    239.28775 
   17750    92.749089   -676.70755    73055.137   -17322.506    1256.2679   -18578.774    78.384648    236.23983 
   17800    96.287884    -544.4741    73079.524   -17319.918    1304.2002   -18624.118    78.592803    245.25344 
   17850     93.82059   -332.31398    73077.275   -17299.074    1270.7812   -18569.855    78.462985    238.96904 
   17900    97.373817   -606.32764    73051.911   -17293.018     1318.909   -18611.927    78.383811    248.01941 
   17950    93.124803   -601.52944    73042.246    -17282.89    1261.3569   -18544.247    78.790883    237.19681 
   18000    95.414511   -445.31064     73023.83   -17303.492    1292.3705   -18595.863     78.85765    243.02889 
   18050    92.270056   -697.48929     72970.21   -17347.428    1249.7795   -18597.207    78.973945    235.01969 
   18100    96.737423   -647.49777    72940.444   -17318.909    1310.2891   -18629.198    79.233046    246.39846 
   18150    91.738039   -404.35123    72950.745   -17337.753    1242.5735   -18580.326     79.36294     233.6646 
   18200    95.238018   -272.15583    73028.155   -17295.979      1289.98   -18585.959    79.283798    242.57935 
   18250    96.111506   -222.43008    73076.551   -17263.694    1301.8112   -18565.505    79.483855     244.8042 
   18300    96.118092   -79.513888    73133.314   -17282.192    1301.9004   -18584.092    79.602563    244.82097 
   18350    94.182358   -167.42598    73184.561   -17280.437    1275.6813   -18556.118    79.471989    239.89049 
   18400    96.615237   -490.03758    73181.392   -17289.092    1308.6342   -18597.726    79.550763    246.08724 
   18450     96.44317   -373.30284    73207.979   -17301.166    1306.3035    -18607.47    79.738731    245.64897 
   18500    95.736398   -375.75831    73240.354   -17297.736    1296.7305   -18594.467    79.827366    243.84876 
   18550     94.15002   -305.35657    73295.813   -17352.449    1275.2433   -18627.692    79.858757    239.80812 
   18600    94.726945   -532.35119    73262.776   -17279.709    1283.0576   -18562.767    80.182707     241.2776 
   18650    94.556296   -31.416029     73264.82   -17245.696    1280.7462   -18526.443    80.160789    240.84294 
   18700    96.223915   -262.75801    73273.064   -17225.561    1303.3338   -18528.895    80.290908    245.09051 
   18750      93.4903   -96.067633    73331.718   -17278.241    1266.3075   -18544.549    80.421395    238.12776 
   18800    92.393819   -485.06225    73352.134   -17261.419    1251.4559   -18512.875    81.049542    235.33493 
   18850    95.047684   -337.16147    73318.942   -17264.264     1287.402   -18551.666    81.224063    242.09455 
   18900     96.63277   -195.91339    73308.484    -17268.66    1308.8716   -18577.532    81.543255     246.1319 
   18950    96.406329   -702.60331    73313.279    -17253.57    1305.8045   -18559.375        81.63    245.55513 
   19000    94.542472   -743.21455    73276.451   -17272.462     1280.559   -18553.021    81.698869    240.80773 
   19050    94.665145   -19.879302    73212.461   -17251.725    1282.2205   -18533.946    81.633943    241.12019 
   19100    94.038277   -149.65773     73235.83   -17217.414    1273.7297   -18491.143    82.056744     239.5235 
   19150    95.399886   -360.69993    73265.294   -17249.629    1292.1725   -18541.802    82.332103    242.99164 
   19200    98.523538   -528.81803    73257.932    -17238.59    1334.4817   -18573.072    82.796984    250.94784 
   19250    97.229764   -802.20722    73235.914   -17236.684    1316.9578   -18553.641    83.078914    247.65249 
   19300    95.348176   -934.27135    73223.792   -17249.314    1291.4721   -18540.787    83.182686    242.85993 
   19350    92.347715   -481.05186    73191.779   -17266.004    1250.8314   -18516.835    83.550564     235.2175 
   19400    94.754411   -456.23937    73177.101   -17242.139    1283.4296   -18525.568    83.896711    241.34756 
   19450    96.958506   -351.92367    73225.716   -17240.234    1313.2837   -18553.518    84.108917    246.96158 
   19500    93.434136   -331.05718    73170.624   -17274.165    1265.5468   -18539.712    84.324922    237.98471 
   19550    94.528262   -248.40326    73209.846   -17276.026    1280.3665   -18556.392    84.304812    240.77154 
   19600    92.186531   -578.94573    73188.694   -17293.111    1248.6482   -18541.759    84.538498    234.80695 
   19650    93.979232   -578.41011    73148.278   -17241.481      1272.93   -18514.411    84.638924    239.37311 
   19700    93.070271   -702.46439    73166.509   -17231.246    1260.6183   -18491.864    84.842945    237.05791 
   19750    96.330007   -604.12818    73130.004    -17223.86    1304.7708   -18528.631    84.817377    245.36073 
   19800    93.433621   -457.66766    73141.352   -17264.117    1265.5398   -18529.657    85.241516    237.98339 
   19850    93.363405   -589.60606    73163.278   -17254.587    1264.5887   -18519.175     85.11822    237.80455 
   19900    97.566316   -961.22791    73144.755   -17196.315    1321.5163   -18517.831     85.08595    248.50972 
   19950    95.441727   -655.13279        73110   -17213.389    1292.7392   -18506.129    85.071742    243.09821 
   20000    95.631338   -538.99215     73083.88   -17233.138    1295.3074   -18528.446    85.238229    243.58117 
   20050    93.748174   -682.15994    73021.501   -17275.323    1269.8003   -18545.123    85.694527    238.78459 
   20100    91.243688   -463.81515    73021.154   -17305.474    1235.8776   -18541.351    86.054857    232.40545 
   20150    94.442452   -258.00515    73008.411   -17260.739    1279.2042   -18539.943    86.198143    240.55297 
   20200    97.911967   -484.78299     73065.93   -17222.838    1326.1981   -18549.036    86.506396    249.39012 
   20250    93.049072   -754.66299    73011.681   -17257.123    1260.3311   -18517.454    86.494421    237.00391 
   20300    93.731156   -381.27776    72997.815    -17227.25    1269.5698    -18496.82    86.475782    238.74124 
   20350    97.494709   -392.70078    72986.004   -17229.678    1320.5464   -18550.225    86.556222    248.32733 
   20400    92.567722   -392.35664    73043.985   -17267.915    1253.8114   -18521.726    86.605453    235.77787 
   20450    92.931467   -407.74458    73050.576    -17287.67    1258.7382   -18546.408     87.06391    236.70436 
   20500    91.696528   -59.797676    73063.431   -17284.834    1242.0112   -18526.845    87.391906    233.55887 
   20550    93.474417   -469.64192    73115.593   -17292.746    1266.0924   -18558.839    87.789251     238.0873 
   20600    92.693538   -260.41693    73166.034   -17306.701    1255.5155   -18562.217     87.91441    236.09834 
   20650    94.080253    -520.3097     73181.11   -17287.743    1274.2983   -18562.041    88.359616    239.63042 
   20700    93.382165   -147.30874    73127.841   -17282.473    1264.8428   -18547.316    88.250774    237.85233 
   20750    93.068679   -442.25293    73149.147   -17283.448    1260.5967   -18544.044    88.212717    237.05385 
   20800    95.572392    -461.7232     73181.37   -17258.817     1294.509   -18553.326    88.771285    243.43103 
   20850    96.541689   -619.97906    73158.307   -17248.235     1307.638   -18555.873    88.911871    245.89991 
   20900    97.384796   -429.70692    73155.934   -17222.876    1319.0577   -18541.934    89.413148    248.04737 
   20950    94.713484   -481.78558    73154.848   -17227.218    1282.8753   -18510.094    89.251425    241.24331 
   21000    96.238868   -355.14503    73192.342    -17225.17    1303.5363   -18528.706    89.407837     245.1286 
   21050    95.313842   -495.46406    73181.883   -17220.189     1291.007   -18511.196    89.228068    242.77248 
   21100     92.95588    -571.9531    73230.043   -17219.683    1259.0689   -18478.752    89.088229    236.76655 
   21150    96.730609   -161.06831    73226.672   -17192.265    1310.1968   -18502.462    89.348937     246.3811 
   21200     97.61435   -837.09879    73287.739    -17174.68    1322.1669   -18496.847    89.802685    248.63207 
   21250    94.756869   -528.10562    73291.901   -17199.666    1283.4629   -18483.129    90.260279    241.35382 
   21300    93.223447   -473.68411    73269.681   -17187.471     1262.693   -18450.164    90.707229    237.44806 
   21350    94.869114   -906.71536    73169.016   -17174.248    1284.9833   -18459.232    91.010878    241.63972 
   21400    95.724809    -723.0025     73100.83   -17182.656    1296.5735   -18479.229    91.447528    243.81924 
   21450    95.860417   -579.18562    73036.534    -17178.88    1298.4103    -18477.29    91.449766    244.16465 
   21500    95.429409   -855.34748    73003.801   -17182.587    1292.5723   -18475.159    91.574662    243.06684 
   21550    93.215291    -950.5553    72980.592   -17179.163    1262.5826   -18441.745    92.218632    237.42729 
   21600    94.939671   -609.84545    73021.583   -17203.533    1285.9389   -18489.472    92.533374    241.81943 
   21650    94.738102   -461.43693    73005.013   -17239.224    1283.2087   -18522.433    92.938741    241.30602 
   21700    92.003824   -745.71213    72977.458   -17248.154    1246.1735   -18494.328    93.316526    234.34158 
   21750    93.721402   -425.82347    72960.291   -17234.291    1269.4377   -18503.729    93.331974     238.7164 
   21800    90.845145   -473.00212    72943.034   -17283.498    1230.4794   -18513.977    93.378671    231.39032 
   21850    92.500091   -341.19369    72912.307   -17282.991    1252.8953   -18535.886    93.885463    235.60561 
   21900    92.585828   -274.68699    72905.183    -17291.02    1254.0566   -18545.076    93.860369    235.82399 
   21950    90.632321    -306.7851    72896.122   -17320.798    1227.5967   -18548.394    94.138624    230.84824 
   22000    92.066626   -561.55071    72840.075   -17307.281    1247.0241   -18554.305     94.34975    234.50154 
   22050    92.084801   -355.90317    72822.267   -17313.165    1247.2703   -18560.436    94.617686    234.54783 
   22100    94.258497   -157.64683    72799.632   -17335.086    1276.7126   -18611.798     94.99477    240.08442 
   22150     93.74278   -309.03825    72873.353   -17324.689    1269.7273   -18594.416    94.808006    238.77085 
   22200    94.637086   -262.99773    72937.011   -17287.757    1281.8405   -18569.598    95.266588    241.04872 
   22250    97.537427   -541.09926    72994.295   -17272.223     1321.125   -18593.348    95.426737    248.43614 
   22300    92.308974   -374.89983    72969.896   -17276.139    1250.3067   -18526.446    95.595765    235.11882 
   22350    93.776123   -461.70923    72960.931   -17294.849    1270.1789   -18565.028    95.413114    238.85577 
   22400    94.672941   -410.35331    72993.495   -17285.136    1282.3261   -18567.462    95.763302    241.14005 
   22450    95.981241   -339.82873    72958.585   -17303.165    1300.0468   -18603.212    96.138413     244.4724 
   22500    92.736881   -435.93476    72924.501   -17316.253    1256.1026   -18572.356    96.628944    236.20874 
   22550    92.338048   -410.75737     72910.21    -17281.09    1250.7005   -18531.791    97.563775    235.19288 
   22600    92.408625   -411.70646     72872.41   -17280.791    1251.6564   -18532.447    97.867751    235.37264 
   22650    95.367788   -537.01776    72837.273   -17266.764    1291.7377   -18558.502    98.058824    242.90988 
   22700    94.197716     -212.172    72845.402   -17284.709    1275.8893   -18560.599    98.349697    239.92961 
   22750    93.783834    5.0425388    72898.213   -17280.965    1270.2834   -18551.248    98.528596    238.87542 
   22800    93.077271   -240.57625    72930.565    -17273.93    1260.7131   -18534.643     98.52194    237.07574 
   22850    92.684699   -549.11961    72991.583   -17284.739    1255.3958   -18540.135    98.677034    236.07582 
   22900     93.12356   -567.89306    72963.598    -17285.23    1261.3401    -18546.57    98.992329    237.19364 
   22950    94.055143   -200.78795    72912.393   -17308.026    1273.9582   -18581.985    99.474591    239.56646 
   23000    94.608711   -614.96617    72953.848   -17280.794    1281.4562    -18562.25    100.23824    240.97645 
   23050    94.278335   -211.48981    72906.811   -17259.312    1276.9813   -18536.293    100.50109    240.13495 
   23100    93.887536    -170.6077    72939.283   -17263.301     1271.688   -18534.989    100.96841    239.13955 
   23150    96.125203   -286.63517    72967.946   -17225.231    1301.9967   -18527.228    101.11361    244.83908 
   23200    92.622559   -383.13257    72955.086   -17225.194    1254.5541   -18479.748    101.00903    235.91755 
   23250    96.996023   -453.38178    72863.086   -17208.342    1313.7918   -18522.133    100.95245    247.05713 
   23300    97.896284   -415.64785    72857.788   -17219.766    1325.9857   -18545.751    100.75949    249.35018 
   23350    94.301584   -711.51573    72849.236   -17235.932    1277.2962   -18513.228    100.83414    240.19417 
   23400    97.557055   -673.38512    72832.781   -17237.566    1321.3909   -18558.956    101.18439    248.48613 
   23450    94.580531   -431.59406    72733.632   -17216.355    1281.0745   -18497.429     101.1965    240.90467 
   23500    94.273392    -357.6332    72730.047   -17244.596    1276.9143    -18521.51     101.3041    240.12236 
   23550    92.196818   -399.02118    72690.089   -17268.793    1248.7875    -18517.58    101.51674    234.83315 
   23600    97.042932   -323.50238    72632.441   -17272.965    1314.4272   -18587.392    101.59768    247.17662 
   23650    96.127171   -282.67666    72545.191   -17251.271    1302.0234   -18553.294    101.47507    244.84409 
   23700    93.462002   -634.13721    72550.329   -17260.187    1265.9242   -18526.111     101.1019    238.05568 
   23750    93.025225    -1027.745    72487.594   -17286.122    1260.0081    -18546.13    101.44837    236.94317 
   23800    95.731191   -669.27811    72387.793   -17269.569    1296.6599   -18566.229    101.26447     243.8355 
   23850    94.630075   -314.48199    72332.389   -17256.294    1281.7455   -18538.039    101.61253    241.03086 
   23900    94.899705   -71.856371    72326.009   -17250.764    1285.3976   -18536.161    101.71793    241.71763 
   23950    94.315537   -65.017932    72347.544   -17253.429    1277.4852   -18530.914    101.82539    240.22971 
   24000    90.356975   -276.84002    72382.445   -17292.776    1223.8672   -18516.643    102.12871    230.14691 
   24050    92.208589   -310.71418    72393.124   -17319.223     1248.947    -18568.17    102.17644    234.86313 
   24100    91.313535   -595.70741     72365.14    -17351.35    1236.8236   -18588.174    102.29606    232.58335 
   24150     89.97575   -412.99654    72332.062   -17306.327    1218.7036   -18525.031    102.67545     229.1759 
   24200     95.91728   -563.84327    72384.164     -17255.5    1299.1805   -18554.681    102.96798    244.30949 
   24250    92.799299   -685.48209    72391.241   -17253.099     1256.948   -18510.047    103.20064    236.36772 
   24300     92.87827   -445.33015    72351.624   -17264.358    1258.0177   -18522.376    103.21513    236.56887 
   24350    92.616361   -696.16684    72299.007   -17290.467    1254.4702   -18544.937    103.75478    235.90176 
   24400     91.53988    -472.9097    72262.936   -17275.817    1239.8894   -18515.706    103.85771    233.15987 
   24450    94.502427   -712.56436    72280.801   -17253.435    1280.0166   -18533.452    104.31894    240.70573 
   24500    92.093939   -591.01825     72222.01   -17292.444    1247.3941   -18539.838    104.39049    234.57111 
   24550    92.014711   -397.79337    72197.218   -17306.573    1246.3209   -18552.894    104.79653    234.36931 
   24600     89.03326   -339.75928    72144.223   -17318.674    1205.9378   -18524.611    104.95403     226.7753 
   24650    93.894156   -522.06106    72203.548   -17278.783    1271.7776   -18550.561    104.99502    239.15642 
   24700    90.213057   -365.48847    72293.046   -17283.493    1221.9179   -18505.411    105.29276    229.78034 
   24750    93.359695   -437.57166    72294.622    -17275.91    1264.5385   -18540.449    105.53633     237.7951 
   24800    92.389807   -375.84507    72345.996   -17269.086    1251.4015   -18520.487    105.63629    235.32471 
   24850     90.15312   -435.71514     72367.18    -17275.67    1221.1061   -18496.777    105.87641    229.62768 
   24900     93.13827   -139.92664    72421.084   -17274.336    1261.5393   -18535.875    105.64621    237.23111 
   24950    89.752182    62.138387    72465.052   -17284.108    1215.6754   -18499.784    105.95815    228.60646 
   25000    92.561597   -482.20822    72550.494   -17252.013    1253.7284   -18505.741    106.22286    235.76227 
   25050    93.626334   -370.53401    72562.312   -17239.619      1268.15   -18507.769    106.75174    238.47425 
   25100    91.066137   -499.77531    72626.965   -17221.173    1233.4727   -18454.646    107.04383    231.95321 
   25150    94.787474   -327.21059    72621.588   -17206.249    1283.8775   -18490.127    106.76474    241.43177 
   25200    93.638583       -188.4    72670.879    -17208.26     1268.316   -18476.576    106.95783    238.50545 
   25250    93.892126    -478.1142    72635.478   -17193.593    1271.7501   -18465.343    106.80393    239.15124 
   25300    94.300823   -646.43133    72608.058   -17206.319    1277.2859   -18483.605    107.08703    240.19223 
   25350    92.777369   -754.34849    72573.028   -17208.968     1256.651   -18465.619    106.95929    236.31186 
   25400    93.557142   -433.58501    72551.129   -17191.807    1267.2129    -18459.02     106.9956    238.29801 
   25450    93.300023   -648.60699    72556.852   -17181.692    1263.7302   -18445.422    107.22349    237.64311 
   25500    96.641079   -335.66883     72554.68   -17167.504    1308.9842   -18476.488    107.49607    246.15306 
   25550    95.274045   -338.35334    72611.074   -17163.203     1290.468   -18453.671    107.30776    242.67111 
   25600    94.128729   -433.72197    72579.216   -17172.298    1274.9549   -18447.253     107.6214    239.75389 
   25650    97.639581   -160.92115    72534.229   -17153.224    1322.5087   -18475.733    107.89219    248.69633 
   25700    98.114065   -347.85231     72542.32    -17183.76    1328.9355   -18512.695    107.79613    249.90488 
   25750    94.598479   -179.06675    72449.381    -17191.91    1281.3176   -18473.227    107.80132    240.95039 
   25800    97.540971   -609.54861    72386.366   -17167.855     1321.173   -18489.028     108.3798    248.44516 
   25850    92.820081   -56.655008    72395.057   -17153.279    1257.2295   -18410.508    108.56716    236.42065 
   25900    97.211171   -50.192122    72426.457   -17171.255    1316.7059   -18487.961    108.43637    247.60513 
   25950    95.477684   -707.22064    72496.656   -17199.266    1293.2262   -18492.492    108.56399     243.1898 
   26000     92.01512   -1020.7246    72498.922    -17212.59    1246.3265   -18458.916     108.6311    234.37035 
   26050    94.570305   -832.10787    72425.907   -17199.157    1280.9359   -18480.093    108.96017    240.87862 
   26100    93.299756   -977.15194    72365.041   -17197.649    1263.7266   -18461.376    109.60079    237.64243 
   26150    93.329868   -805.47482    72232.826   -17212.073    1264.1345   -18476.207    109.83175    237.71913 
   26200    92.604056   -641.39707    72125.154   -17215.133    1254.3035   -18469.437    110.04824    235.87042 
   26250    96.400656   -774.05857    72098.084   -17201.192    1305.7277   -18506.919    110.45889    245.54068 
   26300    93.405496   -435.64986    72124.708   -17186.333    1265.1588   -18451.491    110.70505    237.91176 
   26350    94.619083   -548.66678    72108.571   -17173.381    1281.5966   -18454.977     110.8999    241.00287 
   26400    95.627012   -430.26899    72115.386   -17169.911    1295.2488    -18465.16    111.33398    243.57015 
   26450    96.604703   -316.58216    72145.692   -17207.008    1308.4915   -18515.499    111.60234    246.06041 
   26500    93.353482   -492.05565    72240.486   -17238.822    1264.4543   -18503.276    111.97169    237.77927 
   26550    94.326555   -425.06963    72294.369   -17207.984    1277.6344   -18485.619    112.34874    240.25777 
   26600    94.849446   -340.74072    72340.436   -17225.489    1284.7169   -18510.206     112.3983    241.58962 
   26650    95.088145   -201.15497    72470.959    -17211.92      1287.95    -18499.87    112.51267    242.19761 
   26700    94.917696   -182.36936    72605.218   -17245.154    1285.6413   -18530.795    112.64378    241.76346 
   26750    93.117724   -371.39221    72709.984   -17231.824     1261.261   -18493.085    112.80312    237.17878 
   26800    93.188857   -747.38161    72726.236   -17227.286    1262.2245    -18489.51    112.89464    237.35996 
   26850    94.254451   -604.18625    72680.606   -17217.775    1276.6578   -18494.432    113.37973    240.07412 
   26900    96.059361   -532.91785     72647.76   -17198.255    1301.1049    -18499.36    113.56602    244.67138 
   26950      90.6036   -455.66108    72598.503   -17229.633    1227.2077   -18456.841    114.01023    230.77509 
   27000    94.880768   -458.84461    72624.604   -17241.125    1285.1411   -18526.267    114.15545     241.6694 
   27050    91.579729   -414.00634    72654.584   -17247.038    1240.4292   -18487.468     113.4724    233.26137 
   27100    92.109953   -579.63939    72667.586    -17238.82     1247.611   -18486.431    113.61673     234.6119 
   27150    95.877242   -536.85648    72625.777   -17223.471    1298.6381   -18522.109     113.4228     244.2075 
   27200    94.026407   -515.65262    72642.868   -17197.256     1273.569   -18470.825    113.37527    239.49327 
   27250    96.699441   -567.57127    72637.463   -17212.281    1309.7747   -18522.056      113.332    246.30171 
   27300    96.486161   -544.41826    72645.851   -17200.503    1306.8858   -18507.389    113.76311    245.75847 
   27350    95.183646   -717.84578    72638.629    -17238.38    1289.2435   -18527.623    114.80718    242.44086 
   27400     92.96878   -760.04174    72701.296    -17238.83    1259.2436   -18498.073    114.85219     236.7994 
   27450    98.536548   -300.73751    72722.684   -17228.192    1334.6579    -18562.85    115.20367    250.98098 
   27500    93.635199   -326.67638    72757.592   -17239.118    1268.2701   -18507.388    115.63287    238.49683 
   27550    92.773758   -382.68948    72850.888   -17241.916    1256.6021   -18498.518    115.43126    236.30267 
   27600    94.558794   -197.32145    72898.065   -17260.516      1280.78   -18541.296    116.13626    240.84931 
   27650    92.963614   -308.63613    72903.773   -17240.318    1259.1736   -18499.492    116.43342    236.78625 
   27700    91.257655   -580.68075    72887.725   -17258.159    1236.0668   -18494.226    116.34058    232.44102 
   27750    93.041666   -720.76079    72853.697   -17246.535    1260.2308   -18506.766    115.94882    236.98505 
   27800    95.046721   -669.72607    72807.011   -17232.913    1287.3889   -18520.302    115.93587     242.0921 
   27850    94.391911   -401.41874    72788.227   -17230.891    1278.5196   -18509.411    116.27919    240.42424 
   27900    96.687218   -375.80966    72737.164   -17230.874    1309.6091   -18540.483    116.65494    246.27058 
   27950    95.669119   -442.79762     72694.02    -17276.23    1295.8192   -18572.049    117.21816     243.6774 
   28000     94.06729    -540.6328     72715.49   -17261.788    1274.1227    -18535.91    117.39691     239.5974 
   28050    94.282857   -548.92584    72717.617   -17240.486    1277.0425   -18517.529    117.42786    240.14647 
   28100    95.237677   -514.00312    72755.545   -17259.876    1289.9754   -18549.852    117.44991    242.57848 
   28150    92.306761   -574.25343     72791.31   -17289.365    1250.2767   -18539.641    117.50127    235.11318 
   28200     95.05602   -615.66841     72832.89   -17242.257    1287.5149   -18529.772    117.84569    242.11578 
   28250    92.299722   -49.070951    72783.193   -17281.263    1250.1814   -18531.444    118.17843    235.09526 
   28300    93.895804    67.982244     72797.65   -17283.723       1271.8   -18555.523    118.39849    239.16061 
   28350    96.584805   -252.84025    72793.311   -17266.083    1308.2219   -18574.305    118.74106    246.00973 
   28400    94.035298   -184.11996    72809.009   -17262.186    1273.6894   -18535.876    119.07707    239.51592 
   28450    91.484133   -671.52084    72826.835     -17286.8    1239.1344   -18525.934    119.16893    233.01788 
   28500    92.844147   -7.0000248     72882.36   -17266.919    1257.5555   -18524.474    119.39625    236.48195 
   28550    95.431363   -480.98103    72981.342    -17263.59    1292.5988   -18556.189    119.58316    243.07181 
   28600    95.052565   -407.88844      72995.7   -17270.203    1287.4681   -18557.671    119.55119    242.10698 
   28650    94.996119   -424.47431    73042.185   -17271.049    1286.7035   -18557.753    119.39455    241.96321 
   28700    94.311886   -450.58022    73061.791   -17278.947    1277.4357   -18556.383    119.66134    240.22041 
   28750    93.417363   -593.11905    73036.934   -17260.439    1265.3196   -18525.758    119.60286    237.94198 
   28800    93.643225   -527.99077    73085.651   -17273.201    1268.3788    -18541.58    119.67422    238.51727 
   28850    94.830384   -590.18361    73049.949    -17274.89    1284.4587   -18559.349    119.66966    241.54107 
   28900    95.591695   -329.43615    73044.394   -17278.971    1294.7705   -18573.742    119.89134    243.48019 
   28950    90.140251   -442.81205    73072.219   -17297.442    1220.9317   -18518.373    119.73243     229.5949 
   29000    95.105424   -298.36023    73071.346   -17315.451     1288.184   -18603.635     120.0707    242.24162 
   29050    93.505695   -608.46267    73059.508   -17310.499     1266.516   -18577.015    120.51437    238.16697 
   29100     94.62287   -715.96164    73006.487   -17307.922    1281.6479    -18589.57    120.32408    241.01251 
   29150    92.193367   -527.28947     72986.16   -17326.172    1248.7408   -18574.913    120.22354    234.82436 
   29200    92.810711   -236.89433    72927.152   -17325.558    1257.1026    -18582.66    120.66904    236.39679 
   29250    92.644159    -320.1674    72936.945   -17321.534    1254.8467   -18576.381    121.11224    235.97257 
   29300    94.308515   -431.39872    72887.203   -17294.507    1277.3901   -18571.897    121.46628    240.21182 
   29350    93.041749   -306.50042    72874.763   -17294.822     1260.232   -18555.054    121.91562    236.98526 
   29400    92.033015   -34.622056    72882.389   -17319.654    1246.5689   -18566.223    121.74657    234.41593 
   29450    92.065877   -451.37935      72916.5   -17282.619     1247.014   -18529.633    121.77867    234.49963 
   29500    94.082015   -269.38378    72827.828   -17268.935    1274.3222   -18543.258    122.12888    239.63491 
   29550    91.700634   -332.03517    72900.041   -17293.875    1242.0668   -18535.942    122.21837    233.56933 
   29600    94.046039   -184.30789    72895.188   -17312.082    1273.8349   -18585.917    122.11855    239.54327 
   29650     94.19182   -703.31589    72878.453   -17278.188    1275.8094   -18553.997    122.16899    239.91459 
   29700    93.162293    42.165265    72871.503   -17288.252    1261.8647   -18550.117    122.24974     237.2923 
   29750    95.512863   -245.13887    72906.973   -17280.106    1293.7027   -18573.809    122.25218     243.2794 
   29800    92.836818   -361.84568    72980.469   -17262.996    1257.4562   -18520.452    122.46312    236.46328 
   29850    91.773206    -271.0331     72925.86   -17277.809    1243.0498   -18520.859    122.92875    233.75417 
   29900    96.940274   -375.27148    72913.026   -17254.215    1313.0367   -18567.252    122.83518    246.91514 
   29950     93.50744   -214.05813    72896.714   -17301.924    1266.5397   -18568.463    122.61198    238.17142 
   30000    93.581593      41.2444     72920.28   -17276.271     1267.544   -18543.815    122.59858    238.36029 
   30050     92.47764   -332.40625    72975.548   -17264.773    1252.5912   -18517.364    122.61778    235.54843 
   30100    92.845727   -525.85638    73035.676   -17282.009    1257.5769   -18539.586    123.50587    236.48598 
   30150     93.47586   -1012.7363    72991.027   -17261.386    1266.1119   -18527.498    123.93645    238.09098 
   30200    94.408464   -805.84254    72870.454   -17261.947    1278.7438   -18540.691    123.96321     240.4664 
   30250    92.865894   -623.07042    72796.489   -17294.482      1257.85   -18552.332    124.02976    236.53734 
   30300    91.525913   -283.26574    72775.099   -17298.996    1239.7003   -18538.696    123.94148     233.1243 
   30350    93.299455   -594.44571    72758.633   -17318.545    1263.7225   -18582.268    123.83515    237.64166 
   30400    93.966784   -614.33231     72769.62   -17304.412    1272.7614   -18577.173    124.05236    239.34141 
   30450    93.678012   -792.03346    72788.705   -17293.517      1268.85   -18562.367    124.59795    238.60588 
   30500    95.702614   -587.02204     72759.43   -17289.858    1296.2728    -18586.13    124.57223    243.76271 
   30550    92.842136   -797.64434    72818.197   -17245.954    1257.5282   -18503.482     124.9946    236.47683 
   30600    95.329103   -468.50339    72825.634   -17218.339    1291.2137   -18509.553    125.17643    242.81135 
   30650    97.520789   -644.55257    72870.509   -17231.149    1320.8997   -18552.049    125.55517    248.39376 
   30700    94.201679   -288.85263    72867.696   -17231.473     1275.943   -18507.416    125.43827     239.9397 
   30750     96.48132   -619.26302    72824.778   -17237.096    1306.8203   -18543.917    125.23382    245.74614 
   30800    95.728327   -524.14802     72838.17   -17259.663    1296.6211   -18556.284    125.66011    243.82821 
   30850    92.069521   -764.91047    72805.915   -17288.537    1247.0633   -18535.601    125.70299    234.50891 
   30900    90.920383   -622.48372    72776.783   -17292.808    1231.4985   -18524.307    125.79208    231.58196 
   30950    91.321231    -277.3377    72782.564   -17283.518    1236.9279   -18520.446    126.51254    232.60295 
   31000     92.64399   -601.55354    72789.666   -17294.216    1254.8444   -18549.061    126.79165    235.97214 
   31050    93.457037   -673.48274    72737.464   -17302.716     1265.857   -18568.573    126.88763    238.04304 
   31100    90.425922    -552.8349    72708.294    -17311.98    1224.8011   -18536.781    127.04092    230.32253 
   31150    94.022321   -896.20922    72670.372   -17312.105    1273.5136   -18585.619    127.18648    239.48286 
   31200    95.667848   -483.04745    72672.235   -17292.145     1295.802   -18587.947     127.1443    243.67416 
   31250    96.768433   -461.65552    72656.967   -17251.537    1310.7092   -18562.247     126.8877    246.47744 
   31300    95.688368    -218.0687    72681.703   -17244.308    1296.0799   -18540.388    127.34685    243.72643 
   31350    97.409014   -269.79794    72667.943   -17254.475    1319.3857   -18573.861    127.40411    248.10906 
   31400    92.774807    75.679906    72705.348     -17250.5    1256.6163   -18507.116    127.54945    236.30534 
   31450    96.325498   -365.97708    72706.103   -17238.854    1304.7097   -18543.564    128.09466    245.34925 
   31500    96.970287   -62.459112     72706.16   -17247.334    1313.4432   -18560.777    127.95191    246.99158 
   31550    94.843284   -536.15496    72721.429   -17259.684    1284.6334   -18544.318    128.08871    241.57392 
   31600    94.508066    -358.3065    72697.003   -17248.837    1280.0929    -18528.93    128.27049     240.7201 
   31650     94.33578   -514.18531    72740.162   -17250.321    1277.7594   -18528.081    128.88211    240.28127 
   31700    94.460867   -631.97932    72733.093   -17248.587    1279.4536    -18528.04    128.86063    240.59988 
   31750    93.295102   -536.87407    72739.732   -17226.481    1263.6636   -18490.145     128.8608    237.63057 
   31800    92.407493   -390.40658    72759.324   -17238.155    1251.6411   -18489.796    129.20225    235.36976 
   31850    94.384935   -443.37906    72725.971   -17173.236    1278.4251   -18451.661    129.35555    240.40647 
   31900    97.353781    -872.8034    72672.212   -17141.787    1318.6376   -18460.425    129.67578    247.96838 
   31950    98.672663    -550.1145     72677.72   -17124.375    1336.5016   -18460.876    129.31841    251.32768 
   32000    96.405224   -615.44035     72603.75   -17130.617    1305.7896   -18436.407    129.45366    245.55232 
   32050    98.606344   -334.07552    72625.295   -17124.658    1335.6033   -18460.261    129.95461    251.15876 
   32100    95.665677   -615.07896    72617.648   -17154.245    1295.7726   -18450.018    130.33984    243.66863 
   32150    97.832486   -150.56504    72562.266   -17160.006    1325.1215   -18485.127    130.41614    249.18768 
   32200    96.693261   -613.55651      72605.5   -17147.592     1309.691   -18457.283    130.58366    246.28598 
   32250    95.702205   -279.07902    72626.626   -17155.849    1296.2673   -18452.116    131.08678    243.76167 
   32300    91.424389   -787.84781    72656.762   -17194.338    1238.3251   -18432.663    131.53986    232.86571 
   32350    95.553588   -291.33057    72664.728   -17171.427    1294.2543   -18465.681    131.21786    243.38313 
   32400    96.651382   -557.11877    72673.795   -17146.788    1309.1237   -18455.911    130.96742     246.1793 
   32450    95.843812   -477.45889    72671.227   -17149.936    1298.1854   -18448.121    131.08901    244.12236 
   32500    95.225115   -470.01642    72649.641   -17161.429    1289.8052   -18451.234    131.21084    242.54648 
   32550    94.722507   -281.92401    72687.583    -17168.59    1282.9975   -18451.587    131.45974     241.2663 
   32600    95.926048   -500.94621    72662.767   -17167.984    1299.2992   -18467.284    131.07817    244.33182 
   32650    92.702786   -554.74124    72616.713   -17199.974    1255.6408   -18455.614    131.11869    236.12189 
   32700    94.626692   -492.84331     72534.81   -17173.741    1281.6997   -18455.441    131.46836    241.02225 
   32750    96.580044   -411.07452    72498.087    -17185.14    1308.1575   -18493.297    131.68864     245.9976 
   32800    91.616568   -325.30121    72507.966   -17230.972    1240.9282     -18471.9    132.01001    233.35521 
   32850    94.007927   -323.36493    72512.979   -17240.322    1273.3186   -18513.641    132.20078     239.4462 
   32900    94.983014   -218.11733    72544.856   -17222.558     1286.526   -18509.084    132.82209    241.92983 
   32950    97.741358      -350.53    72551.606   -17217.864    1323.8872   -18541.751    132.89747    248.95557 
   33000    94.969981   -223.63748    72550.718   -17183.966    1286.3495   -18470.316    132.82298    241.89663 
   33050    97.923824   -436.90489    72580.928   -17176.006    1326.3587   -18502.364    133.48315    249.42032 
   33100    94.305013   -512.32657    72628.805   -17190.178    1277.3426    -18467.52    133.93262     240.2029 
   33150    98.361659   -185.88049    72616.689   -17183.389    1332.2891   -18515.678     133.8024    250.53553 
   33200    96.397773   -242.26951    72653.267   -17119.033    1305.6886   -18424.721    133.94938    245.53334 
   33250     96.94141   -249.26255    72668.518   -17132.016    1313.0521   -18445.068    134.19042    246.91803 
   33300    97.070601   -513.56351    72646.211   -17143.779     1314.802   -18458.581    134.25996    247.24709 
   33350    93.803434   -504.11206    72638.323   -17144.131    1270.5488    -18414.68     134.6734    238.92534 
   33400    96.792598   -416.65811    72613.696   -17150.342    1311.0365   -18461.379     134.8044      246.539 
   33450    100.04652   -216.86369    72636.085   -17142.276    1355.1101   -18497.386    134.74941      254.827 
   33500     95.98641   -273.76626    72719.225   -17130.747    1300.1168   -18430.864    135.06363    244.48557 
   33550    96.709142   -495.44994     72760.38   -17165.037    1309.9061   -18474.943    135.13907    246.32643 
   33600    95.574107   -862.80831    72725.073   -17185.633    1294.5322   -18480.165    135.18978    243.43539 
   33650    91.780281   -516.30423    72715.365   -17228.428    1243.1456   -18471.574    135.48425     233.7722 
   33700    95.742969   -304.00421    72708.822   -17180.988    1296.8195   -18477.807    135.48508     243.8655 
   33750    95.138062   -447.25859    72649.556   -17201.103    1288.6261   -18489.729    135.93287    242.32475 
   33800     94.31447   -515.86605    72674.624   -17232.294    1277.4707   -18509.765    136.20367    240.22699 
   33850    95.200797   -655.92144    72636.066   -17226.744    1289.4758    -18516.22    136.71383    242.48454 
   33900    95.631863   -424.50075    72658.709   -17247.607    1295.3145   -18542.921    136.82195     243.5825 
   33950    97.697685   -483.95506    72675.178   -17241.941    1323.2957   -18565.236    136.87847    248.84433 
[...]
   92000    94.364437    -766.4614    73326.236   -17298.566    1278.1475   -18576.713    350.46175    240.35426 
   92050    92.659664   -348.46888     73345.67   -17303.319    1255.0567   -18558.376    350.33877    236.01206 
   92100    94.507005   -79.540417    73382.437   -17329.623    1280.0786   -18609.702    350.54299    240.71739 
   92150    98.205866   -214.13557    73453.351   -17283.339    1330.1789   -18613.518    351.03203    250.13871 
   92200    95.738403   -451.34001    73456.364   -17317.201    1296.7576   -18613.959    350.92837    243.85387 
   92250     92.34096   -485.70136    73418.367   -17295.479    1250.7399   -18546.219    350.92126    235.20029 
   92300    92.592659   -736.56224    73342.521   -17324.133    1254.1491   -18578.282    350.69544    235.84139 
   92350    93.610404   -579.46024    73312.225   -17303.515    1267.9343    -18571.45    351.17619    238.43367 
   92400    95.117706    -731.2458    73266.402    -17283.16    1288.3504    -18571.51    350.46359     242.2729 
   92450    94.243661   -379.56315    73284.186   -17289.839    1276.5116   -18566.351    351.17621    240.04663 
   92500    92.650345   -375.72043    73299.917   -17296.516    1254.9305   -18551.447    351.01419    235.98832 
   92550     94.12534   -589.61987    73273.398   -17275.916     1274.909   -18550.825    351.70577    239.74526 
   92600    94.179439   -475.69969    73218.129   -17265.261    1275.6417   -18540.902    352.56736    239.88306 
   92650    93.609619   -326.70594    73290.676   -17279.941    1267.9237   -18547.865    351.99616    238.43168 
   92700    94.638639   -243.06487    73325.523   -17269.777    1281.8615   -18551.639    352.12464    241.05268 
   92750    96.246018   -539.82905    73336.365   -17261.587    1303.6332    -18565.22    352.27032    245.14681 
   92800    94.876513   -511.70009    73312.669   -17305.211    1285.0835   -18590.295    352.22734    241.65856 
   92850    94.232986    -574.2912    73266.389   -17297.186     1276.367   -18573.553     352.6466    240.01945 
   92900    92.853292   -661.86914    73263.518   -17335.635    1257.6793   -18593.315    352.68165    236.50525 
   92950    94.263645   -418.50641     73281.85    -17311.53    1276.7823   -18588.313    353.47847    240.09754 
   93000    94.880211    -340.7437    73324.479   -17305.171    1285.1336   -18590.305    354.31018    241.66798 
   93050    94.991936   -445.29612    73335.075   -17300.011    1286.6469   -18586.657    354.21696    241.95255 
   93100    95.256385   -479.90916    73339.682   -17286.014    1290.2288   -18576.242    353.95645    242.62613 
   93150    93.003103   -754.88016    73271.919   -17284.563    1259.7085   -18544.271    354.41029    236.88683 
   93200    94.029002   -455.90924    73231.565   -17269.308    1273.6041   -18542.912    354.21229    239.49988 
   93250    95.031501   -558.05176    73254.994   -17292.922    1287.1828   -18580.105    354.32149    242.05333 
   93300    97.684382   -834.35682    73244.457   -17283.633    1323.1155   -18606.749    354.22766    248.81044 
   93350    92.466651   -613.80172    73212.284   -17283.171    1252.4424   -18535.613    354.03441    235.52044 
   93400    93.500494   -590.85924    73206.802    -17307.86    1266.4456   -18574.306    354.68014    238.15373 
   93450    93.645229   -479.10234    73232.005   -17274.157     1268.406   -18542.563    354.62629    238.52238 
   93500    95.719313   -904.32005     73232.39   -17238.634     1296.499   -18535.133     354.3344    243.80524 
   93550    95.544408   -750.56179    73153.817   -17282.521      1294.13   -18576.651    355.01749    243.35975 
   93600    94.449309   -473.76943    73141.346   -17290.988    1279.2971   -18570.285    354.86974    240.57044 
   93650    97.354111   -345.71279    73190.875   -17286.023     1318.642   -18604.665    355.29503    247.96921 
   93700    96.324646   -329.19242    73253.278   -17249.553    1304.6981   -18554.251    355.53828    245.34708 
   93750    94.211618   -599.17621     73265.87   -17293.428    1276.0776   -18569.505      356.298    239.96502 
   93800    93.463672   -979.55082    73281.592   -17299.068    1265.9468   -18565.015    356.58456    238.05993 
   93850    92.477811   -436.51198    73290.538   -17325.138    1252.5935   -18577.731    356.50002    235.54887 
   93900     96.14664   -834.76341    73354.193   -17304.921    1302.2871   -18607.208    356.81132    244.89368 
   93950    93.447064    -341.4502    73449.157   -17271.265    1265.7219   -18536.986    356.76591    238.01763 
   94000    91.330428   -720.38359    73437.335   -17284.219    1237.0525   -18521.271    356.65304    232.62638 
   94050    93.079946   -566.18513    73390.452   -17297.778    1260.7493   -18558.527    356.19384    237.08255 
   94100    95.807518   -693.51662    73365.159    -17291.73    1297.6938   -18589.424    356.18182    244.02991 
   94150    93.145587   -645.75544    73345.962   -17304.314    1261.6384   -18565.953    356.31615    237.24975 
   94200    91.508861   -546.12202    73353.975   -17304.838    1239.4693   -18544.308    356.78044    233.08087 
   94250    91.739682   -627.01086    73290.774   -17315.091    1242.5957   -18557.687    357.55226    233.66879 
   94300     93.55326   -100.20472    73301.732   -17297.578    1267.1603   -18564.739    357.49793    238.28813 
   94350    93.492062   -426.53977    73309.829   -17309.076    1266.3314   -18575.407    358.07274    238.13225 
   94400    97.302015   -422.97936    73355.825   -17283.064    1317.9364   -18601.001    358.07677    247.83652 
   94450    93.489221   -971.05741    73465.569   -17262.297    1266.2929   -18528.589    358.88124    238.12501 
   94500    98.850357   -880.12223    73409.124   -17248.973    1338.9084   -18587.881    359.16435    251.78028 
   94550    92.660841   -244.61081     73320.58   -17245.744    1255.0726   -18500.816    358.71265    236.01506 
   94600     96.42416    -617.2758    73347.387   -17261.342     1306.046   -18567.388    359.61929    245.60055 
   94650    93.790385   -788.03438    73333.833   -17250.295    1270.3721   -18520.667    359.82606     238.8921 
   94700    98.256174   -442.36415    73362.668   -17211.475    1330.8603   -18542.335    359.87984    250.26685 
   94750    94.814664   -230.74491    73418.773   -17224.215    1284.2457   -18508.461    359.62139    241.50103 
   94800    94.180621   -604.68538    73446.193   -17260.135    1275.6578   -18535.792    359.42582    239.88607 
   94850    95.818393   -513.47532    73403.157   -17278.793    1297.8411   -18576.634    359.43603    244.05761 
   94900    91.632567   -519.85151    73374.518   -17316.246    1241.1449   -18557.391    359.70429    233.39596 
   94950    93.788761   -413.66008    73350.758   -17272.416    1270.3501   -18542.766      359.846    238.88796 
   95000    91.343965   -496.73467     73347.34   -17275.463    1237.2358   -18512.699    360.14523    232.66086 
   95050    96.867727   -411.23269    73286.125   -17265.491    1312.0541   -18577.545    360.32892    246.73035 
   95100    93.085456   -105.40439    73291.252   -17247.122     1260.824   -18507.946    360.21525    237.09659 
   95150    96.708465   -708.17008    73251.933   -17231.542    1309.8969   -18541.439    359.95694     246.3247 
   95200    92.243973    -731.1714    73167.644   -17249.108    1249.4262   -18498.535    359.90905    234.95326 
   95250    94.431306   -688.81742    73119.525   -17251.907    1279.0532    -18530.96    359.90212    240.52458 
   95300    91.175191   -503.31073    73044.769   -17248.969    1234.9498   -18483.919    360.44986    232.23098 
   95350    92.918153   -539.23317    73013.408   -17233.186    1258.5579   -18491.744    360.83778    236.67045 
   95400     95.11399   -305.74742    72999.095     -17257.9    1288.3001     -18546.2    360.59898    242.26344 
   95450    93.487057   -544.18238    72953.231   -17237.362    1266.2636   -18503.625      360.769     238.1195 
   95500    93.682146   -413.97506    72999.409   -17291.082     1268.906   -18559.988    360.51031    238.61641 
   95550    91.488132   -1079.0801    72965.604   -17328.761    1239.1885    -18567.95    361.50204    233.02807 
   95600    92.404407   -260.71559    73002.475   -17342.802    1251.5993   -18594.401    362.06323     235.3619 
   95650     90.61737   -55.738824    73011.515   -17354.447    1227.3942   -18581.842    362.12857    230.81016 
   95700    93.374399   -508.56384    72950.629   -17342.288    1264.7376   -18607.026    362.26016    237.83255 
   95750    91.638328   -139.82696    72959.445    -17324.78    1241.2229   -18566.003    362.23693    233.41063 
   95800    95.110974   -738.80679    72911.897   -17327.195    1288.2592   -18615.455     362.7014    242.25575 
   95850    90.303802    -304.9963    72909.147   -17347.863     1223.147    -18571.01    362.92502    230.01148 
   95900     92.54164   -232.91069    72920.093   -17328.288    1253.4581   -18581.746    363.28722    235.71144 
   95950    92.647812   -496.73349    72869.791   -17324.147    1254.8962   -18579.043    363.10384    235.98187 
   96000    94.059266   -585.05149    72827.191   -17276.337     1274.014   -18550.351    363.35069    239.57696 
   96050    92.420595   -410.77295    72855.473   -17275.064    1251.8186   -18526.882    363.46665    235.40313 
   96100    96.120972   -395.10271     72838.54   -17213.794    1301.9394   -18515.733    363.38142    244.82831 
   96150    98.144926   -635.19802    72813.118   -17213.691    1329.3535   -18543.045      364.102    249.98349 
   96200      93.6272   -371.17079    72800.507   -17239.157    1268.1618   -18507.319     365.4428    238.47645 
   96250    92.950548   -492.21181    72755.019   -17252.578    1258.9967   -18511.575    365.54665    236.75297 
   96300    94.984748   -363.02329    72778.374   -17230.245    1286.5495   -18516.794    365.71761    241.93425 
   96350      95.2864   -494.24444    72728.597   -17220.639    1290.6353   -18511.275    365.62964    242.70258 
   96400    94.287303   -497.05799    72740.559   -17272.247    1277.1027    -18549.35    365.43938    240.15779 
   96450     94.51563   -457.26212    72676.784   -17250.543    1280.1954   -18530.739    366.63656    240.73936 
   96500    97.500272   -221.78526    72722.925   -17223.438    1320.6218    -18544.06    366.88128     248.3415 
   96550    94.189747   -458.54028    72690.376   -17257.268    1275.7814   -18533.049    367.24331    239.90931 
   96600    94.807823   -110.22156    72714.083   -17248.188    1284.1531   -18532.341    367.80318     241.4836 
   96650    96.272588   -202.77727    72830.173   -17249.599     1303.993   -18553.592    367.77607    245.21449 
   96700    93.787001   -518.17429    72795.666   -17264.307    1270.3263   -18534.633    368.11081    238.88348 
   96750    95.217689   -394.52875    72742.767   -17260.641    1289.7046   -18550.345    367.81098    242.52757 
   96800    94.499788   -627.90125    72786.057   -17239.681    1279.9808   -18519.662    368.56536    240.69901 
   96850    95.518246   -432.08388    72746.106   -17242.058    1293.7756   -18535.833    368.74676    243.29311 
   96900    96.462837   -622.16613    72691.913   -17225.388    1306.5699   -18531.958    368.78581    245.69906 
   96950    93.296933   -431.11123    72717.187   -17258.231    1263.6884   -18521.919    369.43961    237.63524 
   97000    92.605854   -266.71679    72741.001   -17291.022    1254.3278    -18545.35    369.07092      235.875 
   97050    90.590672   -843.75791    72737.174   -17252.532    1227.0326   -18479.564    369.23742    230.74216 
   97100    93.322889    -1083.916    72688.218   -17287.954    1264.0399   -18551.994    369.11843    237.70135 
   97150    92.097025   -562.35503    72624.639   -17271.604    1247.4359    -18519.04    368.42098    234.57897 
   97200    93.488707   -825.39015    72589.463   -17250.026    1266.2859   -18516.311    368.86994     238.1237 
   97250     95.05011   -598.82342    72564.933   -17270.447    1287.4348   -18557.882    369.29123    242.10073 
   97300    93.109126   -421.47886    72542.318   -17286.807    1261.1446   -18547.952    369.11756    237.15688 
   97350     93.93175   -640.56494    72508.103   -17306.377    1272.2869   -18578.664    369.55306    239.25217 
   97400    93.398272   -270.46321     72515.35   -17292.568     1265.061   -18557.629    369.77605    237.89336 
   97450    95.184254   -487.10886    72542.317   -17282.634    1289.2518   -18571.886    369.36307    242.44241 
   97500    94.276521   -535.01332    72483.408   -17278.844    1276.9567   -18555.801    368.91116    240.13033 
   97550    97.127906   -363.58082    72531.629   -17233.355    1315.5781   -18548.934    368.69879    247.39305 
   97600    92.257302    -591.3973    72500.369   -17226.665    1249.6068   -18476.271    368.99349    234.98721 
   97650    96.610922   -294.92527    72422.482   -17228.027    1308.5757   -18536.603    368.97628    246.07625 
   97700    95.394465   -542.65786    72436.047   -17225.505     1292.099   -18517.605    369.30324    242.97783 
   97750    94.546231   -498.69816    72466.876   -17242.583    1280.6099   -18523.193    369.98185     240.8173 
   97800    92.881234   -732.18189    72493.195   -17271.387    1258.0578   -18529.445    370.05999    236.57642 
   97850    92.398518    -536.4897    72478.519   -17265.547    1251.5195   -18517.067    370.11235     235.3469 
   97900    93.707839   -491.99287    72486.328   -17259.497     1269.254   -18528.751    370.63813    238.68185 
   97950    91.276165   -581.45981    72503.575   -17246.168    1236.3175   -18482.485    371.47881    232.48817 
   98000    92.793884   -310.93443    72586.272   -17255.062    1256.8747   -18511.937    371.88662    236.35393 
   98050    93.844603   -842.53308    72632.116   -17254.655    1271.1065   -18525.761    371.93795     239.0302 
   98100    93.872509   -514.72419    72571.614   -17235.002    1271.4844   -18506.486    371.19576    239.10128 
   98150    96.395978   -295.56606    72561.288   -17218.816    1305.6643    -18524.48    371.30928    245.52877 
   98200    94.871176   -678.96027    72595.575    -17211.43    1285.0112   -18496.442    371.97172    241.64497 
   98250    92.934864   -389.83745    72608.114   -17213.003    1258.7842   -18471.787    371.90907    236.71302 
   98300    93.546758   -460.09368    72640.915   -17204.178    1267.0722    -18471.25    372.95078    238.27156 
   98350    95.944708   -639.29231    72650.392   -17212.425     1299.552   -18511.977    372.77827    244.37935 
   98400    94.583855   -529.04443    72672.917   -17227.243    1281.1195   -18508.363    372.58328    240.91314 
   98450    93.258371   -749.03488    72631.268    -17243.15    1263.1661   -18506.316     373.3819    237.53702 
   98500    93.961713   -549.50871    72645.623   -17243.777    1272.6927    -18516.47    373.63384    239.32849 
   98550    93.575908   -389.35053     72608.98   -17237.689     1267.467   -18505.156    374.17896    238.34581 
   98600    91.871546    -336.3625     72641.34   -17249.858    1244.3818    -18494.24    374.03506    234.00466 
   98650    93.654119   -501.79228    72594.396   -17262.585    1268.5264   -18531.112    372.70593    238.54502 
   98700    93.055987   -521.52327    72563.402   -17253.151    1260.4248   -18513.576    372.43275    237.02153 
   98750    93.910527   -773.17469      72519.1   -17279.304    1271.9994   -18551.303    372.86701    239.19811 
   98800    90.947962   -557.06827    72539.543   -17304.967     1231.872   -18536.839     372.6721    231.65221 
   98850    92.972298   -712.17546    72505.986   -17292.481    1259.2913   -18551.772    372.59764    236.80836 
   98900     93.49043   -242.96226    72527.977   -17293.789    1266.3093   -18560.098    372.31655    238.12809 
   98950    93.567877   -346.59687     72561.26   -17234.492    1267.3583    -18501.85    373.62768    238.32535 
   99000    95.400496   -448.30972    72615.681   -17236.565    1292.1807   -18528.745    374.03777    242.99319 
   99050    94.564711   -523.48371     72652.49    -17231.11    1280.8602    -18511.97    374.46474    240.86438 
   99100     94.83889   -647.36642    72615.677   -17229.416    1284.5739    -18513.99    374.92867    241.56273 
   99150     96.08936   -390.27349    72587.994   -17240.161    1301.5112   -18541.672    375.45002    244.74779 
   99200    95.541848    -500.9541    72611.481   -17234.236    1294.0953   -18528.331    374.74422    243.35323 
   99250    93.943319   -159.82441    72607.045   -17254.885    1272.4435   -18527.329    374.54789    239.28164 
   99300    93.480717   -323.64068     72624.43   -17237.422    1266.1777     -18503.6    375.02973    238.10335 
   99350    94.368915   -197.72828    72665.475   -17206.074    1278.2082   -18484.282     375.0151    240.36567 
   99400    96.096733   -336.54535    72689.265   -17230.458    1301.6111   -18532.069    375.42195    244.76657 
   99450    96.017015   -121.37881    72751.719   -17248.815    1300.5314   -18549.346    375.98213    244.56352 
   99500    96.394476   -6.0276354    72882.132   -17252.731     1305.644   -18558.375    376.10388    245.52494 
   99550    97.573704   -123.58685    72955.698   -17231.402    1321.6164   -18553.019    376.37481    248.52854 
   99600    93.718638    -367.1419    73025.562   -17258.689    1269.4003    -18528.09     375.8583    238.70936 
   99650    94.037662   -781.21833    73034.882   -17265.916    1273.7214   -18539.637     377.4565    239.52194 
   99700    95.416036   -64.994496    73021.603   -17257.322    1292.3912   -18549.714    377.51595    243.03277 
   99750     96.26249    -280.1591    73026.575   -17227.149    1303.8563   -18531.005    377.22488    245.18876 
   99800    95.347406   -948.34086    73025.321   -17257.795    1291.4616   -18549.257    377.09994    242.85797 
   99850    94.672314   -41.744744    73037.693   -17265.647    1282.3176   -18547.965    377.22343    241.13845 
   99900    94.103956   -761.88001    73039.727   -17263.005    1274.6193   -18537.624    377.57213    239.69079 
   99950    93.502072   -646.28284    73028.344    -17313.77    1266.4669   -18580.237    377.64823    238.15774 
  100000    96.221149   -692.42786    72990.318   -17314.257    1303.2963   -18617.554    377.36072    245.08346 
Loop time of 96.043 on 32 procs for 100000 steps with 4545 atoms

Performance: 449.798 ns/day, 0.053 hours/ns, 1041.200 timesteps/s
99.9% CPU use with 32 MPI tasks x no OpenMP threads

MPI task timing breakdown:
Section |  min time  |  avg time  |  max time  |%varavg| %total
---------------------------------------------------------------
Pair    | 56.954     | 64.04      | 72.555     |  82.1 | 66.68
Neigh   | 1.23       | 2.8789     | 4.7501     |  96.5 |  3.00
Comm    | 13.036     | 22.581     | 31.263     | 165.5 | 23.51
Output  | 0.10016    | 0.10577    | 0.20227    |   5.3 |  0.11
Modify  | 4.5816     | 5.5845     | 6.7705     |  22.1 |  5.81
Other   |            | 0.8533     |            |       |  0.89

Nlocal:    142.031 ave 217 max 73 min
Histogram: 16 0 0 0 0 0 0 0 6 10
Nghost:    948.969 ave 1010 max 903 min
Histogram: 14 2 0 0 0 0 2 6 6 2
Neighs:    0 ave 0 max 0 min
Histogram: 32 0 0 0 0 0 0 0 0 0
FullNghs:  14596.4 ave 26488 max 3661 min
Histogram: 16 0 0 0 0 0 0 0 2 14

Total # of neighbors = 467086
Ave neighs/atom = 102.769
Neighbor list builds = 5675
Dangerous builds = 0

write_data		${DIR}/data.eq-${NAME}-${TEMP}
write_data		run_1/data.eq-${NAME}-${TEMP}
write_data		run_1/data.eq-het_freeze_1-${TEMP}
write_data		run_1/data.eq-het_freeze_1-240
undump          1

reset_timestep  0

unfix           2
unfix           3
unfix           4


################################################
#######         Run Simulation         #########
################################################

log				${DIR}/log.run_${NAME}
log				run_1/log.run_${NAME}
log				run_1/log.run_het_freeze_1
