LAMMPS data file via write_data, version 29 Oct 2020, timestep = 300623

2204 atoms
1 atom types

0.0 49.22 xlo xhi
0.0 49.019635930410494 ylo yhi
-0.017591975218394396 27.95759197521879 zlo zhi

Masses

1 18.015

Atoms # atomic

30 1 1.3837417441412134 1.5813461989266644 3.188773472598534 0 0 -1
1938 1 4.036455284183267 2.1581347006447826 3.579482790245867 1 1 0
360 1 9.16944017354743 1.522229975831417 1.5081987093802658 0 1 0
598 1 6.646701284130699 3.4229741338207136 0.5388269951687695 -1 1 0
1090 1 13.721339838781978 3.5812362716614143 0.9729665421553759 0 1 0
955 1 15.455450157229919 1.094704935085017 11.766694296377484 0 0 0
464 1 0.6501468046350258 22.34499054099414 2.6562657253580326 1 0 1
919 1 0.24765023900996863 4.512802016525647 3.80934740338266 0 0 0
735 1 3.092763902846217 4.932610093753487 2.825332916088664 0 0 -1
838 1 11.573561947174246 23.53959672184915 5.100044662100429 0 -1 -1
1555 1 9.639893400882197 4.295872382757284 1.5483629275708093 0 0 1
1050 1 12.473368443871776 4.027078737385974 3.5816277844127207 0 0 1
293 1 11.677657093973274 5.984488135622897 0.4829896610356726 0 0 1
2195 1 13.686433583433475 24.30812353646655 9.2804616753587 1 0 1
978 1 13.097834581112695 10.768832761744846 12.59926890965377 0 0 0
702 1 7.901927388821892 22.052096614530626 13.487114180875176 0 0 0
616 1 1.536595143351089 7.416255609905726 2.9498155227279366 0 1 0
1558 1 5.571219046925903 24.104064507246846 2.0961146609765797 0 0 1
920 1 12.06407149975897 0.7409180555508322 2.3331650084545204 0 1 0
1223 1 2.3720230027105544 0.8346988725829212 0.7360764736842044 1 1 1
1262 1 1.6502453979520826 10.559216501559517 1.9137779933802594 0 0 0
535 1 5.377479587268473 7.364088419480855 13.770074211276253 0 0 1
2059 1 6.692208882649589 11.88718693676718 3.5946241938539023 1 0 2
1955 1 10.314657496138347 9.665049752764691 2.275933252907055 0 1 2
1504 1 14.268903665192557 12.374680299059946 1.9528263524779084 1 0 0
933 1 2.1416861313599957 13.64011848602151 2.3748005116241004 0 0 1
1486 1 2.666772431371283 11.669221139202017 4.544080907331206 1 0 1
1833 1 4.8968838280990274 13.695620045683382 1.6977599399569623 1 0 0
1177 1 8.914518018462754 11.869437017769542 1.1411548081568486 0 0 1
1825 1 9.210121742784708 13.608709980204184 3.6972930592027677 1 0 1
1754 1 11.637357552256045 14.53315560187402 2.393589747224268 0 0 1
807 1 15.987906187132582 14.161531900287553 3.681105571526745 0 0 0
171 1 3.226693981850212 20.092966917432996 13.814742310180359 0 0 -1
550 1 5.762035221284127 15.876415789259964 3.194612287245873 0 0 1
995 1 4.3135853925945 20.585184029252602 2.0584350458048166 0 -1 1
1291 1 8.807982402921944 15.684612527100137 1.6540310263531626 0 0 0
340 1 9.956296813732203 18.05136599355215 3.047867830944007 1 0 1
879 1 15.043414576825228 16.59519804236925 2.472850520490676 0 0 0
148 1 13.54777429088083 19.373881466304987 3.610978441807529 -1 0 1
393 1 15.233939781278483 10.07878228191557 0.5995722365437209 0 1 -1
883 1 3.8405558935768727 3.2358984968948836 0.20116201125566763 0 0 0
279 1 9.477557327865494 17.713462462589785 13.34890945924822 0 0 0
1786 1 6.123603383812468 20.105045589836134 5.252665911775891 1 0 0
1203 1 11.411537824912562 20.768440619475875 4.334893859893179 0 0 0
1591 1 2.614443975444476 21.931622716453774 4.154643134390704 1 0 -1
861 1 12.919370320467959 21.864140276638988 12.976429867777192 0 0 0
1764 1 7.121644526488126 22.70239190673453 6.162553642718027 0 0 1
420 1 7.970437905647857 23.35795932071095 3.4734024689948386 0 0 1
389 1 9.55921353496994 21.06890082152563 2.383331885448805 -1 1 0
751 1 4.4749967514781686 22.63241653470216 0.09774263514815712 1 0 0
411 1 16.289874782034246 16.075305993572258 10.95533038178699 0 1 -1
1569 1 2.2087914615021758 1.0551550717556322 7.366550718027211 1 0 0
129 1 4.458009428738191 3.1655947821620973 6.402967745590916 0 0 0
321 1 6.450623672144079 1.7210863215071028 6.730174041869455 0 0 0
2106 1 10.499350877199836 1.8475063446727849 4.673441945321694 0 1 0
569 1 13.026319310716671 2.8180885200136205 6.466045492572572 0 1 1
695 1 14.496748167722602 1.181508631456155 4.98299030515882 0 1 1
1997 1 6.041993366073098 1.1861455331369881 1.7459875450293088 1 1 0
1684 1 4.606092697101566 6.060615124203547 5.295037187770164 0 0 0
2145 1 6.249311319587728 5.319268080529764 2.8820838948572227 1 1 1
243 1 7.527636499010637 6.173434153153947 6.42722700766758 -1 0 1
475 1 11.813166109216187 6.512861377143742 3.245849565884192 0 1 1
777 1 13.440945220578284 20.32341448464705 1.1145026337741524 0 0 0
981 1 8.199109756050719 9.477699335606662 3.9227219866227463 0 0 0
1456 1 8.574094972264827 6.598695989809414 3.6508812514393023 1 0 0
169 1 13.79680111797829 8.118493662490279 4.229387905944613 0 0 -1
1293 1 15.05682073959203 7.78820802056899 6.453918462994558 0 0 2
536 1 0.16676045661107783 12.114811824348182 5.967547603699573 0 1 1
35 1 3.3720394039044446 8.573529462206933 4.289030944571245 0 0 0
1543 1 8.147933753559734 9.084617845630124 6.6679544245981095 1 0 0
2161 1 5.0740750696561125 12.131907617801936 5.945575787825934 0 1 1
1194 1 10.727240939314477 10.895084429528493 6.101908840558625 0 0 1
588 1 12.354827889830156 11.030541277960236 3.458277980675087 0 1 0
521 1 13.016034809636784 23.181526950317902 0.6594791455260557 0 0 0
1818 1 0.7905565683158815 15.112517198575418 4.075353444163064 0 0 0
2183 1 7.750930143375123 15.626471328477335 5.030429291532846 1 1 0
1198 1 10.37881174773866 13.740383525207033 6.589086078818953 0 0 -1
1669 1 12.56240131801448 15.584346518083493 6.295446477599703 1 0 1
1835 1 15.29300274686069 15.11951255717214 6.216919308201301 0 0 0
1344 1 4.177478629683732 0.02270188784719096 11.82670514202998 1 0 1
1639 1 3.329488337617301 16.33846983738051 4.816338336135294 1 0 -1
943 1 3.4187523511719995 19.10314471133916 5.018545307710948 0 0 1
1742 1 7.887512431467427 14.698215340754432 7.941747240299029 1 0 0
552 1 12.20135699855848 16.64807404222186 3.847580140122035 0 0 0
1806 1 1.2404683295124757 19.79992496405058 6.727610496492402 1 0 1
1592 1 8.512928227150768 18.3258209288551 5.657750827107536 0 0 1
1073 1 5.88133332979075 20.10752479445625 8.105088793736472 0 0 1
427 1 11.71188497394594 17.53141684335201 8.050016633611028 0 0 0
2204 1 13.369734034047312 20.61450182617079 8.026687184880256 1 1 0
207 1 14.192293527684747 24.50365328311738 3.4789222918401506 0 0 0
344 1 8.589346224446718 21.169564106597708 7.94655904583903 0 0 -1
374 1 10.893084710750712 19.75407705650293 6.846014396723447 0 0 0
640 1 11.552196274408058 23.12069855639943 7.949712533442523 0 0 0
1654 1 16.060657836635116 22.825565669726416 5.055593008011874 1 0 1
2017 1 10.874862032281754 19.48486560545693 11.387222264907766 0 0 0
1932 1 9.390413133899266 1.5982738750469887 9.653052039375924 1 0 -1
540 1 11.933227187998616 1.8475133911392525 11.04113499041332 0 1 0
1300 1 5.5364482225191285 20.964578867495153 12.466418261637235 0 1 0
1294 1 0.23600661002128476 14.727489397412333 6.862395595418717 0 1 0
1890 1 4.353196524159686 4.263642620569402 9.15431557367007 0 1 0
611 1 8.548696850960305 3.3367222195406185 7.529764918584968 0 0 0
1348 1 11.85666157459267 4.804056303561359 10.632298717558283 0 1 1
772 1 14.021158482787431 3.107109137302731 9.29932088621388 0 0 0
227 1 14.845016961672675 8.470872335233295 12.474317557558715 0 0 0
1611 1 15.678119964569001 20.170918458446405 9.872634130257937 1 0 1
439 1 5.251228836423388 6.706956747910782 8.037499208741016 0 0 0
73 1 3.167657931934771 9.4911308494989 7.008268462613169 0 0 0
1985 1 6.140029941000505 8.56527181968664 10.088759645970812 0 1 0
1337 1 10.159241915403175 8.572489827779025 8.686397474694495 0 0 1
274 1 9.875972373379454 5.72454871408481 8.721910302705616 0 0 1
414 1 14.671141111336679 7.565890840349955 10.039543100781763 0 1 1
1645 1 1.343693954455993 8.622331459284121 8.864220892407944 1 0 -1
176 1 6.039624018711824 10.455754174826259 7.90212691154024 0 0 1
1877 1 6.024751697203211 10.613946077745895 12.105007468843027 1 1 1
901 1 13.778107211315083 10.93013762052339 6.141002609126344 0 0 1
398 1 15.215397554360264 12.810788655323751 8.08505709027816 0 0 0
1232 1 0.9573481278990732 11.591014101055208 8.569064769798988 1 0 0
1031 1 0.1902494643689458 11.66560319309886 11.886428852358415 0 0 0
296 1 3.593208686054696 12.706313084396914 9.199558676036146 0 0 0
771 1 3.5971370378179888 12.24049445579994 12.132708285183211 0 0 1
2115 1 7.120973642415475 12.571168747746977 9.554092347609965 0 0 1
1638 1 5.4063714169922505 14.91366941867485 10.8123672696981 1 0 0
1737 1 11.309645834940143 12.839399919700618 9.204278953797445 1 0 1
271 1 13.854213255500524 11.008337547628523 9.625170239809671 0 0 0
1157 1 2.149936249693981 15.107435182829303 8.934104079219475 0 0 0
88 1 3.2508313713105568 17.967244251186045 8.838236214063896 0 0 0
597 1 4.703827716030177 14.964694101550906 7.205810864001177 0 1 0
1563 1 9.094021450270192 16.813849642613313 9.23978551074806 0 0 -1
770 1 6.396032903083663 18.714810880367864 2.481163955073827 0 0 0
740 1 3.1948520359433408 21.093332472965617 8.707245172778574 0 0 0
1814 1 0.74290185400317 20.852394502550478 10.434350781154127 1 0 1
660 1 8.022209913744163 19.474108245752845 10.388748408400325 -1 1 0
443 1 13.02336359826725 18.50603172981352 10.437252258869115 0 0 -1
670 1 15.646941548336404 13.460352845176505 11.318696863098658 0 1 1
1221 1 2.8881020624625795 23.795340124504474 8.450792643682489 1 0 -1
553 1 5.378544052502273 22.64594638367496 10.416602209622393 0 0 0
356 1 6.099704409210751 18.311849625703633 11.760059790125414 0 1 0
1243 1 9.337663192744147 23.078585208550013 9.580414023600996 0 0 0
2121 1 10.237438478125592 22.29005780076634 12.141677956769485 1 0 1
146 1 2.2044051903112774 18.792775711814897 1.946078854797317 0 0 0
1133 1 1.6453857043095204 0.9110280622396618 10.59095331030479 1 1 0
1879 1 16.007351790572205 7.602126739148032 2.2216029139512314 0 1 0
1587 1 5.959026323044523 2.5863944291612126 12.070616286864459 1 0 0
1257 1 13.103773846375018 1.7528649171608521 13.68126224899632 0 1 -1
577 1 2.0602111448865967 3.438971814017943 10.468752568599761 0 1 0
66 1 16.16339056222669 2.135210747809309 1.0509240254655554 0 1 0
1341 1 7.033924388047509 4.385620866313885 10.156211293783096 0 1 1
160 1 3.290576982401535 4.344211860110669 12.915667040246095 0 0 1
615 1 8.760835547525044 2.2293503012812397 12.431129505968194 0 1 0
14 1 12.408766056794564 5.452610007350284 13.424419497875684 0 0 0
1033 1 8.102943965181103 6.774942985610538 10.667988757811504 0 0 0
1779 1 12.872216695032986 8.8365437973807 8.051263319605681 0 0 0
674 1 8.045333725574002 7.159043304010063 13.25376549735499 0 1 -1
1323 1 1.529959876556054 8.331476183783057 11.70875757017877 0 0 0
714 1 7.983954635922007 0.2866011583011974 4.24487796559962 0 0 -1
1919 1 4.118498725286034 6.711685616069841 11.423139963821422 1 1 -1
1051 1 15.159439010236097 4.482905300867996 4.495887284566072 0 0 0
1001 1 8.57108464366107 11.641366579003622 12.38400460608875 0 0 0
711 1 9.464709688369874 10.999280461831525 9.836685438010994 0 0 0
28 1 6.412544890130868 6.569818440957926 0.5729193536872428 0 0 0
1728 1 1.3090352476979907 14.304825311944905 11.32318905896943 1 0 1
1863 1 16.325626679526106 19.581499354443714 0.16218291318934813 0 0 1
1607 1 1.8940450544783083 16.196583253045016 13.853449245047807 1 0 -2
1304 1 15.063374732246158 22.569954481357573 11.055191858272282 0 0 -1
45 1 0.6739147935897232 22.608914786105867 6.639471945298111 0 0 0
1192 1 2.2594836768408566 18.115144083771597 11.928530862392554 0 0 -1
1162 1 5.844550998276097 17.14317700893294 8.94383121534298 1 0 1
375 1 7.757695852960943 14.662296319391618 12.484818025234555 0 1 -1
1801 1 10.29949955028276 14.618334566337156 11.220244684564916 1 0 1
620 1 11.402075955555608 15.749647784439658 13.30538723784678 0 1 -1
2109 1 13.62101577032318 16.633064536537557 12.516704854484846 1 1 -1
499 1 2.63934373216809 22.335769016187022 11.86990898383308 0 0 0
1715 1 3.8868802710861305 24.416516558419826 4.2498465030483725 1 0 0
1018 1 6.557589068250207 10.73816268519521 0.7528389270783125 0 1 1
1213 1 14.905169431002598 20.39349904031763 5.810431891011611 0 0 0
1063 1 15.27472854867446 5.284894294285161 7.076564968821942 0 0 0
1009 1 1.3796792857574942 7.836327542395067 0.1699518723721603 0 0 1
1900 1 1.878374672020028 23.52440365565359 0.35066485102049205 1 1 1
593 1 3.599238063065676 11.263771276824073 0.0515340330308267 0 1 1
873 1 0.06409981896227634 2.3606441168992083 6.1548384038921 1 0 0
2203 1 12.195761113479278 8.159351144575682 13.92341077462984 1 0 0
1151 1 10.197838226284606 0.18033017152725994 23.011726546312133 0 1 0
121 1 1.983807012938643 23.92831210476766 20.471385842101864 0 0 0
2057 1 5.0204621297328496 24.328927430748127 15.841961705540081 1 0 2
1361 1 13.824384518628133 2.1993011936655456 16.8142515650504 0 1 1
528 1 10.471495033825063 3.4426191241889574 14.149098570285325 0 1 -1
2120 1 1.380649421828392 1.3480171239588776 16.03671518231377 0 1 0
1182 1 15.343177526348029 23.27963166874649 18.909994324025362 0 0 0
1011 1 4.405588273531285 9.800001286668705 14.453655105102206 1 0 0
1449 1 8.507863956925453 5.163144534410589 15.353180573414988 1 0 -1
570 1 3.1867252539773947 13.924049053183495 14.22360897587488 0 0 1
1305 1 13.783888758841936 5.140471792604715 16.958478587666736 0 0 0
44 1 13.212533888248318 14.140254917919313 27.942388926144652 0 0 -2
1134 1 0.2548601180310698 10.49313135049825 17.362110880860293 0 1 0
599 1 0.495220886757977 3.8796552048259065 15.373350820976746 0 1 0
350 1 3.6205842665269032 0.08875861334570526 14.781561918556184 0 1 0
810 1 0.010962707711558614 18.852276900006252 16.289552513896407 0 0 -1
467 1 10.384240414343516 8.245771835909489 27.73296940141471 0 0 0
1285 1 13.298155459000126 7.910481702455165 16.408264729461223 1 1 0
1321 1 5.941358038154695 10.94324456273003 16.372575643333693 0 0 0
604 1 2.2155675901546696 8.906614543460805 16.664833313284163 0 1 0
1345 1 8.247708015509671 9.408339829392393 16.697942543122714 0 1 0
449 1 15.978869602242236 24.425529285755808 22.698556268442093 0 0 -1
1691 1 15.036941728472982 10.252494464840723 16.52465445872494 1 0 1
1240 1 5.236500579632502 21.50370051912949 15.677677221063572 0 0 -1
386 1 5.659624816481719 14.592918178507796 15.321850145069439 0 0 -1
2131 1 7.703613825130974 12.855276110182462 15.160681353298003 1 0 1
1821 1 9.377388379327444 13.45789379917068 16.95378004812164 1 0 0
1334 1 13.72810140691305 15.404061894929042 17.185072108389058 0 1 0
1584 1 14.851021597064452 13.030855941223495 18.000318274366364 0 0 -2
1636 1 8.234022526885434 17.878227598975947 18.13299095257527 1 -1 -2
1823 1 15.748333931353685 16.95359912558364 16.48640429001742 1 0 1
50 1 2.3007976890350266 17.70489074672264 16.089745114376104 0 0 0
728 1 3.8423707979008777 20.200120474372536 17.94962612885439 1 0 -1
1430 1 8.21055695617531 20.832764492077267 15.990925397271058 0 0 0
1643 1 15.490525541556169 10.716213461308932 21.62646853282959 1 0 -1
1400 1 0.17830338788765068 22.951456521773228 18.843762441986478 1 0 1
1237 1 15.40537954029558 2.227056634193024 24.77439062591796 0 1 0
2163 1 10.162495895171551 18.88923675327503 15.823276842256517 1 0 0
1454 1 8.74974556142286 22.5095874188889 18.26428872584997 1 0 0
952 1 12.562837257322267 20.253045033969794 15.200916560009565 0 0 0
1077 1 1.3399633614662345 12.614478432273835 15.68196987449036 0 0 0
1975 1 0.7624271267145956 2.8348957528408376 19.275795018217796 1 0 -1
2015 1 5.285236604049965 0.6573862967525748 17.079465834855675 1 0 0
960 1 7.430733693412357 1.180286348138564 15.870166090641437 0 1 0
667 1 6.9848515529364485 2.13924061160563 19.212858228357195 0 1 -1
1959 1 9.663763977582006 1.3106169421549367 19.8848061436741 0 1 0
661 1 15.636133373927864 5.471737219460769 18.853229171230968 0 1 0
942 1 3.6667326147586654 2.7996323112338146 17.966705247443368 1 -1 1
249 1 3.785773971791287 5.624084146651618 18.171960316737135 0 0 0
1489 1 7.754445664043397 5.0662563677297525 19.722028042185382 1 0 -1
1386 1 11.275164073844353 4.526044189743828 18.029868816329333 0 0 0
805 1 1.14730530050794 6.464912189703201 17.170952897789554 0 0 -1
1037 1 12.84454340213122 24.14012465087066 17.22836135514104 0 0 0
2152 1 4.48079038404625 5.193422800928468 15.245956895238088 0 0 0
1727 1 9.380913641270473 6.6196578945263305 17.812572340194894 1 0 0
1573 1 6.290740595760468 7.729878767948134 17.766810318660287 1 0 0
133 1 11.937037921763187 7.821859719579195 19.055342546194076 0 0 0
1302 1 14.979498788783118 7.970266526356948 19.565400055524815 -1 0 1
601 1 0.3336975187267135 7.514931765637935 20.086190247149222 0 0 0
46 1 1.6548773407758146 2.1145885656143966 25.70916557693862 0 0 -1
781 1 2.7298076272264633 12.533291289776544 20.29188121151483 1 0 0
370 1 4.257736671197471 10.032902429670715 18.564410029140245 0 1 -1
2116 1 8.86120553804254 11.414592588671143 18.981284530104244 1 1 0
1131 1 11.326129195165537 10.342523187124867 19.72017119593071 0 0 -1
1822 1 13.580643575629376 11.585207416305392 19.84112355692221 1 1 1
1915 1 1.5791689541269847 15.07798703348566 17.17584361936529 1 0 -1
135 1 15.72679964144795 23.28546533381827 27.31643167652168 -1 0 -1
580 1 5.221458188796232 13.068278680518468 18.582150364120967 1 0 0
222 1 9.597179908190471 13.029666834563113 21.40486935853816 0 0 0
1250 1 6.851733571612763 13.244841512562544 20.86906777393423 0 0 -1
1926 1 8.404203265290514 23.35695207103779 22.5270875584601 1 0 -1
1475 1 4.341119698897496 15.64299730137108 17.73329357191425 1 0 -1
866 1 5.699294995822378 17.629836626869857 18.976314165883565 0 0 0
1378 1 8.448454313326064 15.181064768565857 19.034002871481025 0 0 0
1755 1 10.57166644687941 15.796954875178795 20.771189028851243 1 0 0
507 1 12.74092704627209 16.967586789729804 19.387120106419022 0 1 0
653 1 15.12757248315438 16.260287558259588 20.60842379089381 0 1 0
1928 1 1.0678437009332435 20.111261843193866 19.018642871531267 1 1 0
25 1 4.548113766586508 18.930745950630563 20.996234131160808 0 0 -1
1874 1 9.353592279579136 20.121908784493836 19.49092277965689 1 0 0
632 1 12.305643620225874 19.567613898215825 19.113788371732994 0 1 -1
1396 1 15.774251832598514 21.558920942535494 20.885147677477686 0 0 0
530 1 1.4146474037842784 20.581383485813884 21.764751181509798 0 0 -1
177 1 0.24046630780630457 23.462111880826306 23.10092694939237 0 0 0
782 1 4.270538614376203 21.835327469665167 20.401154589971785 0 -1 0
603 1 6.650755238121495 23.343799557696283 19.682426346360383 1 0 1
760 1 14.093449339588052 21.059439018447875 17.58914401171745 0 0 0
41 1 1.6343406337319857 2.7925769758416212 22.868186988233195 0 0 0
1520 1 7.026397444299913 16.889266543221293 14.09291247383194 1 0 0
178 1 3.768103566108149 1.7631739985251151 20.70121085495729 0 0 -2
1948 1 11.458792565424323 4.1001790627571415 20.713442528564666 1 0 0
2044 1 12.342111143305226 1.583720566549034 21.60677918861593 1 1 1
347 1 14.43600852852072 2.5215129522344437 19.86596221109172 0 0 0
849 1 6.528818064922987 3.478471910052443 14.756951225196197 0 0 0
2103 1 2.018683160950128 5.188666191750436 20.553064456827762 1 0 -1
1852 1 9.195624290542865 4.174626708641838 22.153927331308928 1 1 -1
1525 1 12.106797214893911 5.511989849665296 25.391565468529155 0 0 0
1191 1 12.87328349241359 6.357844061605881 21.654420593437145 0 1 0
495 1 1.6523916235183875 6.415133885348626 23.05257988622679 0 1 -1
1404 1 5.222761169792847 5.414284595998592 20.99140678886215 0 0 0
410 1 5.224774856308318 8.25153773944995 20.796616076218182 0 1 -1
958 1 10.559329989862741 10.410010059138008 22.613710679313833 0 0 0
185 1 13.569859444897952 12.366381146469905 14.800511796260725 0 0 0
561 1 16.02903051458074 14.100872675989374 27.04298669189553 -1 1 1
1176 1 2.0797356272932057 9.207400295071164 23.985503870206635 0 0 -1
904 1 3.5323611818739553 10.676854555646162 21.9411793333564 1 0 0
164 1 6.294146368671497 11.296331941034953 22.643616353184655 0 0 -1
2074 1 7.976183700390735 8.792235227570277 22.34501219827334 1 1 0
1034 1 12.290982708139918 11.478024799559789 24.785853348393946 0 0 1
1208 1 7.85993299410837 22.25782350859167 27.070314453370568 1 0 -2
1442 1 15.122253319435243 12.10052056208847 24.490882289677778 1 0 0
2008 1 1.8452752611910488 13.855933264011531 22.82329233489694 0 0 -1
1008 1 9.27484176191846 1.1325386362223757 26.735618939462622 0 0 -1
1269 1 3.8504784317257768 15.861927346968296 23.621021234054048 0 0 0
1943 1 5.4971158395002435 13.620615744752758 25.087491101667922 0 0 -1
1907 1 12.758535998310029 13.113014374964074 21.97551917902571 0 1 -1
548 1 9.098205057931235 13.677214339651183 24.070414977683374 0 0 -1
217 1 14.560401588005051 14.893836470099759 23.06821666383718 0 0 0
1994 1 1.0007144278069493 17.262827016991988 19.235579542295742 1 0 0
531 1 4.254498595741159 5.881379344663904 26.669804859850156 0 0 0
987 1 4.638732579645575 17.10296206443631 26.088258090055035 0 0 1
78 1 7.507509462594054 15.7815837149894 24.40068871277678 0 0 -1
1059 1 5.995654074601065 15.815369435708396 21.75403746559895 1 0 -1
707 1 10.420526310511356 16.931084491780172 23.835789165683714 1 0 0
1235 1 1.9996777133012509 17.85811019447412 21.627618951699027 1 0 -1
1572 1 2.4320664103496514 21.90653191678019 24.346663548027987 1 0 -1
1790 1 5.869584253141262 19.437526560451346 25.56898944598894 1 0 0
1143 1 6.71218069708558 18.722104840590656 22.95355199279076 1 0 0
1099 1 8.972816538585235 20.396609929893046 22.189048482348216 1 0 -1
1769 1 9.135744796705564 13.754452953047474 27.22853389457351 1 -1 0
1966 1 14.231247463827874 20.85272114946608 24.090124351005777 1 0 0
1748 1 5.282991417221444 21.97147567202297 25.358757006695203 1 0 0
483 1 10.304631177240347 24.261729236503676 20.60104909804771 0 0 -1
1530 1 5.532197921954935 23.195306519382235 22.733579472722997 1 0 0
2155 1 10.026430641832686 22.0122370986927 24.85717459926786 1 1 0
1514 1 13.178436426218642 20.780394060483264 21.407576272905146 1 0 0
591 1 14.915300665897288 0.4481899467537633 22.65598889661143 0 1 1
1347 1 1.3840473651103207 19.504890674402645 25.32301647307367 0 0 0
166 1 14.2898797625081 23.327538656339083 25.037348464845294 0 0 0
910 1 0.36368231725204103 11.708230741275225 24.749587944850234 0 -1 0
2060 1 4.988728713218328 2.950326625324034 25.226338923344915 1 1 0
612 1 3.8601809297475196 0.40919685219982643 25.234299384807617 0 1 -1
437 1 8.410160496673694 1.8864801194621013 23.223174058303506 0 0 -1
1853 1 7.890106699510209 3.1916110768369332 25.764998595143318 0 1 0
1860 1 11.791464636690456 0.6243866483389131 25.506369905727045 0 0 -1
1032 1 11.665204620255162 13.949641850062672 15.451882274985328 0 0 0
1407 1 1.3308692289673127 5.095065131294236 27.420547019017196 1 1 0
225 1 4.5404805809696205 5.666970884338394 23.6652139170424 0 0 0
452 1 6.448552769802671 7.666674217099192 24.468113337093552 0 0 0
198 1 9.018629571966013 6.2110626151103245 24.027068763216075 0 0 1
1045 1 8.630267486570089 5.628740222670313 26.890536163078558 0 0 0
1978 1 13.087859126010729 3.114353712175805 26.137880454429364 1 1 -1
844 1 3.196323947041877 8.765044245179894 26.37726196997001 0 1 -1
1205 1 7.6084199810343485 19.516207002597515 27.945718756577133 0 0 -1
965 1 7.829688464224552 9.172194014131248 27.087761227012738 0 0 0
1296 1 11.465548218656178 7.677161946003152 23.4666587252671 0 0 0
1539 1 12.360567635500395 8.812535847718298 25.85004486822351 0 0 -1
24 1 0.2605037783624206 23.21624983968137 26.111266033858975 0 0 -1
1725 1 2.7857738018390323 13.260531901297208 26.013214382707172 0 0 0
114 1 13.418642663820386 24.206719779615405 14.51649650638044 0 0 0
872 1 7.472148151435696 11.514021433278918 25.163210096050012 0 0 -1
1088 1 15.048733499850162 8.467485582740277 26.20392117972229 0 1 -1
1273 1 1.335064556607064 14.897213737481758 27.78520655351448 0 0 0
1397 1 6.175761231040123 0.8207050343486345 21.754923555253495 0 1 0
190 1 11.569680498883347 13.68068230211542 25.86327360487863 0 0 0
1883 1 14.830114083622162 6.855304505300692 23.648489142479313 0 1 -1
54 1 0.2978897589537568 11.733651872394113 19.939739618088538 0 0 -1
170 1 2.2403183133826534 17.633394905241065 27.29596803960511 0 -1 -2
1700 1 11.56036880569961 24.40495563391991 24.600286549994177 1 0 0
1500 1 6.109569010983689 15.135008553729053 27.603058120673175 1 0 -2
587 1 9.123621011492434 17.093030484631413 27.032085123119664 0 0 0
1685 1 11.477702021503204 18.756955564656515 26.813539784941817 1 1 0
850 1 0.33580857956176746 4.9405751274389935 24.764164309552708 1 0 -1
825 1 12.901636960025668 16.155231040858755 24.908149718801713 0 0 0
384 1 0.5316116472276551 23.36359038436245 16.056452176867925 0 0 0
718 1 11.290609640176704 19.497923993157507 23.61520692634635 1 0 -1
940 1 15.00832907592136 18.270496883809187 25.702149658911818 0 0 0
1336 1 10.217846204966136 1.967979220831879 16.7839630024656 1 1 0
1330 1 12.64519504861272 23.753302663372374 22.07485094401568 0 0 0
1687 1 14.523191010942927 5.95331264962934 27.416833756007946 1 0 -1
334 1 14.709024549776624 4.0475262893430894 14.373335181434818 0 0 1
1168 1 16.282102374456734 13.312796409485879 14.104416557103468 0 1 -1
585 1 0.45086093876358474 20.881124419475626 14.510497934397673 0 0 0
629 1 14.260852833056505 18.18006298087915 14.329089281134483 0 0 1
229 1 6.926508547938337 24.388670292885678 14.074628501247387 0 0 0
248 1 10.777569462466134 21.365597664629444 27.81687093698366 0 0 0
1146 1 13.566322168978472 17.081705933378327 27.938320080953535 0 0 -1
691 1 1.632270312911274 10.087515312566047 13.98088007734363 0 0 1
2153 1 9.45345261470343 9.405612164204392 13.970146874489197 1 1 0
719 1 0.9333596218717229 31.85085429531157 8.217364343770095 0 -1 0
867 1 1.1710426137248153 25.271569143813856 5.503466141875995 0 -1 0
70 1 4.816291405969148 27.033521522454787 3.0771989218128026 0 -1 1
2095 1 9.037954923787607 27.042264274517873 0.9507302631723334 1 1 0
257 1 12.21383633652577 26.00938849986573 1.7447994525950863 0 0 2
1172 1 10.039030044350614 25.064948504246942 3.451164652065 0 0 0
1437 1 11.334007005627617 45.99290210159207 0.3216487971483109 0 0 1
381 1 2.563356265902332 28.467087970749667 1.5861324259197376 1 0 0
2188 1 8.572360968590118 29.346349478832824 3.9407787049076015 0 0 1
75 1 12.38279471240118 28.775405088098587 2.4658278008245476 0 0 0
1380 1 4.966904201892414 30.38808358720178 0.8710606146590879 1 0 0
497 1 13.702145385679112 36.11349390468823 13.86706595592869 0 0 0
312 1 1.1292849211908365 47.184053319080256 12.246513183039909 0 -1 1
1452 1 11.774182081337939 31.981841694444622 1.3696037869351938 1 0 0
1512 1 10.182741027537052 33.85980828267574 0.42876415844319593 1 -1 0
1247 1 0.9752003551743952 44.13582573079165 10.103737537866024 1 0 -1
97 1 13.855962777237968 33.10609881991514 3.2412445335150486 0 -1 0
2144 1 10.962886074224942 45.80523400061367 12.217939318158324 0 0 1
2129 1 15.74791357173308 36.28858943407078 7.4690879181916925 0 0 1
1355 1 0.9779315207480749 26.343931652426843 0.5978815311785589 1 0 1
748 1 14.778683799418847 35.370042103271885 1.8909818911609728 0 0 1
1129 1 3.087057557339198 37.810913142246186 0.9123574212244236 1 0 0
1286 1 16.13361735371301 38.15619247148129 5.400930729342605 0 0 1
630 1 16.073708306917123 46.99980870661861 3.2278815315567226 0 0 0
281 1 12.879475031585807 37.48817402811221 2.4078030633222665 0 -1 1
330 1 6.699603589797409 41.30215523726156 1.3747633346781862 0 -1 1
1583 1 1.7111938995369698 43.44787477949373 2.5877593346763135 1 0 1
1894 1 8.876692485003318 33.887879587285596 12.033324694061251 0 0 1
1159 1 11.949512623068623 42.32185249837465 2.682631280295549 1 0 0
382 1 7.902629760786958 48.39042986035576 10.016045516539277 0 0 -1
743 1 1.98810004902311 46.33034273862976 2.0680926993645152 1 -1 0
460 1 5.292912784861593 44.58065633779734 4.646528771194503 0 0 0
1126 1 7.0729885617457064 45.02565161028044 0.40300512325347204 1 0 0
1708 1 1.18197771473031 47.3131110239021 9.044666928781268 1 -1 0
2062 1 13.278213931804531 44.30838091099682 0.8114236137295789 0 0 0
2056 1 4.539615994116521 47.70661643748026 2.734409043612752 1 -1 2
1325 1 6.453737683774673 26.58599013149893 0.7751457919985232 0 0 2
29 1 9.332270280711919 47.525610570388025 1.40844637266732 0 -1 0
1048 1 5.2694101117329595 45.017300644697784 10.679885034313124 1 -1 -1
20 1 7.276504683909806 25.16848845438655 9.330407556170357 1 0 -1
1759 1 1.7063160694539745 27.977552045306876 5.941429724150947 1 0 1
484 1 15.132548068613108 45.20633808329414 10.362095998937816 0 0 -1
526 1 9.675747982622715 27.2660354827413 5.4939015128520845 0 0 0
1231 1 14.69773334865045 33.6111219865186 13.361675737488293 0 0 -1
2038 1 14.06515893246825 26.424488760316432 5.499226040057209 0 0 0
1152 1 1.3413673585027475 29.501960348649384 3.8420138727977307 1 0 0
988 1 4.533176363841378 27.331353186380735 6.154603169040215 0 0 1
470 1 5.9428882543804455 29.489869483991697 4.419185154640828 0 0 0
1711 1 12.09883693890783 28.99229399030582 5.228285039750311 1 0 1
932 1 15.09509555435658 28.944482163392557 1.4793733586382514 0 0 1
1747 1 2.3215317148267545 34.19257992014246 4.825131910483123 1 -1 1
1793 1 3.2114915139801172 31.56920780639484 4.513812861366204 1 0 0
631 1 5.459738072777058 31.926681786319833 3.00124581715846 0 0 -1
1188 1 7.403470869950082 34.11315637221356 4.632679141450426 0 0 0
582 1 9.135352794509023 31.083502102794064 6.373767580785313 0 0 0
193 1 9.872981045521918 34.786398765174056 3.257290044228666 0 -1 1
302 1 11.756669986455723 33.942492563893076 4.857884097048848 0 0 1
921 1 14.400079729671576 30.523654414458527 6.750139497538961 0 0 1
877 1 15.529784972295198 30.941956042893118 3.7962140946275564 0 0 0
1204 1 4.804058944877111 35.04014606114345 3.3387438749051745 1 0 0
837 1 0.18814225787679478 34.9044211726958 3.2267663769159225 0 -1 -1
1280 1 6.183363671628242 35.43635746427379 7.023839597664119 0 0 1
967 1 8.546448362636413 36.965338179750155 4.498968083657283 0 -1 0
2136 1 1.3447477394753335 37.85642203963825 2.7940401969629036 1 0 1
2081 1 4.625623638760591 39.72399118481169 2.304668375104064 0 1 1