LAMMPS data file via write_data, version 29 Oct 2020, timestep = 300623

2204 atoms
1 atom types

0.0 49.22 xlo xhi
0.0 49.019635930410494 ylo yhi
-0.0750639288835444 28.01506392888367 zlo zhi

Masses

1 18.015

Atoms # atomic

2196 1 13.350854524926966 10.158871410548322 13.470251756275708 1 0 0
1470 1 3.208088632121704 0.7987505196060448 1.4153271722630252 1 1 0
382 1 13.300517343830876 23.73966220373438 9.348853808956243 0 0 -1
172 1 10.171929842956624 0.38267256327180776 1.7572006508853666 0 0 1
1450 1 14.12673036392562 3.960747199062005 2.0663811084241264 1 0 1
1597 1 1.3763261962265938 4.849594897723817 2.0970315009520033 1 0 -1
1374 1 13.709221569935627 12.973611952899988 13.281468626113227 0 0 0
200 1 1.9351345457604476 7.024280275969947 0.2681415757001535 0 0 1
1454 1 6.042280812355681 4.78789698553206 2.561627755746859 1 0 0
836 1 10.744007389347177 6.756894237837946 0.8795462684124068 1 0 0
1604 1 11.230103681872881 3.9244030886641754 1.5092551236178704 1 0 0
1433 1 13.953448857289784 7.2326520589444065 0.9848382032265361 1 1 1
1759 1 2.5206476954304966 8.664114254929933 2.5678089659897627 1 0 1
596 1 8.51492094023888 10.760921472712344 2.591793962084285 0 0 0
290 1 2.7697316475697504 18.805537871022935 0.3899585238899253 0 0 0
662 1 11.76009709839758 9.525433877252206 1.334224157713639 0 1 1
175 1 13.92173281448178 0.7426646316117418 11.137109952164064 0 0 0
1068 1 3.384931477999348 10.268895693694667 0.5547665692289351 0 -1 1
1770 1 4.917333150111084 12.09272460235182 1.5840186593193222 1 0 1
2155 1 1.867334749944835 24.437014158708656 2.424925826255682 1 0 0
539 1 0.40778385164897596 16.843217299777088 3.408437881043474 0 1 1
1898 1 1.9187666886287211 14.21158833644234 3.1679847110593538 1 0 1
2003 1 14.052768707457892 14.147211017621695 0.2525273103161408 1 1 0
245 1 3.937902297268787 14.802467824549668 1.2901988892305805 0 0 1
1563 1 5.771393758062959 16.302432611134 2.7244537258654935 1 0 0
74 1 8.320605555294579 15.284944644168537 2.139388709748699 0 0 -1
1336 1 13.327159400801419 17.976744063529775 13.650431599012744 0 0 -1
271 1 8.757078333639694 12.849338577263872 0.5032690549999718 0 0 1
112 1 5.50829095108598 18.98994165688093 1.6469432000702906 -1 0 -1
1616 1 11.958020847509 17.70743468452137 3.274176449689252 1 0 0
105 1 15.60162349056738 16.64446293120888 1.3645112601189382 0 0 0
1300 1 15.866690344388882 13.22459463203853 11.597107331229717 0 1 0
1427 1 1.6630565131706425 19.58045841782114 2.955442811864375 0 0 1
316 1 15.388546559218964 11.946824537675154 8.99079411319433 0 0 -1
1663 1 8.381682083097079 20.775994073700303 3.7601613632090647 1 0 1
438 1 0.3793423593460314 22.18291844483192 1.2246341908216214 0 0 -1
1107 1 14.890852562558665 21.99787414914845 10.509011725763335 0 0 -1
1621 1 14.177277410037888 18.872213917924114 2.7571359797034196 0 0 0
394 1 16.150504185055873 16.101060861592522 12.043132728486087 0 1 0
1937 1 3.308466030040937 22.19520206004125 3.4392463130472515 1 0 0
497 1 0.4603781059767703 13.48603015230389 0.38878467261965427 0 0 -1
586 1 12.674967110457626 21.959961546620754 2.3484447683672287 -1 0 1
1351 1 3.6247182363768435 21.844248648684932 0.5967720773381056 0 0 0
785 1 7.363730195488212 22.217752827777826 11.986098709412994 0 -1 0
1807 1 3.5779634448123505 3.242583105372458 3.054261738412999 1 0 0
426 1 12.41946542855005 1.6599502169934526 0.1448595488434803 0 1 0
53 1 7.400124651804903 3.1675554049947166 4.422816520395959 0 0 0
1579 1 10.071693105629805 2.527344572368634 3.326615086961783 1 0 1
1856 1 11.018931582485548 2.0924951229992996 5.948912026507511 1 1 1
695 1 14.06950528463449 1.2817356224314533 2.9208161762024845 0 1 2
2019 1 13.55945195894549 2.372226005281469 5.6911817755906045 1 1 0
1719 1 8.621287131890401 7.922154893736407 2.662774503879311 1 0 0
1820 1 8.162396293315789 6.997363504831925 5.3398790992943574 1 0 1
56 1 13.889170067129122 5.06214515203949 6.131359529992652 0 0 1
262 1 10.260585175828954 5.310646178651233 13.805967120985773 0 0 1
1056 1 7.756536954677521 24.184094947014035 1.6154000646547904 0 0 1
1915 1 0.4532405700994963 7.731459826660726 5.193350847965055 0 1 0
2113 1 3.8162419369919998 6.441533126128562 3.7217540537207485 1 1 1
1384 1 5.196609678158533 8.914949229808567 4.890317896910158 1 0 0
1120 1 2.798927366055634 5.241760197906698 6.043765104177571 0 1 1
1594 1 10.88871615094697 7.281742369301314 5.554292717710412 1 0 0
491 1 11.20955130307125 11.010989874901366 3.690340002462084 0 1 0
1332 1 13.187063451137975 6.122795600996918 3.8242380687510598 0 1 -1
1641 1 10.668332801067557 9.69048087612183 13.253206537581253 0 0 0
1298 1 2.59430090332774 9.64237226183466 5.748331440145436 1 0 1
1929 1 7.533196495726166 12.061633523019385 4.7367102933399785 1 0 1
192 1 11.759523741028904 13.65877450412309 3.8036535851112108 0 0 0
1713 1 11.233247455105227 10.126420782093408 6.441937121245995 1 0 1
1919 1 9.532157200667282 0.4553947292660143 10.34540820962702 1 1 0
1635 1 3.474055069309978 14.1436166370111 5.153184186484043 1 0 0
453 1 4.982578871505658 11.81422789680773 4.251504831626784 0 0 0
1021 1 6.783606497196342 17.00895242896677 7.546949905191426 0 0 0
1990 1 9.031094983103571 14.38539008380547 4.528785912201774 1 1 1
311 1 12.860018009798226 15.711534662102993 4.972458284978984 0 0 2
1375 1 0.988832920854193 18.44996321831041 6.018508858339906 0 0 1
629 1 10.102629339091171 2.068322659594537 13.212300488551568 0 1 0
1517 1 3.6954585906364184 18.671622390796262 4.987411461146581 0 0 -1
353 1 4.600872965823536 19.07032850029348 8.998749305443642 0 0 0
1008 1 5.064102303383055 16.274012382351692 5.3076942800607645 0 0 0
1000 1 9.191642685393921 16.5005799480675 6.428860877554766 0 0 1
1325 1 9.821772298960864 19.113875870389307 5.111633134711259 0 0 -1
1828 1 1.0833771735262832 16.270259380408863 0.21037489469306875 1 0 1
2193 1 16.004401152202817 17.98772423955674 6.384885994651874 0 1 0
93 1 14.551827122434258 23.654685586172835 0.34652803653841313 0 0 0
532 1 5.55175731992603 20.567527200593897 4.0986953045233685 0 1 1
345 1 5.282995652903836 21.263043076303134 7.230925101208741 0 0 0
461 1 13.726675719133011 21.969070758798768 5.258463344122554 0 1 0
1317 1 15.693541661718822 19.955691554876918 4.626757072828253 0 0 0
207 1 14.230368600741397 1.6002955753259314 13.729011224419791 0 0 0
1618 1 6.09304127081726 23.909030278889578 3.7211786893907077 1 0 0
1952 1 15.409559590840823 11.9561484158877 0.6382810051371413 1 1 0
335 1 11.438538180915934 14.104380579616844 1.0703695743202084 1 0 0
1568 1 0.6964907877435975 11.860503353086706 4.101240502519467 1 1 -1
1806 1 15.675139598655369 16.042818265998708 4.230558106573263 0 0 0
1188 1 15.047651110247182 23.94087248096473 6.817019472401257 1 0 0
279 1 12.964594737469332 4.401557493962376 13.957542005899201 0 0 0
528 1 9.358281889656798 16.544625097888556 13.743197811454376 0 1 -1
195 1 7.922891643375065 4.646003993599394 6.819885385122397 0 0 0
788 1 14.436548745071939 0.548519183301139 7.586550115924957 0 0 1
309 1 15.450445572842941 2.7176757023792693 9.158360682956644 0 0 0
2129 1 1.4162388921018831 2.304728916844428 8.725559735003742 1 1 0
1978 1 3.8068027616549798 2.9266661319866905 7.293789140188146 1 1 0
628 1 10.279122980193188 4.051978510282637 8.040533024138211 0 1 2
1603 1 9.180904047613357 3.2594908146701225 10.390484563396113 1 0 0
993 1 14.569445423125185 5.278348112324179 9.562628243150444 0 0 0
511 1 5.482501077730168 4.858672724983562 13.267769340080928 0 0 -1
1736 1 3.5221106790857832 7.617075381321853 7.640304556155356 1 0 0
873 1 6.5214829953490145 8.883928327663401 7.158149810438361 1 0 1
2197 1 12.094731548985736 8.853075024827401 8.564430888287205 1 1 0
1591 1 12.059831112674559 6.036773909705751 8.14847541942147 1 0 0
85 1 10.972040958039328 19.899400029740914 0.7588941828843252 0 0 1
592 1 2.276892998104799 9.359104611675756 9.727960000678515 0 0 1
2163 1 8.386050652617318 10.891764462649805 6.832070034634214 1 0 0
921 1 14.95793450091179 9.222171433013338 8.851304305550114 0 0 0
154 1 15.177278797876959 8.11359795283322 5.281219800122881 0 0 0
1781 1 5.055959160907768 0.08010041901628209 8.287349672389825 1 0 0
999 1 2.0359353389804475 11.499047236273196 7.59229997624827 1 0 0
1861 1 3.3060369956919136 14.436768565578241 7.803935713078585 1 0 0
963 1 5.8605274974390715 14.779007416977977 8.949482601290939 0 0 1
1321 1 7.537990163129432 12.43684814072189 8.88123847237976 1 1 1
1718 1 9.643313552673785 14.74088043009055 9.088092016725476 1 0 0
1094 1 14.161073841218858 10.686737067972421 6.0297649303609715 0 1 1
1160 1 15.636410391387024 15.616828525341234 8.430799705269227 0 0 -1
380 1 2.660596134271783 17.316173745691568 7.828204916916237 0 1 0
361 1 7.093836179158807 18.436097741623545 10.346373694964187 0 0 0
644 1 8.725989423675731 20.683728771986804 9.906346380607431 0 1 1
230 1 12.022881153024393 15.722670403236128 7.610179205088154 0 0 -1
790 1 14.010270749891127 13.59841451056946 7.005474127284077 0 0 -1
660 1 13.497240138421033 17.0412173120309 9.565698191283895 0 1 0
2133 1 0.7669925721290406 17.42006969181401 9.792799168426653 1 1 1
1248 1 6.720813913159535 14.488279822581191 11.807567882328076 0 0 -1
229 1 3.020259607235761 22.771022740687265 6.387854123570667 0 -1 2
324 1 8.165180170674033 22.59499330167776 7.348513865146191 0 0 1
994 1 11.735696191467294 20.418732035727505 6.7800712254958615 1 0 1
40 1 14.143672594488972 19.362203346787304 8.011169249055381 0 0 0
518 1 14.382707226133952 20.38754647891572 0.5237475565793784 0 1 0
288 1 0.7538866091482643 23.607263309451113 8.240904806173317 0 0 1
59 1 4.527125852523046 22.55601308161948 9.61736172796884 0 0 0
1737 1 6.836192827164565 24.101137602484517 9.857496026935705 1 -1 1
2048 1 11.209521977178726 22.996628939465644 7.388746274532936 1 0 0
1119 1 5.468244962406668 1.1417620219162603 10.851680721454052 1 1 -1
1501 1 13.712324615786034 19.83092210586525 11.037798553462707 1 0 0
1617 1 1.6308923007430285 23.085939678549135 10.982920545642797 1 0 0
140 1 6.502206068097746 7.169211812912926 0.8225889067174315 0 0 0
73 1 4.740299911231183 15.661923352520486 13.289512038659367 0 0 -1
928 1 3.433207727231486 20.173731049999148 11.383932207783904 0 0 0
1941 1 11.099020640895848 20.963307800914237 11.636255758071655 1 0 -1
1416 1 3.465307306038023 3.030028055459348 13.805452611484721 0 1 0
1794 1 5.71866361333667 4.383485451982953 8.409575434795645 0 0 0
830 1 9.883920555429093 23.55329354712157 12.818541925416008 1 0 0
1904 1 5.130091084960691 6.934505936689711 9.849033186832873 1 1 0
1680 1 6.540965214112251 3.7477955063431145 10.68566302218193 0 1 0
1361 1 0.030729550063137122 1.0036977952564263 0.9809698606235641 0 1 1
1673 1 13.655129816350781 6.2418076053745475 11.838563266755985 1 0 0
291 1 3.623858442074491 5.833626842987171 11.925866366479433 0 0 1
1619 1 7.157221906187264 8.37085181200279 10.925841393207312 0 0 0
913 1 6.4670740939019815 7.307130220037459 13.464895142942252 1 0 1
420 1 10.005693937839846 8.395983945782879 10.590851985728033 0 0 0
1860 1 10.673258362841407 5.794001984039214 11.065257007377822 1 1 0
390 1 14.963698844347745 8.686994359258495 11.724697429576874 0 1 1
498 1 3.2699553235979892 11.248211432519287 11.669804051805436 1 1 1
1542 1 6.102402057092123 10.947678194677628 10.775674494180317 1 0 0
583 1 15.455447118062045 11.089790344956326 3.619514965151532 0 1 1
1421 1 1.84956131396226 13.15255354854973 10.135389940980074 0 0 1
919 1 15.927433418543055 8.324426168867369 2.536230339026396 0 0 1
698 1 6.536374688996983 11.889767951064432 13.18968928224794 0 0 0
1123 1 3.8451478872053175 0.3933773278891863 13.139349665938619 0 0 -1
1182 1 15.64594171774421 22.779288203459142 13.161846796262424 0 0 0
1725 1 2.0489591750573823 15.456806012725352 11.53601173108096 1 0 -1
455 1 5.2218244143397055 18.436537803415437 12.999819493927273 0 1 -1
1131 1 8.631245833040836 16.40595618878932 11.050553829968479 0 0 -1
1665 1 8.187037780485648 20.081999104575715 0.9832260763700135 1 0 1
641 1 13.28816837064185 15.477948718433604 11.909726747344488 0 0 0
1067 1 0.6868467488107735 20.155465462459674 11.575722821603922 0 0 1
1156 1 6.505653972561361 0.7533305512024954 5.224327276815778 0 1 1
801 1 3.634127124564674 24.097205440372242 13.285476766917938 0 0 1
1646 1 16.072797726351983 5.06976360335215 13.116631300728741 1 0 -1
1871 1 3.704396034680946 1.4328132242242735 4.935244269904613 1 1 0
902 1 1.7560054291545664 3.8196256618950373 11.020614269171856 1 0 0
1257 1 5.554891661250984 21.957493107765572 13.920658654094558 1 1 0
28 1 10.516176911361613 16.613879534525395 1.0051938431482401 0 0 0
1707 1 6.540827587380303 22.091270316222154 0.22045200145524513 1 0 1
601 1 10.462313340974488 24.160750602437837 2.2112314237168333 0 0 1
1215 1 16.31671464149647 18.977492923643926 12.848079777391217 0 0 0
1483 1 16.309571636049895 21.101694784686643 8.459952561220465 0 0 0
1142 1 16.334417912025646 13.670517830191521 5.080310142233907 0 1 1
1318 1 0.03022361765300019 8.047498573689762 9.509269804995169 1 0 0
701 1 2.0104934763708093 11.110808195215744 13.94760841424839 0 0 0
141 1 0.12185032640861254 3.0371718098855567 16.23397525845182 0 0 -1
1766 1 10.904911344228184 14.449428593846497 14.053366969852336 0 0 0
1741 1 6.001531772979595 2.8346288738690135 19.401966596178358 1 0 0
1874 1 15.60405718995013 20.858960339521264 15.201232276848293 1 0 0
1852 1 2.897392288543693 3.584829315449771 16.31400636553522 1 1 0
242 1 6.365833483518231 3.534343794183186 16.330610994465463 0 0 0
1960 1 8.913281668102572 7.550195338725052 14.834288963183658 1 1 0
250 1 6.942175150033141 0.6846188078249974 20.847120708466118 0 0 1
1456 1 2.9884483144425276 23.902984681271853 21.478924423824605 1 0 0
2005 1 14.072538883153065 9.824092451653277 27.80836665263644 1 1 0
823 1 5.918230513336299 4.089923731283473 27.76680174256451 0 0 -1
1967 1 3.621803994735435 6.232221299772885 16.74779173357288 0 1 0
135 1 0.6270882247104034 11.420170827106496 17.509659061347527 0 0 -1
2008 1 6.647228008342735 9.312761373211679 16.50259331267825 1 0 -1
202 1 14.69681196251266 5.718583558340335 21.090010368576348 0 0 0
2004 1 16.064947375148325 13.201271801747275 15.154962523859323 0 0 0
1654 1 9.99804492327415 8.050702847127997 17.373438022140345 0 0 0
1296 1 12.691128730953366 7.281689327280054 17.33798122242122 0 0 0
1812 1 4.858997788683391 9.60305638185839 14.295373331146118 1 1 1
2145 1 15.3119818783319 5.422684666404192 27.21247551711403 1 1 0
1784 1 7.063169478068954 21.730872790939628 22.572434466237794 1 0 1
356 1 8.370434474436777 11.454957596184675 16.44393830714812 0 0 1
1138 1 12.41121405957667 1.3677923357852124 21.6151526037514 0 1 -1
460 1 14.307184664547997 9.183260152885138 15.922395758462025 0 1 0
247 1 5.572356793617485 23.009015345712783 25.448846219309676 0 0 0
21 1 1.9626783406267931 14.910150726041591 15.948754048258872 0 0 0
792 1 8.133241675439006 0.9012638873530605 27.96480399580245 0 1 -1
1260 1 4.200250864032628 13.046057586419465 14.678002346156932 1 1 0
161 1 8.455226289919214 0.0380480979853246 14.530839926537597 0 0 0
1985 1 5.229922223795723 15.847564284266891 19.19666290367798 1 1 -1
145 1 7.645206522846794 13.818028120223644 17.539292912489092 0 0 0
756 1 11.776414378464974 14.524390237285944 16.70501079411018 1 0 0
13 1 0.6716139298582087 7.1471818535094815 19.80311448028729 0 0 0
865 1 1.2654287957496513 17.80806700227671 15.883656867007744 1 0 0
2085 1 6.083307553790244 17.193835578446667 16.88629238968982 1 1 0
1079 1 7.10759937443957 15.29286220799453 15.1935315011664 0 0 -1
1780 1 6.208173986604454 0.07594749744494644 25.262307075716784 1 0 0
855 1 12.277053272786281 7.032247574352488 26.2415971408541 0 0 -1
223 1 2.8349954600263083 20.170148524482734 15.968651121154613 1 0 0
79 1 8.828355510244558 0.39434009779931345 18.733949385390755 0 0 0
651 1 8.532380461267184 19.972113274243338 16.08753321246877 0 0 1
605 1 0.12726953729096677 0.21342908795370372 16.45161391704703 0 1 0
326 1 1.536808275889326 11.417141339620976 26.89520344524127 0 0 -1
909 1 0.8038317835709435 23.58836857787003 16.346775450693823 1 0 1
1025 1 4.186642766741358 6.4468062672851065 26.90815777867629 0 0 0
447 1 7.931607199462998 22.794253850809017 16.583937827679815 0 0 0
1032 1 10.054876461642367 24.08114169068871 15.669793947299752 0 0 0
434 1 12.115342322991655 22.75054984119561 17.02991739051787 0 0 -1
27 1 15.884331756156609 19.900221613102037 23.0539768425315 0 0 -1
359 1 1.943403247746221 2.031813515261988 19.91771174723815 0 1 -1
1835 1 3.925565957360492 1.5943549296159651 17.72241474838782 1 0 0
2119 1 8.979479992057973 4.004135590326319 15.549004935040735 1 1 0
1281 1 8.78246646222965 4.3108267745591045 19.903262100216118 1 1 1
760 1 10.490578033721647 2.0325316780774623 17.447993478653554 0 0 -1
228 1 13.6498621425359 2.31682402552415 17.86388972975136 0 0 1
34 1 10.775548109785126 19.382113788216554 14.11672440227885 0 0 0
1538 1 6.682267346994716 6.113485606452479 19.905489685647584 1 0 -1
87 1 6.371203547865845 6.570577914962986 17.10258474286473 0 0 -1
1805 1 10.684875394199167 5.016058228095102 18.13208527744001 1 0 1
827 1 13.582595395413207 4.635759929912411 16.649152507475698 0 0 -1
1831 1 13.449682135727823 7.826421867796179 19.991402207171852 1 0 0
2009 1 5.914841352830563 24.31200404093659 22.314837835897734 1 0 -1
2151 1 3.330955701397924 6.738659478597098 19.59713320587707 1 1 0
1795 1 4.167938281195059 8.938548483376332 20.68936929832854 1 -1 -1
329 1 8.8328196533674 7.73307239425054 19.736958712926587 0 0 0
673 1 6.535728054997564 10.245588814912054 24.326051083686608 0 1 0
891 1 10.412022436281315 10.618764687230357 18.24841040472333 1 0 0
1346 1 5.340368571450253 10.449685811319837 18.652297762556845 1 1 1
343 1 3.5133503280813776 12.134081523564005 17.14703615900582 0 0 0
150 1 7.930239426253206 10.647959124276518 20.28022960835779 0 0 0
1097 1 13.090176330936607 13.757317182371771 19.701101770577854 0 1 -1
1446 1 12.580023555308403 11.905768447577982 17.405861928778034 1 0 0
1842 1 15.508223702266097 11.47838809268837 17.747782994592267 0 0 -1
1543 1 1.320361587165405 14.866754676830015 21.191929779813446 1 0 0
802 1 1.6607792762564375 22.066848958209498 14.16170350733705 0 0 0
408 1 2.688909666467762 14.395393094004412 18.688880704002575 0 1 0
305 1 8.445212216710647 14.413514085717662 21.994326758337618 0 0 1
1891 1 9.756907446399937 15.50936662840012 18.31102995979685 1 0 0
1825 1 16.214071641771685 14.091563975835884 18.5171676992989 1 0 0
2015 1 8.659637097099598 18.259923975455713 18.133839828732146 1 0 -1
197 1 11.38905038181774 19.221452264452406 18.297732612153197 0 0 1
1792 1 13.683180639045 16.309071633154023 16.000389066783068 1 0 0
1125 1 14.693387251103376 15.974150768878221 20.69815559457588 0 0 -1
600 1 2.544055392499388 21.000454220823013 18.725924044677534 0 0 1
775 1 0.14167829398619897 20.50389577785261 19.998303095634206 0 0 0
1682 1 4.684985034060904 20.160845634934102 20.584943285860124 1 0 0
2080 1 7.600404241309646 20.231024519747443 20.04683039421464 1 0 0
1678 1 12.175926171714984 17.942671445463905 20.857912403435524 0 0 0
748 1 12.092442042357561 21.54856822273201 19.597956545212533 0 0 -1
1625 1 14.018963247738009 18.256835702031747 18.122650722626922 1 0 0
226 1 2.842419605732191 23.760464801184728 18.545603945720515 0 -1 1
410 1 11.798783983644459 1.2167667306810708 15.127017093641937 0 1 1
415 1 8.249190321186811 22.742897559682298 19.397947431001192 0 0 -2
1701 1 10.187776776230429 9.76437938389904 27.11666768149435 1 0 -1
1133 1 12.65447228453825 19.979557109826587 15.960670653532825 0 0 0
763 1 4.348182498079807 3.759271242480889 23.038827368377547 0 0 -1
918 1 6.759367811118329 2.3319120550982317 23.43717553390282 1 0 1
880 1 12.26255893986641 4.417358583507393 23.20163054978675 0 0 -1
1534 1 3.883779784502502 4.163805378867923 20.517625062554544 1 0 0
1697 1 9.353777270136355 3.387053002465975 22.585281885310202 1 0 0
1469 1 12.662705833913652 3.9190618011807143 20.136634568306807 1 0 -2
15 1 10.2675030704193 4.9784701163220895 25.23695070217795 0 0 0
1892 1 14.314677019696761 6.197668704061678 24.295945038793395 1 1 -1
1689 1 13.905027028227597 22.21145167612976 25.926289407353163 0 0 0
1539 1 2.038774252356071 9.845809871674785 22.393333307150115 1 0 0
89 1 6.626057623277175 8.397358568530414 22.22214534850403 0 0 -1
2046 1 2.7833001680144736 8.468221288173646 24.64385129911923 1 0 0
1771 1 10.732355962270102 6.451581936839485 21.21799805514584 1 0 0
1465 1 11.279654244496529 9.676958183850841 21.480962871425785 1 0 -1
637 1 15.275686460562678 10.132118404632623 20.265362137973174 0 0 0
1687 1 2.576433700982407 12.576168081360018 22.646283345793407 1 0 0
1691 1 13.41101701260098 11.482751359143734 21.35805745807122 1 0 0
2127 1 6.5208584430408685 13.177569554084593 20.12871808198111 1 1 -1
962 1 5.441798480075554 12.2745281353473 22.92561296822354 1 0 0
871 1 9.697541408535374 12.05976146444286 22.043952276652842 0 0 0
1444 1 9.77853335018487 16.254409831655018 24.766184319180713 0 0 0
905 1 14.29804316468202 12.370782597956556 23.668761179866316 0 0 -1
269 1 9.722649593019646 13.643857821654008 26.055769448927713 0 0 0
1986 1 0.3728806726316408 22.997098183461127 25.47220878539245 0 0 -1
1010 1 7.177904635703049 17.067010504094434 22.970701907887655 1 0 1
392 1 5.043643805747077 17.456544351692916 21.2725866792407 0 1 0
807 1 3.6273472319958002 17.056888020061546 24.991139751416288 0 0 -1
1016 1 8.947836022912755 18.67822099002318 21.93085263479232 1 0 0
684 1 10.974888407203524 15.155017359394645 20.92991781892487 0 0 0
885 1 14.846210003075528 15.195389810542029 23.26792036164112 0 0 -1
666 1 2.875638139396863 19.907393040264207 25.31304385134051 0 0 1
376 1 4.19404868203918 21.491557739759603 23.192825853568714 0 0 -1
331 1 10.146377681346912 19.89494039581054 24.324386742384174 0 0 -1
501 1 13.242380188232437 19.250747485875966 23.132938734439495 0 0 -1
358 1 14.056014086617651 22.108461783402866 21.154915034369004 0 0 -1
44 1 1.2742170570917213 19.56389262964486 22.657132614624718 0 0 -1
1083 1 1.0074883680434925 22.41962094185896 22.775790521458248 0 0 -1
774 1 12.40857643796108 19.66178907659632 26.213147024026043 0 0 -1
1393 1 9.563540332812828 23.302052595776274 23.386199173057975 0 1 1
60 1 10.38555011716906 23.393258839992615 20.791237263760348 0 0 0
914 1 12.11068832318856 22.096566325623915 23.500201196821553 1 0 0
315 1 2.857606292671656 1.8963233833626425 24.91300751408904 0 0 -1
789 1 4.556007629738877 1.4885974237594872 26.873430301334565 1 0 -1
1525 1 10.975413689729127 2.1591761555707945 25.921715568344062 1 0 -1
171 1 13.25609879660261 2.1294820176645994 24.526588351938376 0 0 -1
949 1 14.772497771492116 2.5975927986531353 26.89848628197389 0 0 0
1970 1 7.8138215626222784 21.203638757215305 25.470478525172812 1 0 -1
1912 1 0.9546347400974129 3.730009028790591 25.778568675410558 1 1 -1
1212 1 5.1464024275956355 6.356659463121566 24.07041683280199 0 0 0
1864 1 2.6259432804332534 17.04517204858406 22.433263320755763 1 0 0
1923 1 7.221152019733322 4.910519712667169 24.922923903888975 1 1 -1
2172 1 0.09331523496090449 8.411808878700223 26.69810103082419 1 1 0
2010 1 10.13410872639702 0.6165468248851579 22.628311994281397 1 1 0
299 1 2.5986992297905105 7.426803079038497 14.328208224218502 0 0 1
553 1 0.7756494189290133 6.3476239682696045 24.67663216323987 0 1 -1
1693 1 5.058737184050449 9.102320869351926 26.54607295455638 1 0 0
244 1 8.927443568703755 6.944217336209993 23.250105328303107 0 0 1
1070 1 8.641885173664134 7.336880267928619 27.122178281526068 1 0 -1
1962 1 10.599927262819566 8.789585002381752 24.273321151558658 1 1 -1
875 1 5.442023149277634 19.63055782605946 15.355488784035739 1 0 0
611 1 13.690738906152294 8.997246038658737 23.54760034159829 0 1 0
1015 1 2.922151649824671 23.587307237598534 26.416150324305153 0 0 -1
693 1 6.212583447750925 11.906112079285222 27.142569565409232 0 1 0
820 1 9.02946548740752 11.148409343142315 24.50995560513724 0 0 -1
409 1 8.864043824038811 3.9067018974350827 27.57035591301047 0 1 0
1003 1 12.59455347389337 10.760342478830127 25.75074088953848 0 0 0
723 1 6.909707829774003 0.47778791204782267 16.516767205665236 0 0 0
1811 1 2.4784926486191425 13.3739873242646 25.26894966896254 1 0 0
1480 1 4.685592641067415 14.281831590850473 26.468287259637776 0 0 -1
864 1 6.735611937218724 14.232348033984335 24.7578627848273 0 0 -1
1798 1 16.341787895780605 19.829435907482797 17.898335211235104 0 0 0
323 1 12.656574676348557 13.71555823554981 25.741913266463765 0 0 -1
883 1 0.4875861655175926 16.195072644800867 25.386721223484262 0 0 -1
1417 1 2.1385391026348355 0.7398812350626933 22.47864761618493 1 1 0
1378 1 6.465737596948678 17.083039766962152 25.815228913335073 0 0 0
451 1 16.19882249306228 0.26717761971609716 27.491080999340852 0 1 -2
844 1 9.068927485923716 18.05632137312615 26.764312222971178 0 0 -1
1499 1 15.654486038684375 8.068340317239409 26.189159470708223 0 0 0
549 1 5.459711921004745 19.370218977869566 26.961830090645524 0 0 0
1620 1 14.64210810823511 18.001151957536862 26.913950943476998 1 0 0
1588 1 13.042854615521811 16.575872566255217 24.81991204966635 1 0 -1
129 1 10.169104873731374 22.0253054532284 27.068476511920938 0 0 0
1751 1 0.7745982088666855 20.509224051366076 27.112629134304598 1 0 -1
273 1 16.37000333945256 4.836147845666988 16.23595698396214 0 0 0
1946 1 16.039933935459832 24.452763555613366 18.571131485512748 0 0 0
1816 1 9.281861157772314 12.232245850687866 14.004999361393546 1 0 0
1419 1 2.4045728324437685 28.68658434529072 2.0558547004709484 0 0 1
381 1 11.73346190849515 47.900704449314404 12.025588349560527 0 0 0
61 1 8.042686745842206 27.239748823173432 1.7565583075129176 0 0 0
890 1 11.498339337830764 26.072710954368738 0.3191028166128338 1 -1 0
155 1 0.024768868912455683 25.85295430597187 4.280735444064534 0 -1 0
1431 1 4.905859077717407 29.24092370513153 0.47706429160624575 0 0 0
78 1 6.37513309226908 28.418571776866425 3.6503460619037997 0 0 -1
667 1 11.028226405865848 24.726356572047834 5.040300209846193 0 0 1
1858 1 15.194529270657005 31.304043552820573 2.2946483474258197 1 0 0
272 1 0.257945603330636 45.41818324705477 6.926577487510188 1 -1 1
2082 1 3.622939359549866 32.64938271229754 3.2611051106335713 1 0 1
668 1 0.13855126956738292 27.017387235879454 1.694026887486162 0 0 1
1115 1 5.697478139402279 31.11915812446251 2.807448093901036 0 0 0
1838 1 1.7037748833610975 26.113205870207906 10.891048248129911 1 0 1
1936 1 7.702194780867707 31.702948794591123 0.7732131330917331 0 0 0
1789 1 12.77013871722398 32.48969107246943 2.1986486554840416 1 -1 1
365 1 9.31378570825848 29.71753074519973 1.942025471801165 0 0 1
719 1 7.295532990769454 44.96821122677208 10.555108697574779 0 -1 0
2087 1 2.6169392127820075 35.23574712533628 2.6535503688462994 1 0 0
1799 1 14.13005237854669 25.76741436522227 5.015357336067128 0 -1 0
265 1 6.218517030489736 35.75850079725469 0.5867303885318981 0 -1 1
2059 1 13.651344272512224 38.863659193042814 13.488188490340079 1 0 0
1435 1 8.70978945071264 34.41637418097476 1.2452342774987666 0 0 0
389 1 7.845436550752184 24.899236595661968 5.814946554652807 0 0 0
1388 1 14.850121099554189 36.91027132171466 0.825748250652952 0 0 1
779 1 0.03611081763007588 44.63444953678711 10.924149817379037 0 -1 0
99 1 3.4145051858221347 39.667864099046156 1.3362766745634531 0 -1 0
163 1 1.4969908953357831 38.880073319715024 5.742439721348232 1 -1 0
1155 1 16.09547745459982 41.34398908396138 6.831301607201269 0 0 1
1187 1 4.490697387156769 37.376204724265754 2.4823462087824812 1 0 0
2014 1 0.22980482090814658 32.2341297159907 9.35886845825519 1 0 0
1440 1 8.372424844313732 38.10915705060141 0.9839255514384716 0 0 0
1910 1 7.696606627031813 48.67187108722391 7.941947461592263 0 0 1
224 1 3.0138759783565208 42.10114234718624 2.4504364882380423 0 -1 2
2158 1 8.478534835022117 43.72837562797236 3.7930134159885585 1 0 1
1285 1 9.31498491679458 39.90811434102603 11.714466103841458 0 0 0
128 1 8.489882409479497 40.94529327673239 2.390539891452066 0 -1 1
809 1 10.690500804861564 41.76102369767473 0.6835875837146934 1 -1 0
1764 1 14.123479237379703 40.93100262725604 3.280078678216397 1 -1 1
647 1 13.384271739117692 41.391291463708114 0.35298169076110175 0 0 1
2077 1 0.6778862729261166 38.9845216672811 0.9090871605870539 1 0 1
1886 1 15.849472981936984 45.37356757008129 12.31104053843137 0 0 0
2203 1 13.955609229777485 45.020330680478196 2.001138763137404 0 0 1
2091 1 11.293074711712785 44.248025535090036 2.6418025552464317 1 0 1
1897 1 3.029973513812148 47.858240087121054 3.462777174089854 1 0 0
579 1 2.7747160601561554 44.422931357075015 0.6659666949164255 0 0 1
1869 1 5.7656989657769575 48.58605876618274 0.9106467786907673 1 0 0
685 1 2.1850331925399673 34.246946462350735 13.883581602340374 0 0 0
1667 1 16.099810161751513 28.250083562925578 2.238081580380667 0 0 1
1236 1 9.647763381904568 44.90952593940966 0.5304551668676053 1 0 1
493 1 1.7012970064401205 27.251600214130683 5.928925603201605 1 0 1
951 1 4.207372580434831 26.892082574477854 3.383535742594937 1 0 0
1066 1 4.917619469103306 28.529773198082662 6.312058381667969 0 0 1
888 1 10.33319098181054 35.24933714638954 12.965953872280043 0 -1 0
1145 1 12.661212602404287 45.619956847282644 9.129867503138243 0 -1 0
88 1 15.900666305458998 25.437800319250073 2.466717506771894 0 0 1
1084 1 12.826813429135896 27.33324097269051 6.8418975114555876 0 0 1
2044 1 6.949022187599494 35.67810141389637 12.3582309270795 1 0 0
2184 1 1.3975389284309454 30.110839144545 6.175527031957036 1 0 1
17 1 8.78718361575276 29.196509265235257 4.859931255300486 0 0 0
456 1 10.092687047241462 27.11881169820582 6.312676944188608 0 1 1
1117 1 15.514907118942295 30.47323758483029 4.767856608304412 0 0 0
485 1 8.009690594674764 31.603297102406312 6.4675087701611265 0 0 1
10 1 7.570831479271491 33.42808716350689 3.93292692757251 0 -1 1
6 1 10.114760755438752 33.79171222106272 5.1979381991814755 0 -1 0
152 1 10.967423625034721 31.38084745060571 4.147696091362783 0 -1 0
1391 1 5.085297194349797 32.73779496665484 5.79215585881409 0 0 -1