LAMMPS data file via write_data, version 29 Oct 2020, timestep = 300623

2204 atoms
1 atom types

0.0 49.22 xlo xhi
0.0 49.019635930410494 ylo yhi
-0.09600958778030311 28.036009587781137 zlo zhi

Masses

1 18.015

Atoms # atomic

2072 1 2.6695354980263812 1.8776011273714268 5.937876069118969 0 1 1
828 1 7.970245006405224 1.954292343659731 0.21247209263663755 0 0 0
1250 1 12.855669017113891 3.053589192594897 0.5869926733295557 0 1 1
1414 1 10.126298473311106 0.3067073671686152 11.679888866202266 0 1 0
286 1 16.169869296051623 10.60297697298303 6.16333405022967 0 0 1
1487 1 4.519820617556857 3.779407860155146 0.6839425460866926 1 0 0
1231 1 1.4689001977461267 4.530141607818991 1.4899396052522822 0 1 1
347 1 6.279230809852915 5.951452513204443 0.13103309113364153 0 0 1
1298 1 7.883038808029432 4.192587070645035 1.995069812387273 0 2 0
936 1 13.856087958488963 24.319477742317392 8.45717110927451 0 0 1
1780 1 0.5149150952667189 1.008672658399143 9.260238869445605 1 0 1
155 1 9.61381487018981 6.8847604637083695 2.126298789598423 0 0 0
1270 1 12.123220089187932 7.84987416980306 3.1238771512683208 0 0 1
897 1 0.1762457855421644 15.156229003895438 6.976947371174201 0 0 1
1712 1 14.248049446805586 8.325732895980686 0.866570182540745 1 0 0
532 1 5.150486754671416 9.567908654170829 2.2917784792219362 0 1 1
515 1 7.672545104364898 8.722678421285478 2.9612479549361574 0 1 0
264 1 8.383238683166896 10.594842379906373 0.8359166514782603 0 0 2
232 1 10.856209576700154 12.114653531398051 1.3138269025559226 0 0 0
1941 1 1.2994577370072318 14.657263585722896 1.461177536187086 1 1 1
575 1 15.84291020712007 20.728977128446594 7.80308464118064 0 1 0
304 1 4.629244319436445 12.316687516433774 2.244505848911182 0 0 1
279 1 6.244520007059715 14.781974010880699 1.3812201709223675 0 0 1
140 1 11.070594561306164 14.868485906412763 1.0509705969329308 0 0 -1
2129 1 15.181672994355138 14.938235654198136 1.3087288540472264 1 0 2
537 1 0.9409760915113455 0.4242876501494644 12.238602202735963 0 1 0
313 1 2.5315304205316784 16.200484648728523 3.9316234224149254 0 0 0
1177 1 8.730507947956673 15.860006346113064 1.996774500169717 1 0 0
2025 1 13.193835952684925 16.875963943162233 1.0953457708195453 1 0 1
2027 1 6.6101320938536015 8.752613096073613 13.056933797374036 1 0 0
1969 1 0.7617426891872395 19.540819666878217 1.4950008921825535 1 0 1
1245 1 3.010582822535077 20.965872296283944 2.18219254214804 0 0 0
430 1 14.475844656918992 21.08926478140467 2.197982729926689 0 1 0
1701 1 0.875409764505959 23.063866323114482 0.2900341560834747 1 0 1
689 1 6.1345482979277985 21.36311320641129 2.905101303473841 0 0 1
953 1 9.862400285249512 21.190159475721114 0.9662852822394872 0 0 1
270 1 10.593220345398542 22.392450872699442 3.5557481622394724 0 0 0
177 1 14.047829391514796 19.52067586827082 13.46963922244183 0 0 0
862 1 13.39250192751458 22.9947904569734 3.460156077925955 0 0 0
1768 1 0.3446800189614194 1.2802030119325116 4.7530100952071255 1 0 1
672 1 5.319505374461539 0.4339430083771931 4.88242537583305 0 1 0
361 1 6.095150273193498 2.8510178844128307 5.463403289729212 0 0 0
2009 1 12.029595093198463 2.988013526969327 3.2104648182747253 1 1 1
557 1 5.544389845969603 17.15366006268314 0.5530907471089671 0 1 1
2135 1 3.7613065723511165 0.9526607019504644 2.2290600117113035 1 1 0
1502 1 5.339022064816053 4.763048175966134 3.3387981004725367 1 0 0
2166 1 8.886380790466102 2.9324243515934625 5.931550574813115 1 1 1
1299 1 10.103585024908234 4.619186081201231 3.904725561275052 0 1 0
1377 1 14.375761153209853 4.079064626694003 4.3291450544847825 0 1 0
196 1 2.5271680520114947 4.8363857113469235 4.597554343884983 0 0 1
4 1 6.2437690434159165 7.038832560947669 4.761801490969773 0 0 0
2088 1 8.252625253049395 6.85072569661096 7.122613694678223 0 1 1
1326 1 10.930678009745316 6.600084114128544 5.619056164185123 1 1 0
638 1 14.529110403288943 6.755868987018039 4.338203855123976 0 0 2
245 1 14.486564451208926 8.466952782096527 6.812522073025112 0 0 0
1659 1 2.0500510964678686 9.940476687789342 2.476451998386066 1 0 1
500 1 4.113068455304904 8.896485675871082 4.875494049191252 0 1 1
335 1 4.029491622646296 8.981955151559363 7.8839620508955175 0 0 0
2136 1 8.098540506025548 10.714531111654441 4.99594803048843 1 0 1
1015 1 10.351709882709072 11.315689331076936 5.872588134515177 0 0 1
1824 1 11.673050948354717 10.443744984590849 3.572694127237023 1 0 0
956 1 14.613250841386229 11.000669000107948 3.990820729825522 0 0 1
2152 1 6.27448293119174 21.499767414497242 12.622032434965897 1 0 1
1908 1 2.391754259124749 11.556685347743297 5.060031904544802 1 0 1
804 1 4.128043493580373 13.893929035161666 4.722346167727491 1 0 0
1745 1 6.949707708904207 13.343575026506457 4.472795193544039 1 0 0
373 1 10.83956388575445 13.99948821214186 6.058765965779311 0 0 0
129 1 13.789508312834428 14.632869632284063 6.128786675575854 0 0 1
350 1 15.238152331419316 13.71032787445914 3.995254603169686 0 0 1
1215 1 7.115660019059001 20.68002665235677 0.2437927633097738 0 0 0
1637 1 8.862229643628522 22.411719952320563 11.551160834380077 1 0 0
2139 1 0.9869683035094688 17.893624516325875 5.686298143066555 1 0 2
659 1 8.84526723595841 17.804278961220167 3.8801480833472963 0 1 0
1333 1 8.27558766606816 15.385998121411085 5.5031410970077905 0 0 1
514 1 14.23570149546315 17.243047773493934 5.3718092817080425 0 0 0
1316 1 3.2929753060179596 18.75647393870276 13.484663816613509 1 0 2
51 1 3.8672342694383195 18.215126960052906 2.6054825481460253 0 0 0
1887 1 3.401083700312354 21.618815655538054 6.07935224220616 1 0 1
1310 1 6.274760451214836 18.463680602431154 4.440063587334913 0 1 1
1374 1 10.963898420993026 19.595701723012194 3.904546441489357 1 0 1
55 1 13.317759012546526 18.71492549222281 3.2736279888427333 0 0 0
1923 1 2.511166682595522 23.3419226034353 3.691260913018221 1 0 0
1978 1 0.5189827644063891 13.532634737954288 4.539241222354894 0 1 0
2059 1 7.167500221576599 0.23025346599426685 2.5304859620739313 0 1 1
771 1 6.181359128413077 20.779307557854573 5.823414933630137 0 -1 1
535 1 8.678701026541747 22.59428164374432 5.942077252014498 0 0 1
358 1 14.61006236875296 23.831397302039413 5.890334431571143 0 0 0
2172 1 7.323326326422464 2.0907322850585865 12.333037498803007 0 1 -1
365 1 9.329390467925695 3.273230832908277 10.691053100864371 0 1 0
692 1 10.712941392800584 3.0697918984239405 8.352287398668402 0 0 1
1368 1 9.722269881600225 0.3056866232212847 6.1043943836576675 0 1 1
753 1 12.075673656928142 0.21446722521556552 4.3396971025407485 0 1 1
105 1 14.432468160802772 3.1590903372663868 7.075629923609824 0 0 0
583 1 3.90158574116802 6.013629310746313 6.901311646573913 0 1 1
210 1 5.670480313365241 0.9262888191739388 8.713556886100683 0 0 0
571 1 5.333278643274325 3.528537934035141 8.147316855035726 0 1 1
494 1 7.530640526472687 4.856442020093121 9.036841655691713 0 0 0
384 1 12.463711207864327 5.005999432998092 7.391217623017822 0 1 0
285 1 14.642800287690939 2.501727437849731 10.015485817747363 0 0 1
1732 1 1.4819441937227888 7.5404441228019135 4.163666745869554 1 0 1
69 1 4.017699918701747 7.082379403963178 10.196633460104293 0 0 0
916 1 12.006501531287476 6.642188844037039 10.216901584407154 0 0 0
5 1 8.291653941932083 9.011743599867074 8.883634464370115 0 0 0
1535 1 13.09170005150392 10.63995497457761 10.680654447396945 1 0 -1
114 1 11.715099314302602 9.205066532341343 6.864703069896467 0 0 0
1410 1 15.15154918261333 6.419037637415371 8.83902049981689 0 0 1
453 1 1.7129625417839236 10.160658205071194 7.260228372545554 0 0 0
1482 1 6.469440676641323 10.204373744597925 7.008795532282922 1 0 1
462 1 9.144606798433633 14.459767269570543 8.51513034876151 0 0 0
49 1 11.118416011430485 8.92932000736934 9.384713590823187 0 0 0
603 1 15.533317596254713 10.72830880111336 9.339199648591233 0 1 0
112 1 1.6905999232778706 11.906385202935665 9.376600793244476 0 0 -1
402 1 6.531131949698711 12.671885240345855 8.75729944337273 0 1 0
572 1 11.629101922191944 12.847241084652424 9.356169251110165 0 1 0
159 1 2.2545974950765597 14.66939226440565 8.523811930542879 0 0 -1
1372 1 2.284323363033966 19.63321307422209 7.651828718273987 0 0 1
1344 1 4.938214947290041 14.426468557713152 7.542728318765679 0 0 1
1024 1 4.9687801164920895 18.61254012215948 8.984748133999235 0 0 0
17 1 6.1591467721234325 16.93875718283334 6.903415046224332 0 0 -1
871 1 8.59673273504313 18.131136006274005 8.185038138003922 0 0 0
852 1 13.697454529782508 14.63639606907066 9.037599355252242 0 0 0
1641 1 11.92651843722232 18.88689203327863 11.618002992665284 1 0 0
1644 1 5.337337187339103 21.538220050972804 8.851650467026964 1 0 1
899 1 10.297494672149782 21.878747007966425 8.099432853134097 0 0 1
904 1 7.956973393064372 20.68485433959747 9.054131965543744 0 0 1
1584 1 10.85858168419829 19.60598330609818 6.761929626122771 0 0 -1
992 1 13.586027333402313 18.899968031547417 7.473640682714798 1 0 1
513 1 0.0745879867023437 22.24786019500524 8.179225790678776 0 1 0
90 1 6.890626406029179 23.9870927108958 8.078419118594052 0 0 0
2179 1 10.780163509379602 21.115700259280285 13.154122302694441 1 0 0
2137 1 0.9428378689554086 18.97950723201409 10.106341375566661 1 0 1
440 1 14.547183954928464 22.93761980944078 10.892922655704039 0 0 0
98 1 3.103091904873863 0.01058634003645409 8.29508021596736 0 -1 0
1658 1 13.504634804470719 22.155721609485227 13.42956449820752 1 0 0
1273 1 15.16801829075061 10.223012859351392 13.910249541948994 0 0 0
1619 1 3.785042298880085 4.25889607470605 10.237501962539628 1 0 0
1205 1 1.9003010365677342 20.778905829904723 12.098822212203086 1 0 0
48 1 12.883997313615552 2.412747548694508 12.055395073564187 0 0 0
1937 1 10.46899628932212 24.251035853364098 1.114245588491764 1 1 0
767 1 1.415826613676158 12.347094340160243 13.622746273340388 1 0 -1
1453 1 1.2119438225815198 3.7912742586357218 9.853167123745806 1 0 0
837 1 5.0712411302459754 3.7486687368768106 12.458008032683637 1 0 0
713 1 10.942166753104127 4.9138725038726765 12.380165569570217 0 0 -1
1879 1 3.997639216321347 22.13889802828167 11.04187676521244 0 0 -1
119 1 13.937302481914376 8.178138941676155 12.065947699444527 0 0 0
599 1 2.314843683383376 23.757005440963923 7.642652897021641 0 0 1
1397 1 15.887420835701992 3.5568675370845226 0.3292408697156531 0 1 1
87 1 15.62154208352066 5.158011317396525 11.497311470503329 0 0 0
1825 1 2.0760354759452353 7.776424556645554 12.120052120423733 1 0 0
1253 1 1.0129530783750855 5.006771308562854 12.363681225201185 0 1 0
1896 1 6.5769917396585384 5.811488681835434 13.289689536239125 1 1 0
1051 1 6.649121777439071 6.999103156120915 10.360187024140146 0 0 0
1837 1 11.125292064004396 16.701147157327014 13.243451245230288 1 0 1
213 1 0.07381707570446006 24.484325538211422 2.4329663582331618 0 0 1
20 1 4.370577182616847 9.636140651267327 12.336893037151757 0 0 0
1149 1 0.8038597728935055 1.3855253874123714 1.9811775515295889 0 1 -1
168 1 8.910586760370094 9.527547799260194 11.800100324590865 0 0 -1
66 1 15.422001930512314 12.940120433915839 13.492298210450722 0 0 0
77 1 12.691501625791206 12.42161716466278 12.72781053887557 0 0 0
61 1 1.1092488905069537 5.116885263631209 7.528624030806856 0 0 -1
160 1 0.6215982218907087 14.999692105652091 12.448288036852459 0 0 0
37 1 4.497976776671018 11.928960149537726 10.744451102190375 0 0 0
1759 1 4.751135890401157 14.283969886349007 12.125179859734947 1 0 0
580 1 8.581963219050811 12.575349457383501 11.34245755424106 0 0 1
1542 1 0.31552964184110976 7.951544349912435 7.2901721934369155 1 0 1
1090 1 10.686641164207394 14.219501413421584 12.026977749182887 1 0 0
128 1 15.741616718047123 17.377385066367687 11.530223332282699 0 0 0
1085 1 10.595804941439388 16.50514996449203 9.73709884520832 0 1 0
463 1 1.8546004862230507 16.533562032383138 10.413924776023752 0 0 0
612 1 16.1822610753702 0.21697714579444177 10.584038531022989 0 1 1
807 1 4.280113629754709 16.81478603868981 11.454656793667697 0 0 0
153 1 13.530245146878801 17.15687729051179 9.637503772481617 0 0 -1
1228 1 6.523860963903935 24.172797842163654 3.469661425196406 0 0 1
456 1 16.23082758978401 10.407188416008633 1.9326117469230382 0 1 0
242 1 6.437164375272712 18.628816793735794 12.715631605488959 0 0 1
386 1 4.45537695551124 8.045640477144824 -0.0421000963961336 0 1 0
1363 1 0.49029916332045387 10.343718516942003 11.52465586761622 0 0 1
76 1 2.158124705115435 12.095672019641295 0.4530325920326591 0 0 1
1307 1 15.211299001207939 0.3424301326101128 6.497878271523634 0 1 1
106 1 7.36621382979161 14.425642801376078 13.26637189109312 0 0 0
1467 1 8.203445265130384 18.04086673930493 -0.04648926087695038 1 0 1
1491 1 13.734854006775631 0.5713584209428717 0.24351465149149593 0 0 0
633 1 14.179857462501024 6.272076755753485 13.770932700417438 0 1 0
234 1 15.24866738957797 15.697162835681352 13.890814695995946 0 0 0
1747 1 2.016867995419546 6.558890314206842 27.683553062550587 1 0 -1
1388 1 10.561702541547247 1.0071553282575065 27.905383171079084 0 1 0
824 1 3.69883941533744 13.955302493446796 14.643692771787268 0 0 0
1218 1 11.740652375775957 23.702647638324386 20.17799757956393 0 0 0
886 1 0.022027365022620378 16.214094111905982 15.030774431614875 0 0 0
707 1 12.672016615162276 3.773818529811351 18.689052429848015 0 0 -1
706 1 16.224963499185822 2.4828707046681044 14.75209898489994 0 1 0
457 1 2.686565407366406 3.743688877995636 14.651121108241888 0 1 0
482 1 8.974409159016679 3.541793436280437 16.13938231232156 0 0 0
276 1 0.015339888895603337 3.273232714721558 15.731862743489806 0 1 0
922 1 11.500714625447129 2.8520004528256004 16.596415860966378 0 0 0
1207 1 11.761382719534934 6.430884067786516 18.759418720599307 0 1 0
269 1 2.0645003199407888 7.706976915676934 15.051296787249205 0 0 0
1505 1 6.809397962352047 9.764295118081046 15.765281749019927 1 0 0
1990 1 4.848598311108614 6.655491828119194 15.36198493795064 1 1 0
1593 1 9.11561543546891 9.310346901104182 17.621129501120844 1 0 0
1563 1 12.493775091056737 11.147225003063824 15.471577749437595 1 0 0
1332 1 10.536847639605464 7.185887800594487 16.14663292842972 0 1 0
1490 1 14.050965677035435 8.503668857103355 15.872456778450893 1 0 0
605 1 1.7704542226373419 10.045099359784427 16.35082412898361 0 0 0
1721 1 3.945416211245388 10.783983125041434 14.73983104856961 1 0 0
2073 1 5.864581701008589 12.688773560206245 16.42848075990216 1 0 0
2047 1 12.793623911096295 10.639001502514999 18.331671301703324 1 1 0
844 1 15.013033971088081 12.977806185028966 16.447209922894242 0 0 -1
16 1 8.410733543889274 23.77401107790253 27.59512774529602 0 0 0
1050 1 8.464783085739027 12.738720009547379 15.545429335193724 0 0 0
1729 1 12.48164969649918 14.293159992512745 16.863785013792345 1 0 0
566 1 15.009141039809823 12.122527680814082 19.011721992162848 0 1 0
231 1 2.1243269262582096 17.77096634892505 15.881580464921605 0 0 0
1597 1 5.875017155399837 0.6274185247044105 16.05026676128254 1 0 -1
1362 1 5.251245043100404 18.896510874152767 17.47581623092265 0 0 0
2040 1 8.029024832789855 17.18098603561408 14.420749104476327 1 0 1
1452 1 12.97587271539956 16.50415975876783 15.290666487677774 0 0 -1
1210 1 2.3916938015296982 21.68529135701102 16.4060435384176 0 0 0
103 1 4.790133105023754 20.430698085294942 14.99170270660524 0 0 0
431 1 7.702610488789347 21.99784239917431 16.15059600247102 0 1 0
1112 1 9.504780258676702 19.981404622350496 15.309283427425601 0 0 0
41 1 12.693486201604617 19.07620731530259 16.235185577989483 0 0 0
1861 1 13.358245499726861 3.4259167003319337 14.762469142670632 1 1 0
218 1 12.716116794676418 0.3960812202829239 15.785710995782367 0 0 0
2071 1 8.003295449858683 21.789824574470686 25.694368695554108 1 0 0
793 1 11.02000078044008 24.075180541305613 14.33865282748846 0 0 0
1293 1 13.363930955189337 21.869054445052914 16.434794183410084 0 1 0
758 1 15.398004155373444 21.672271017054523 23.040338501417526 0 0 0
2143 1 4.796361479053688 1.598859677250452 20.502349152753407 1 1 0
1195 1 8.052392721747939 1.3246129400666686 14.928167261697109 0 1 0
281 1 9.665050281704074 0.3422771337275027 20.268382534791712 0 0 1
84 1 7.449238375639893 2.2027976927061657 20.20970234586029 0 0 -1
614 1 12.015477320000075 1.5036962168734773 20.05105490212821 0 1 0
2002 1 2.0706794088667757 5.504943020777122 18.797722210951562 1 1 0
1430 1 0.8050020910700044 4.537745908682262 21.07359995467741 1 1 1
1447 1 3.140778599165169 3.3916626126695903 22.045533496794285 1 0 0
1968 1 4.172630837642289 4.466662953951657 17.061485734906174 1 1 0
521 1 6.835041948625247 4.439448050811943 18.189856273887298 0 1 0
8 1 15.47870365665125 1.2144882047313375 26.33333833306682 0 0 -1
208 1 15.301249647596741 3.268570767774612 18.733592323231942 0 0 0
1063 1 0.3989845484277728 9.026107427568874 20.796465376890296 1 0 0
445 1 5.96252997181266 7.8401407821797715 17.99170254159531 0 1 -1
1693 1 3.1987663566357996 8.041427530999314 19.671232954664127 1 0 0
1237 1 8.51516692350224 6.584039518700332 18.756571590982944 1 0 0
600 1 14.050850319224313 8.115036250696813 18.57871861719327 0 1 1
568 1 5.243361299562533 10.817304823363509 18.68525524726524 0 1 1
169 1 7.389510512848662 11.078204062537027 20.43703284348752 0 0 -1
1065 1 10.075161794732356 11.177702718140186 19.46431124757158 0 0 0
2010 1 12.029223353093695 12.217062798827774 21.44107821704142 1 1 -1
932 1 13.22227727969427 9.619456795479744 21.373293909797468 0 0 -1
248 1 2.51504155779108 11.115044736596893 19.442887643340285 0 0 1
985 1 13.607519874472922 23.759280734012908 27.49660099649005 0 0 0
1790 1 2.155449983477196 14.851355434797446 17.009258369555944 1 0 0
1468 1 8.741348071118386 15.779200884557877 19.16371012194445 1 0 0
721 1 9.917665110885878 13.552880263975661 17.746755807176676 0 0 0
1993 1 13.404374259153311 15.55810672225903 18.884439708579716 1 0 0
715 1 14.168240638861574 13.996366482354839 20.967018989015187 0 0 0
1892 1 1.147689166372546 19.715203183209947 17.94305033336394 1 0 0
95 1 5.846611937072612 23.583282447379844 14.700421916003808 0 0 0
868 1 3.994627938148209 16.52378784883356 18.30488656102831 1 0 0
1370 1 7.942897425039947 17.81830015016481 17.22742413274157 0 0 -1
1041 1 11.144131104227553 16.917681434293204 19.79857597313906 0 0 0
1985 1 14.031457693351022 18.733909651418955 18.910608340636916 1 1 0
902 1 2.433622227141912 21.29157147225593 20.269139269981675 0 0 0
1630 1 0.06970667156422358 19.598562500004643 21.942669945131563 1 0 0
2013 1 4.97386382464495 20.630422644695926 19.81032125562713 1 0 0
422 1 6.495792408251982 22.740510888876884 18.51344593238412 0 0 0
1004 1 10.440516432607051 19.351691168241846 18.143325219191482 0 0 0
772 1 11.080442066693525 22.597223290881733 17.815337315510735 0 -1 -1
1976 1 9.014411785460178 6.284443694833067 27.37817944678433 0 1 -1
1594 1 1.5711170759619049 23.675416630530172 18.897924898679925 1 0 0
1375 1 4.058621899529194 24.20380085823418 17.07798830996775 0 0 0
685 1 9.235161141635219 24.196655300065043 16.566051600885608 0 0 0
649 1 8.833214727796257 22.98184785330025 20.346331891072143 0 0 0
1047 1 11.57941287993835 23.812164599142786 23.35987541247914 0 0 -1
2188 1 14.503530922562597 22.573685851670298 20.37707871019914 1 0 0
404 1 9.172881406109136 5.479485974905399 14.357097871321194 0 1 0
67 1 1.1770754821362013 1.960437030134276 23.515168923613764 0 0 -1
154 1 15.671666267894883 23.718258292061606 25.861848869466574 0 0 -1
606 1 7.554152862563612 1.4054709214166554 24.37413077379532 0 1 0
1104 1 13.856441945754645 0.6490213904433502 21.965149272551358 0 1 0
577 1 13.49061023444648 13.09742626554687 27.921846893139012 0 0 0
660 1 1.5319953307192744 6.482765997345071 23.337961392563404 0 1 0
2080 1 5.438586071916359 4.792651714324486 22.775176267565975 1 0 0
25 1 7.710481384462385 3.351115098690248 22.582970611006026 0 0 -1
179 1 9.529324315225688 5.064633774816178 23.24567091328256 0 0 0
1163 1 13.513480060297844 2.9579316792102768 23.333910515475193 0 1 -1
476 1 14.306239931054987 5.39161450011152 21.61685075486059 0 1 -1
2003 1 15.383434271104171 3.5832483393972425 24.885658025679827 0 1 0
227 1 3.4673440903977757 8.50378119581146 23.190362559850033 0 0 0
1680 1 5.200416862711871 7.34999044232523 21.455035571808423 1 0 0
1795 1 7.271794054608163 8.940558212892785 22.130716545918578 1 0 0
311 1 9.201229226360294 7.122279699491657 21.590247224306832 0 0 0
414 1 12.156760011410915 7.057735423689601 21.567074449773763 0 1 0
1343 1 15.519036947907571 8.691423116795004 25.896309691392933 0 1 0
2077 1 13.16477184203476 8.16343516111076 24.569972399868213 1 0 1
1817 1 1.4014600693557888 10.725676342710633 23.10825802765891 1 0 0
1526 1 2.656792465307777 13.133376929838496 21.995977291972405 1 0 1
405 1 4.4893943113773735 13.610319411086378 23.944999861423916 0 1 0
1378 1 8.008532816345902 12.145584436973392 24.13063069472777 0 0 0
980 1 11.016029024684174 12.260467270940111 24.080134432146355 0 0 -1
204 1 15.219189967318052 13.80251074820379 24.801299238290454 0 0 -1
1038 1 0.8814972081491463 14.755337556814187 23.197436658137903 0 0 0
913 1 3.8583090915765266 18.326778284498932 22.21514468165041 1 0 -1
1176 1 6.059272519682896 14.209533399255315 18.875132316085597 0 0 0
816 1 6.414418094015188 13.448687700401964 21.926035145762725 0 0 -1
1102 1 8.277955642146772 15.410674019099098 22.012307724389224 0 0 0
1402 1 2.0338464168279824 18.202219771825217 20.049030291076622 0 0 0
1942 1 6.628810800836535 19.947823104025996 22.233647858890933 1 0 0
301 1 7.724650431059299 17.648742544191208 23.831230570187817 0 0 0
254 1 12.436080705206951 16.619107479170733 24.2893091429781 0 0 -1
604 1 10.424308186869933 17.299614316494257 22.651445310240447 0 0 0
1799 1 14.860027612760515 18.053689907692878 22.993843647152403 0 0 1
1605 1 1.8812999018843304 20.472426010274695 26.273118967014987 1 0 0
2155 1 3.152262495117524 24.440319893120638 22.31499027665449 1 1 1
464 1 4.14523304217288 19.957883368422056 24.537089325263977 0 0 0
555 1 9.027601070929617 20.11061941049096 20.411877056333378 0 0 0
653 1 11.25032887188948 20.20830706421306 22.186003987134406 0 1 -1
1739 1 13.576230658291017 20.06752998142549 21.291025969378683 1 0 -1
1058 1 15.790827035523034 21.54222491296258 18.215119763177697 0 0 1
216 1 1.9385323634515568 21.798167553024562 23.16289055807309 0 0 0
1346 1 6.095806061655971 22.069132846689524 23.80535474079925 0 0 0
330 1 10.39476188721249 21.3424383664508 24.487872929260064 0 0 0
1913 1 4.002940340462285 0.4180735009385484 27.267125308448176 1 1 0
125 1 6.044502190481976 2.111827975923565 26.369341331092084 0 0 -1
252 1 10.353917592741716 1.0132639079783419 25.155226131623223 0 0 -1
1539 1 0.9265341123500813 1.1029028127859826 17.48634143609996 1 0 0
978 1 1.9584262393699865 2.3420905831763896 26.22998117819582 1 0 0
1603 1 5.67123747344174 4.685234128550041 25.68905967098383 1 0 -1
1062 1 11.73617046440038 5.113650436943698 27.082988310499395 0 0 -1
88 1 11.33917969995117 3.506637307559714 24.789919695096852 0 0 -1
60 1 4.05070288039022 24.063816043823586 27.455476744014884 0 0 -1
509 1 2.7648220285317464 5.053753362998041 25.59583576625416 0 1 0
1588 1 0.2155764136078884 6.185664334312408 16.333652745162762 1 0 0
1742 1 7.650296972476575 6.685163723340766 24.936555264969936 1 0 -1
167 1 9.099944023630224 9.155604959432177 26.762819809039655 0 0 -1
637 1 7.724979827340845 23.69925149664497 22.566334886993427 0 1 0
993 1 14.302474890488476 5.93399611252178 27.15693911542142 0 0 0
273 1 16.34754938600601 23.31446388788746 16.09975195740115 0 0 0
70 1 4.775016690881078 9.393743556366806 25.66197297708388 0 0 -1
1440 1 7.337020742488424 9.879773631795713 24.91472655906098 0 1 0
82 1 11.524552065943626 9.977696785885982 25.482622370554814 0 0 -2
1386 1 15.940083130283721 15.453841654692715 22.53196543061408 0 1 0
1881 1 3.970229531121381 16.239808073039647 24.142025830689477 1 1 0
2015 1 4.24309426017587 11.928027215949044 26.416196840956655 1 0 -1
62 1 7.990692399124247 14.038394780737027 26.07789584102411 0 0 0
315 1 0.6469156514343531 13.656610565584511 19.137293437944436 0 0 0
257 1 12.331494544070717 14.04719381284029 25.409636628499026 0 0 0
495 1 10.308999839508582 15.181791421799376 26.56480664013379 0 0 -1
1690 1 3.868906578184855 1.9019479956688334 17.889625358064418 1 0 0
848 1 3.45935946048672 17.700458537597118 26.75706698084704 1 0 -1
78 1 12.69799019318665 10.473192298997347 27.747089713596846 0 0 -1
93 1 6.708143854889891 12.651552211391122 27.933117878048268 0 0 0
1904 1 6.489941236270639 16.4361793843733 25.724065882707176 1 0 -1
1831 1 9.977764134555304 18.004327345122473 25.944205852062616 1 0 0
1074 1 15.993386728174862 8.198431684035876 21.639915397799836 0 0 0
190 1 13.713209320495348 17.912083730131496 26.649221272373055 0 0 0
1506 1 4.037341161863767 21.38720011406202 27.73928848697647 0 0 0
527 1 9.602497928493793 10.17237162684424 14.641637289879453 0 0 0
621 1 11.129420849511177 20.2753925311867 26.999443204708975 0 0 0
709 1 13.878100893719624 20.93872266893018 27.51971939974664 0 0 0
1404 1 4.119683360262623 1.336191295358383 14.04940451421243 0 0 1
91 1 15.893489808659215 20.666937624492718 25.68152134618806 0 0 0
1936 1 16.01163413475156 6.25092805599084 19.31187937478428 0 1 0
674 1 5.0298458838921665 24.48402161754898 24.829135836112226 0 0 0
7 1 1.522264353019979 23.00431865386481 13.980462170567616 0 0 1
1111 1 0.33052443238909746 15.936724576762186 20.461510284800884 0 0 -1
1097 1 16.222441466737614 0.41874744619856263 16.199555374787337 0 1 -1
1284 1 16.113914049904277 17.14753929339217 18.7212246061827 1 0 1
411 1 16.14941988855015 17.250836380951334 25.513470556547134 0 0 -1
1117 1 1.224991492809186 17.227094951583457 28.031977413620655 1 1 0
2113 1 4.13054991821333 25.539037945590078 4.066801565153936 1 1 1
1821 1 4.676868050321724 25.068185363228054 6.802756674723854 1 0 0
1336 1 8.4069139075969 43.428416118828224 0.31362345926220825 1 0 1
1420 1 10.105491623536105 26.21607386469587 2.8223648386480362 0 0 1
1449 1 6.109253133354205 27.531652620923865 0.6098965554345056 1 -1 0
1602 1 14.890217088030175 31.678984701381317 0.3893783310229308 1 0 0
1474 1 8.787795644544977 28.018741740258143 1.5157104126661678 0 0 0
1953 1 13.851589586586666 25.206283292242922 1.9117288952785927 1 0 1
1599 1 12.945544817998353 30.115883864594018 1.7523909220303242 0 -1 1
1753 1 3.1800422236774746 32.465542182310564 1.0982782483732423 1 -1 1
418 1 0.7396500547438561 33.4312651256217 3.762728941304349 0 0 1
318 1 5.782542092487051 32.49142471859755 1.9500526122784918 0 0 2
1621 1 12.524705599954736 32.21606916857218 3.4854206176675335 0 0 1
487 1 6.128353128030209 24.937612411812 0.9411412200789168 0 0 -1
574 1 13.85079332871266 27.71302383367329 0.39890302482012946 0 0 1
1198 1 2.824543797341454 35.03226222901239 2.403575875151337 0 0 0
1068 1 0.7707100744199754 42.07353241662414 0.7341187788235195 0 -1 0
233 1 8.63988678232831 36.98332804683563 1.5543843764701761 0 0 1
625 1 10.650300109281963 34.10580549096484 2.3687848084558842 0 0 1
151 1 13.894850897558246 34.54426510460815 2.9874401294377293 0 0 0
1309 1 11.043487357755923 24.643769494138855 8.752382477909553 0 0 1
545 1 1.0308437815641285 39.455930332073926 3.5744692768463437 0 0 0
564 1 9.870585497536084 39.13897463849795 0.3377128989855145 0 0 1
1855 1 11.54698185842896 36.90537415258432 2.0144879284852655 0 0 0
303 1 14.486590096414268 37.66142424707447 1.8302375917920355 0 -1 0
2094 1 3.3869210287340796 43.43296361956484 1.8035636977554321 1 0 0
247 1 4.826409683160892 41.293041664115854 2.496446991786556 0 -1 1
630 1 7.231459919816012 42.86249286506893 3.0022884032797172 0 0 0
183 1 12.704694182385884 39.93448020913179 1.6725916643695669 0 -1 0
582 1 11.036990726505481 39.478738005735124 13.632086160226638 0 0 0
2200 1 2.0510162166861035 43.185442806895374 4.417507924533605 1 0 1
1009 1 1.1810194282415536 37.23926340340284 1.9472107379543495 1 -1 1
1874 1 16.378866035108338 29.9833622007307 10.313606792236648 0 0 0
10 1 11.523059658194397 43.711204702455134 3.436569518462616 0 -1 0
1036 1 14.962968689546006 44.41086879150194 1.124662620913791 0 -1 0
1416 1 11.20984857259024 27.01385965038213 13.124793648878015 0 0 0
329 1 1.8097328856712196 47.92245970161823 0.8802806910619917 0 -1 0
696 1 5.789320480292743 47.82178283506684 0.7544717274494485 0 0 1
1395 1 14.843904444218923 47.40356624525581 11.984598336659044 0 0 0
1710 1 6.78915092147261 42.92182038616969 12.931721589741633 1 0 0
520 1 0.6181741911610704 47.40352518653158 4.490250903120333 0 0 0
1966 1 13.937474397507412 47.83844068605957 2.4736005187756467 1 0 0
1239 1 15.763960219114086 36.94401158103724 9.296451037080876 0 0 0
124 1 11.138398472138258 43.41320745446545 0.7086029010527518 0 0 0
1118 1 0.25015356101027825 35.12684340619718 6.086337332226913 0 0 0
716 1 4.454266402552683 28.19182078961596 3.0876212499758227 1 0 0
1902 1 8.691203927158115 25.4641196738247 5.219824855121405 1 0 0
542 1 6.8079492646880615 27.308437117712263 6.945565280015066 0 0 1
1357 1 12.387412910856252 26.80178769319916 4.534446063060343 0 0 1
1295 1 10.683380268278318 26.858279021629702 7.037360200879858 0 1 1
1096 1 1.6538380314653431 28.658856101640918 2.3856349719156538 1 0 0
2008 1 2.686472783592078 30.70886186146638 6.795195391393792 1 0 0
1214 1 0.21612811494744477 31.972494045254294 12.328948067515354 0 0 1
1956 1 5.211456856611611 29.300041702175875 5.492339112707164 1 0 0
443 1 8.162746670186085 30.821590140024774 5.916627495334183 0 0 -1
984 1 12.876116835246373 29.63614901796192 6.131100853617195 0 0 0
1872 1 14.548889505397202 28.674657222626138 3.6855703243654045 0 1 1
2116 1 1.1224689776978216 24.974177860117436 12.00545159037102 1 0 1
1181 1 5.039179601198036 32.1150713509069 6.582734219557002 0 0 1
194 1 6.285288132982964 33.41052833106619 4.378795702947953 0 0 0
2141 1 8.546253184202058 35.13787500697018 4.40806451292263 0 0 1
2125 1 10.013902726314122 34.56731525657675 6.708610713001334 1 0 1
501 1 10.971364181792959 31.97307130055693 5.681431420802917 0 0 1
492 1 15.235781284189706 31.716374831762806 4.713734493915006 0 0 0
161 1 4.416697480318861 35.39038066603764 4.764998424002576 0 -1 -1
349 1 9.986147070560628 37.424037883608264 6.345029619874094 0 0 0