
# Create simulation box of size 49.22 x 49.019 x 27.94 Angstrom
#
region 	     all block 0 ${XDIM} 0 ${YDIM} 0 ${ZDIM} units box
region 	     all block 0 49.22 0 ${YDIM} 0 ${ZDIM} units box
region 	     all block 0 49.22 0 49.019635930410494 0 ${ZDIM} units box
region 	     all block 0 49.22 0 49.019635930410494 0 27.94 units box
create_box          1 all
Created orthogonal box = (0.0000000 0.0000000 0.0000000) to (49.220000 49.019636 27.940000)
  3 by 2 by 2 MPI processor grid

# fill box with randomly distributed atoms of number density 0.0327 N/A**3
#  ~800 atoms will eventually be removed to insert the substrate
#
create_atoms        1 random 2204 63782 all
Created 2204 atoms
  create_atoms CPU = 0.014 seconds
mass                1 18.015

# Define potential
#
pair_style          sw
pair_coeff          * * ML.sw mW
Reading sw potential file ML.sw with DATE: 2019-02-27

# Run minimization
#
minimize            1.0e-8 1.0e-8 10000 1000
WARNING: Using 'neigh_modify every 1 delay 0 check yes' setting during minimization (../min.cpp:187)
Neighbor list info ...
  update every 1 steps, delay 0 steps, check yes
  max neighbors/atom: 2000, page size: 100000
  master list distance cutoff = 6.0032907
  ghost atom cutoff = 6.0032907
  binsize = 3.0016454, bins = 17 17 10
  1 neighbor lists, perpetual/occasional/extra = 1 0 0
  (1) pair sw, perpetual
      attributes: full, newton on
      pair build: full/bin/atomonly
      stencil: full/bin/3d
      bin: standard
Per MPI rank memory allocation (min/avg/max) = 4.206 | 4.207 | 4.209 Mbytes
Step Temp E_pair E_mol TotEng Press 
       0            0     13939896            0     13939896     19162577 
     623            0   -23777.073            0   -23777.073   -1233.4799 
Loop time of 0.590695 on 12 procs for 623 steps with 2204 atoms

95.6% CPU use with 12 MPI tasks x no OpenMP threads

Minimization stats:
  Stopping criterion = max force evaluations
  Energy initial, next-to-last, final = 
      13939895.6535554  -23776.9255719881  -23777.0734324416
  Force two-norm initial, final = 7.9261878e+08 3.6287551
  Force max component initial, final = 4.6048357e+08 0.53181541
  Final line search alpha, max atom move = 0.081533127 0.043360574
  Iterations, force evaluations = 623 1000

MPI task timing breakdown:
Section |  min time  |  avg time  |  max time  |%varavg| %total
---------------------------------------------------------------
Pair    | 0.27363    | 0.36196    | 0.44133    |   8.3 | 61.28
Neigh   | 0.0077114  | 0.0084141  | 0.0092184  |   0.5 |  1.42
Comm    | 0.088571   | 0.17481    | 0.27827    |  12.6 | 29.59
Output  | 0          | 0          | 0          |   0.0 |  0.00
Modify  | 0          | 0          | 0          |   0.0 |  0.00
Other   |            | 0.04551    |            |       |  7.70

Nlocal:        183.667 ave         196 max         171 min
Histogram: 2 0 1 1 3 0 1 1 0 3
Nghost:        698.167 ave         712 max         683 min
Histogram: 2 1 1 1 2 0 0 1 1 3
Neighs:        0.00000 ave           0 max           0 min
Histogram: 12 0 0 0 0 0 0 0 0 0
FullNghs:      5159.83 ave        5669 max        4561 min
Histogram: 2 0 1 0 4 1 0 0 1 3

Total # of neighbors = 61918
Ave neighs/atom = 28.093466
Neighbor list builds = 26
Dangerous builds = 0

# Add velocity/set timestep
#
velocity            all create ${TEMP} 120593 rot yes dist gaussian
velocity            all create 245 120593 rot yes dist gaussian
timestep            5.0

# Define output
#
compute	            1 all msd
thermo	            100
thermo_style        custom step temp press vol etotal ke pe c_1[4] density

# Neighbor lists
#
neigh_modify        delay 0 every 1 check yes

# Set fixes
#
fix                 1 all momentum 10 linear 1 1 1 rescale
fix                 2 all nve

# Run 0.5 ns equilibration in NVE ensemble
#
dump                1 all custom 1000 nve.${NAME}.dump id type x y z vx vy vz
dump                1 all custom 1000 nve.ML_m500atm_245K.dump id type x y z vx vy vz
run                 100000
Per MPI rank memory allocation (min/avg/max) = 3.456 | 3.457 | 3.459 Mbytes
Step Temp Press Volume TotEng KinEng PotEng c_1[4] Density 
     623          245   -142.51785    67412.137   -22168.226    1608.8475   -23777.073 3.2045456e-33   0.97804047 
     700    118.62239   -842.47039    67412.137   -22162.894    778.96059   -22941.854   0.21149113   0.97804047 
     800    127.74896   -1141.3926    67412.137   -22163.099    838.89221   -23001.991   0.41197564   0.97804047 
     900    129.86859   -1091.0079    67412.137   -22163.055    852.81128   -23015.866   0.65034549   0.97804047 
    1000    133.24482   -774.16284    67412.137   -22163.001    874.98206   -23037.983   0.86564235   0.97804047 
    1100    137.21428   -421.82591    67412.137   -22163.082    901.04838   -23064.131    1.0664729   0.97804047 
    1200    141.37639   -439.51984    67412.137   -22163.262    928.37979   -23091.641    1.2714441   0.97804047 
    1300    138.90776   -636.35874    67412.137   -22163.223      912.169   -23075.392    1.3623168   0.97804047 
    1400    144.30969   -624.87027    67412.137   -22163.346    947.64196   -23110.988    1.5082763   0.97804047 
    1500    144.53264   -788.11647    67412.137    -22163.31    949.10606   -23112.416    1.5999077   0.97804047 
    1600    149.82329   -504.55536    67412.137   -22163.485    983.84824   -23147.333    1.7371019   0.97804047 
    1700    152.29291   -264.26961    67412.137   -22163.369    1000.0656   -23163.434    1.8941311   0.97804047 
    1800     148.3396   -192.91213    67412.137   -22163.348    974.10532   -23137.453    2.0800926   0.97804047 
    1900     156.6239   -292.03313    67412.137   -22163.646     1028.506   -23192.152    2.2039115   0.97804047 
    2000    155.52054   -258.38676    67412.137   -22163.587    1021.2606   -23184.848    2.3511785   0.97804047 
    2100    156.01937   -70.971893    67412.137   -22163.526    1024.5362   -23188.062    2.3206361   0.97804047 
    2200    154.27246   -276.86411    67412.137   -22163.545    1013.0647   -23176.609    2.4693355   0.97804047 
    2300    165.11916     233.7268    67412.137    -22163.85     1084.292   -23248.142    2.5538797   0.97804047 
    2400    162.33781    193.29838    67412.137   -22163.511    1066.0277   -23229.538    2.6630977   0.97804047 
    2500    158.63198    52.333011    67412.137   -22163.544    1041.6925   -23205.237    2.7866114   0.97804047 
    2600     161.5297    457.57906    67412.137   -22163.549     1060.721    -23224.27    2.8957772   0.97804047 
    2700    161.29979    742.84104    67412.137   -22163.541    1059.2113   -23222.753    2.8652493   0.97804047 
    2800    161.14338    117.33535    67412.137   -22163.635    1058.1842   -23221.819    2.9658172   0.97804047 
    2900    163.66908    486.05286    67412.137   -22163.763    1074.7697   -23238.532    3.0962137   0.97804047 
    3000    165.80032    145.60917    67412.137   -22163.691     1088.765   -23252.456    3.1995232   0.97804047 
    3100    171.40199    559.57975    67412.137   -22163.827    1125.5497   -23289.376      3.27738   0.97804047 
    3200    166.05478    360.19902    67412.137   -22163.546     1090.436   -23253.982    3.3447853   0.97804047 
    3300    166.97421     432.7228    67412.137   -22163.701    1096.4736   -23260.175    3.4350512   0.97804047 
    3400      165.174    447.43705    67412.137   -22163.576    1084.6522   -23248.228    3.5885959   0.97804047 
    3500    167.53012       490.52    67412.137    -22163.75    1100.1241   -23263.875    3.6709543   0.97804047 
    3600    168.22252    571.73034    67412.137   -22163.856    1104.6709   -23268.527    3.5973766   0.97804047 
    3700    169.88177    563.79309    67412.137   -22163.902    1115.5668   -23279.469    3.6294393   0.97804047 
    3800    168.11453    452.61314    67412.137   -22163.914    1103.9618   -23267.876    3.7465738   0.97804047 
    3900    170.23819    898.75049    67412.137   -22163.757    1117.9073   -23281.664    3.8289227   0.97804047 
    4000     168.7576    552.61808    67412.137   -22163.719    1108.1846   -23271.904    3.7742858   0.97804047 
    4100    172.54616    569.15226    67412.137   -22163.834    1133.0631   -23296.897    3.8704943   0.97804047 
    4200    167.32635    809.38596    67412.137   -22163.618     1098.786   -23262.404     3.947369   0.97804047 
    4300    167.70561    691.45609    67412.137   -22163.701    1101.2766   -23264.978    4.0725836   0.97804047 
    4400    170.77303    687.23293    67412.137   -22163.646    1121.4195   -23285.065    4.1195031   0.97804047 
    4500    168.97615    563.83546    67412.137   -22163.656    1109.6198   -23273.276    4.1174586   0.97804047 
    4600    171.55939    827.56635    67412.137   -22163.694    1126.5833   -23290.277    4.2312341   0.97804047 
    4700     172.2594    906.46003    67412.137   -22163.727      1131.18   -23294.907    4.1961742   0.97804047 
    4800    170.49136    849.50165    67412.137   -22163.696    1119.5698   -23283.266    4.1691162   0.97804047 
    4900    178.54337    977.01116    67412.137   -22163.882    1172.4451   -23336.327    4.2911906   0.97804047 
    5000     176.7644    761.80069    67412.137   -22164.046    1160.7632   -23324.809    4.3967016   0.97804047 
    5100    173.63923       761.48    67412.137   -22163.757     1140.241   -23303.998     4.443256   0.97804047 
    5200    171.99887    279.45424    67412.137   -22163.748    1129.4692   -23293.217    4.4840023   0.97804047 
    5300    174.41962    739.08991    67412.137   -22163.807    1145.3656   -23309.173    4.5000283   0.97804047 
    5400    175.66304    546.33913    67412.137   -22163.822    1153.5308   -23317.352    4.5567313   0.97804047 
    5500    173.50574    700.48533    67412.137   -22163.704    1139.3644   -23303.068    4.6273577   0.97804047 
    5600    171.21076    662.94831    67412.137   -22163.586    1124.2939    -23287.88    4.6671684   0.97804047 
    5700    168.02844    715.21989    67412.137   -22163.567    1103.3965   -23266.963    4.7428538   0.97804047 
    5800    176.06073    565.98361    67412.137   -22163.868    1156.1423   -23320.011     4.889205   0.97804047 
    5900    176.01541    812.88102    67412.137    -22163.93    1155.8447   -23319.775    5.0210872   0.97804047 
    6000    178.15687    705.15959    67412.137   -22163.941    1169.9071   -23333.848     4.993907   0.97804047 
    6100    173.28531    593.43265    67412.137   -22163.775    1137.9169   -23301.692    5.0005717   0.97804047 
    6200    175.22963    611.72841    67412.137    -22164.01    1150.6847   -23314.695    5.0436715   0.97804047 
    6300    174.48583    561.98015    67412.137   -22163.859    1145.8004    -23309.66    5.0550204   0.97804047 
    6400    174.40558    454.64113    67412.137   -22163.733    1145.2734   -23309.006     5.090971   0.97804047 
    6500    178.28043    387.57566    67412.137   -22164.073    1170.7185   -23334.791    5.3463566   0.97804047 
    6600    170.87377    329.21505    67412.137   -22163.633     1122.081   -23285.714    5.4876239   0.97804047 
    6700    176.37242     258.4654    67412.137   -22163.962    1158.1891   -23322.151    5.2781719   0.97804047 
    6800    176.34407    186.38272    67412.137   -22163.869    1158.0029   -23321.871    5.3227318   0.97804047 
    6900    172.79352    113.14666    67412.137   -22163.798    1134.6875   -23298.485    5.3762992   0.97804047 
    7000    175.55711    223.65673    67412.137   -22163.864    1152.8352   -23316.699    5.4229376   0.97804047 
    7100    172.35889    242.32343    67412.137   -22163.636    1131.8333   -23295.469    5.4568845   0.97804047 
    7200    175.07216    310.40998    67412.137   -22163.753    1149.6506   -23313.403    5.4228463   0.97804047 
    7300    175.92263    584.58767    67412.137   -22163.897    1155.2355   -23319.132    5.5416652   0.97804047 
    7400    177.29629    714.11734    67412.137   -22163.813    1164.2559   -23328.069    5.5833139   0.97804047 
    7500     178.1397    574.57973    67412.137   -22163.952    1169.7943   -23333.746    5.6594865   0.97804047 
    7600    180.42869    244.01243    67412.137   -22164.239    1184.8255   -23349.065    5.7843077   0.97804047 
    7700    173.77951    634.09816    67412.137   -22163.792    1141.1622   -23304.954    5.7614392   0.97804047 
    7800    177.62933    850.91781    67412.137   -22163.868    1166.4429   -23330.311    5.6402957   0.97804047 
    7900    172.35833      451.106    67412.137   -22163.776    1131.8297   -23295.606    5.7818176   0.97804047 
    8000    182.20473    768.52216    67412.137   -22164.044    1196.4883   -23360.533    5.8194799   0.97804047 
    8100    180.75591    1110.8132    67412.137   -22164.017    1186.9743   -23350.991    5.9215484   0.97804047 
    8200    180.46913    805.17285    67412.137    -22164.13    1185.0911   -23349.221     5.890394   0.97804047 
    8300    178.10582     555.9588    67412.137   -22163.988    1169.5719    -23333.56    6.0905254   0.97804047 
    8400    177.82658    517.17779    67412.137   -22163.797    1167.7381   -23331.535    6.1162935   0.97804047 
    8500    179.40785    648.01204    67412.137   -22163.885    1178.1219   -23342.007    6.2811043   0.97804047 
    8600    180.62783    606.30041    67412.137    -22164.05    1186.1332   -23350.183    6.2794331   0.97804047 
    8700    181.57636    435.63966    67412.137   -22164.065    1192.3619   -23356.427    6.3630154   0.97804047 
    8800    176.39515    601.88099    67412.137   -22163.864    1158.3383   -23322.202    6.3193136   0.97804047 
    8900    177.06525     443.0745    67412.137   -22163.871    1162.7387    -23326.61    6.3292553   0.97804047 
    9000    179.05275    47.425203    67412.137    -22164.04    1175.7901    -23339.83     6.470378   0.97804047 
    9100    174.37901    541.48708    67412.137   -22163.712    1145.0989   -23308.811    6.6710154   0.97804047 
    9200    182.99578    566.33383    67412.137   -22164.084    1201.6829   -23365.767    6.6051909   0.97804047 
    9300    181.10445    742.23709    67412.137   -22164.049     1189.263   -23353.312    6.6995784   0.97804047 
    9400    175.32085    894.43062    67412.137   -22163.653    1151.2837   -23314.937    6.6473157   0.97804047 
    9500    175.85113    660.09876    67412.137   -22163.772    1154.7659   -23318.538    6.6735521   0.97804047 
    9600    180.06483    859.44137    67412.137   -22164.062    1182.4362   -23346.499     6.795577   0.97804047 
    9700    180.70599     802.5473    67412.137   -22163.915    1186.6465   -23350.561    6.9320798   0.97804047 
    9800    180.11372    831.85444    67412.137   -22163.951    1182.7572   -23346.709    7.0273436   0.97804047 
    9900     183.0114    810.61689    67412.137   -22164.056    1201.7854   -23365.841    6.9612007   0.97804047 
   10000    186.22292    537.71668    67412.137   -22164.196    1222.8747   -23387.071    7.0717354   0.97804047 
   10100    181.01248    960.69007    67412.137    -22163.86    1188.6591   -23352.519    7.1540232   0.97804047 
   10200    180.58081    771.16657    67412.137   -22163.791    1185.8245   -23349.616    7.1224602   0.97804047 
   10300    179.87842    800.65737    67412.137   -22163.844    1181.2121   -23345.056    7.0346516   0.97804047 
   10400    183.86085    785.48541    67412.137   -22163.898    1207.3636   -23371.262    7.0660238   0.97804047 
   10500    184.92242    1021.8911    67412.137   -22163.963    1214.3346   -23378.298    7.1180995   0.97804047 
   10600    183.94076    547.89845    67412.137    -22163.86    1207.8883   -23371.749    7.2466566   0.97804047 
   10700    183.81708    1219.7918    67412.137   -22164.105    1207.0761   -23371.181    7.1918316   0.97804047 
   10800    182.97987    992.51829    67412.137   -22164.102    1201.5784    -23365.68    7.2848038   0.97804047 
   10900    182.30964    962.82868    67412.137   -22163.931    1197.1772   -23361.108    7.2746975   0.97804047 
   11000    179.02961    1276.1387    67412.137   -22163.892    1175.6381    -23339.53    7.2444845   0.97804047 
   11100    186.96991    1106.9674    67412.137   -22164.281    1227.7799   -23392.061    7.3268994   0.97804047 
   11200    182.58039    906.36298    67412.137   -22163.803    1198.9551   -23362.758    7.3984563   0.97804047 
   11300    183.06941    1307.1684    67412.137   -22164.244    1202.1664   -23366.411    7.3245347   0.97804047 
   11400    182.37011    959.07127    67412.137   -22163.956    1197.5743    -23361.53    7.4583433   0.97804047 
   11500    185.77616    749.05087    67412.137   -22164.081    1219.9409   -23384.022    7.4525885   0.97804047 
   11600    184.81302    922.29645    67412.137   -22164.095    1213.6162   -23377.712    7.4835486   0.97804047 
   11700    185.09652     1122.958    67412.137   -22164.116    1215.4778   -23379.594    7.4852986   0.97804047 
   11800    181.81778    1223.0375    67412.137   -22163.916    1193.9473   -23357.863    7.4615252   0.97804047 
   11900    184.41909    1396.9328    67412.137   -22164.228    1211.0294   -23375.257    7.4614089   0.97804047 
   12000    180.61848    1195.2873    67412.137   -22163.834    1186.0718   -23349.905     7.582119   0.97804047 
   12100    186.26136    1182.0959    67412.137   -22164.081     1223.127   -23387.208    7.6833962   0.97804047 
   12200    188.75625    1034.0814    67412.137   -22164.193    1239.5103   -23403.703    7.7133119   0.97804047 
   12300    183.99281    1165.8454    67412.137   -22163.901    1208.2301   -23372.131    7.8147635   0.97804047 
   12400    187.83848    919.06733    67412.137   -22164.216    1233.4836     -23397.7    7.7719149   0.97804047 
   12500      185.451    1217.6664    67412.137   -22164.037    1217.8056   -23381.843     7.763026   0.97804047 
   12600    189.11209    1323.7507    67412.137   -22164.202     1241.847   -23406.049     7.823073   0.97804047 
   12700    185.95571    976.82472    67412.137   -22164.143    1221.1199   -23385.263    7.9178399   0.97804047 
   12800    186.12842    1343.4683    67412.137   -22164.034    1222.2541   -23386.288    8.0322598   0.97804047 
   12900    189.26512    1140.2956    67412.137   -22164.346    1242.8519   -23407.198    7.9830776   0.97804047 
   13000    184.95098    1066.1953    67412.137   -22164.085    1214.5222   -23378.607     8.002765   0.97804047 
   13100    186.01875    947.44238    67412.137   -22163.967    1221.5339   -23385.501    8.0628842   0.97804047 
   13200    183.60988    1419.2079    67412.137   -22164.109    1205.7155   -23369.824    8.0165936   0.97804047 
   13300    182.48068    1239.1669    67412.137   -22163.784    1198.3004   -23362.084     7.981832   0.97804047 
   13400    183.38241    1553.2756    67412.137   -22163.967    1204.2218   -23368.188     8.014901   0.97804047 
   13500    184.14311    1284.8932    67412.137   -22164.021    1209.2171   -23373.238    8.0819701   0.97804047 
   13600    184.81756    1382.4909    67412.137   -22164.052     1213.646   -23377.698    8.2437934   0.97804047 
   13700    188.61534    1368.1946    67412.137   -22164.218     1238.585   -23402.803    8.3001344   0.97804047 
   13800    186.24002     1321.076    67412.137   -22164.134    1222.9869   -23387.121    8.4407139   0.97804047 
   13900    182.09798    1296.5318    67412.137   -22163.985    1195.7873   -23359.772    8.3914201   0.97804047 
   14000    183.70513    1373.2013    67412.137   -22163.947     1206.341   -23370.287    8.4641828   0.97804047 
   14100    182.76311     1386.695    67412.137   -22164.126     1200.155   -23364.281    8.4611857   0.97804047 
   14200    182.04842    1194.3086    67412.137    -22163.88    1195.4618   -23359.342    8.4031854   0.97804047 
   14300    181.56368    1215.2997    67412.137   -22164.007    1192.2787   -23356.285    8.2506823   0.97804047 
   14400    187.17775    1460.4226    67412.137   -22164.239    1229.1447   -23393.384    8.3090258   0.97804047 
   14500     186.8576    1044.7939    67412.137   -22164.077    1227.0424   -23391.119    8.3844324   0.97804047 
   14600    183.48705    1724.6335    67412.137   -22163.929    1204.9089   -23368.838      8.48611   0.97804047 
   14700    179.52165    1888.7927    67412.137    -22163.94    1178.8692   -23342.809    8.5804088   0.97804047 
   14800    187.11662     1351.722    67412.137   -22164.006    1228.7433    -23392.75    8.6856369   0.97804047 
   14900    185.33327    1617.3196    67412.137    -22164.06    1217.0325   -23381.093    8.5600361   0.97804047 
   15000    183.45151     1303.785    67412.137     -22164.1    1204.6756   -23368.775     8.488807   0.97804047 
   15100    183.06025    1212.5684    67412.137   -22164.018    1202.1063   -23366.124    8.3939935   0.97804047 
   15200    187.67892    1323.4973    67412.137   -22164.244    1232.4358    -23396.68    8.5068822   0.97804047 
   15300    183.11842    1318.4334    67412.137   -22163.916    1202.4882   -23366.404    8.5773701   0.97804047 
   15400    188.52034    1267.1507    67412.137   -22164.203    1237.9612   -23402.164     8.647935   0.97804047 
   15500    185.53031    1105.1489    67412.137    -22164.06    1218.3264   -23382.387    8.7015164   0.97804047 
   15600    185.86812    1072.1298    67412.137    -22164.06    1220.5448   -23384.605    8.6395019   0.97804047 
   15700    186.47061    1269.5661    67412.137   -22164.248    1224.5011   -23388.749    8.7074771   0.97804047 
   15800    183.32142    1297.4794    67412.137   -22163.982    1203.8213   -23367.804    8.7082612   0.97804047 
   15900     182.5567    1432.3877    67412.137   -22164.061    1198.7995    -23362.86    8.6196145   0.97804047 
   16000    185.51326    1294.5898    67412.137   -22164.172    1218.2145   -23382.386    8.6574096   0.97804047 
   16100    184.36377    1341.3838    67412.137   -22164.148    1210.6661   -23374.814    8.8174034   0.97804047 
   16200    184.21139    1409.3368    67412.137   -22163.992    1209.6655   -23373.658    8.6741067   0.97804047 
   16300    184.03543    1348.8091    67412.137    -22164.02    1208.5099    -23372.53    8.7923981   0.97804047 
   16400    188.21091    1342.3499    67412.137     -22164.2    1235.9292   -23400.129    8.8605661   0.97804047 
   16500    188.69735    1299.2405    67412.137   -22164.112    1239.1235   -23403.235    8.8395263   0.97804047 
   16600    185.94537    1287.4457    67412.137   -22164.143     1221.052   -23385.195    8.7791028   0.97804047 
   16700    187.18454    1522.0749    67412.137   -22164.104    1229.1893   -23393.293    8.8603276   0.97804047 
   16800    185.64351     1285.112    67412.137   -22163.762    1219.0698   -23382.832    8.8736646   0.97804047 
   16900    186.55205    1212.2514    67412.137   -22164.158    1225.0359   -23389.194    8.9722775   0.97804047 
   17000    185.06158    1600.8473    67412.137   -22163.997    1215.2484   -23379.245    9.1286894   0.97804047 
   17100    188.75887    1225.1445    67412.137   -22164.053    1239.5275    -23403.58    9.0576218   0.97804047 
   17200    190.37178    1656.0301    67412.137   -22164.087    1250.1191   -23414.206    9.0100485   0.97804047 
   17300    187.97603    1516.3947    67412.137   -22164.235    1234.3868   -23398.621    9.1194765   0.97804047 
   17400     190.7956    1614.8789    67412.137   -22164.227    1252.9022   -23417.129     9.187974   0.97804047 
   17500    185.24363    1657.0501    67412.137   -22164.081    1216.4439   -23380.525    9.1903555   0.97804047 
   17600    186.64988    1478.9027    67412.137   -22164.033    1225.6784   -23389.712    9.2876439   0.97804047 
   17700    185.60983    1357.8726    67412.137    -22163.95    1218.8486   -23382.798    9.4374614   0.97804047 
   17800    186.90309    1453.3078    67412.137   -22163.989    1227.3411    -23391.33    9.3803321   0.97804047 
   17900    189.22376    1413.5244    67412.137   -22164.177    1242.5803   -23406.757    9.3784457   0.97804047 
   18000    187.38881    1465.8946    67412.137   -22164.163    1230.5307   -23394.693    9.5176061   0.97804047 
   18100    187.12712    1787.2204    67412.137   -22164.194    1228.8123   -23393.006    9.4261395   0.97804047 
   18200    186.92597    1548.1137    67412.137   -22164.095    1227.4913   -23391.586    9.5375279   0.97804047 
   18300    183.92799    1254.7898    67412.137   -22163.963    1207.8044   -23371.768    9.7180023   0.97804047 
   18400    187.66598    1192.2883    67412.137   -22163.981    1232.3508   -23396.331    9.6825606   0.97804047 
   18500    187.27439    1407.7147    67412.137   -22163.958    1229.7793   -23393.738     9.658773   0.97804047 
   18600    183.16476    1439.8257    67412.137   -22164.113    1202.7925   -23366.906    9.6117222   0.97804047 
   18700    185.85686    1458.3111    67412.137   -22164.008    1220.4708   -23384.479    9.5753877   0.97804047 
   18800    188.77233    1310.3091    67412.137   -22164.169    1239.6159   -23403.785    9.7246756   0.97804047 
   18900    185.49388    1202.9292    67412.137   -22164.061    1218.0872   -23382.148    9.7108835   0.97804047 
   19000    187.86308    1123.0407    67412.137   -22164.076    1233.6451   -23397.721    9.7299926   0.97804047 
   19100    192.84372    1102.6626    67412.137   -22164.287    1266.3516   -23430.639     9.691473   0.97804047 
   19200    191.24992     1281.807    67412.137   -22164.195    1255.8856   -23420.081    9.6346193   0.97804047 
   19300    187.45756    1171.4656    67412.137   -22164.022    1230.9821   -23395.004    9.5526411   0.97804047 
   19400    185.96101     942.4912    67412.137   -22163.892    1221.1547   -23385.047    9.6284608   0.97804047 
   19500    184.98739    1138.4151    67412.137   -22163.945    1214.7612   -23378.706    9.6690389   0.97804047 
   19600    183.95853    977.76311    67412.137   -22164.047     1208.005   -23372.052    9.8211612   0.97804047 
   19700     188.9774    1234.1586    67412.137   -22164.021    1240.9625   -23404.984    9.8751257   0.97804047 
   19800    184.09043    1000.7093    67412.137   -22163.931    1208.8712   -23372.802     10.00207   0.97804047 
   19900    187.83948    1111.0022    67412.137   -22164.139    1233.4901   -23397.629     9.975522   0.97804047 
   20000    187.30428    1458.5668    67412.137   -22164.031    1229.9756   -23394.007    9.9948569   0.97804047 
   20100    182.60156    1403.1951    67412.137   -22163.889    1199.0942   -23362.983    10.063087   0.97804047 
   20200    185.77037    1058.6111    67412.137   -22164.036    1219.9029   -23383.939    10.086546   0.97804047 
   20300    188.41778      1277.82    67412.137   -22164.258    1237.2877   -23401.546    10.114003   0.97804047 
   20400    187.64504    1248.5329    67412.137   -22163.991    1232.2133   -23396.205    10.029783   0.97804047 
   20500    186.62823    1276.2804    67412.137   -22163.873    1225.5362   -23389.409    10.154075   0.97804047 
   20600    187.69948    1582.2563    67412.137   -22164.051    1232.5708   -23396.622    10.212158   0.97804047 
   20700    188.70102    1588.7383    67412.137   -22164.125    1239.1476   -23403.273    10.137234   0.97804047 
   20800    185.73565    1159.9789    67412.137   -22163.929    1219.6749   -23383.604     10.23325   0.97804047 
   20900    187.73029    1179.3392    67412.137   -22164.159    1232.7731   -23396.932    10.258798   0.97804047 
   21000     191.6328    1692.7824    67412.137    -22164.23    1258.3998    -23422.63    10.334426   0.97804047 
   21100    192.18682    1328.1384    67412.137   -22164.457    1262.0379   -23426.495     10.30599   0.97804047 
   21200    187.60472    1431.7493    67412.137   -22164.138    1231.9485   -23396.087    10.345344   0.97804047 
   21300    194.57789      1439.88    67412.137   -22164.393    1277.7394   -23442.132    10.628451   0.97804047 
   21400    189.87995    1609.6639    67412.137   -22164.216    1246.8893   -23411.105    10.481689   0.97804047 
   21500    188.02685    1330.7753    67412.137   -22164.278    1234.7205   -23398.999    10.536939   0.97804047 
   21600    187.87172     1455.888    67412.137   -22164.032    1233.7018   -23397.734    10.512628   0.97804047 
   21700      188.198    1269.8023    67412.137   -22164.058    1235.8444   -23399.903    10.530799   0.97804047 
   21800    185.59594    1393.1419    67412.137   -22164.089    1218.7574   -23382.846    10.564977   0.97804047 
   21900     191.2503    1193.9288    67412.137   -22164.382     1255.888    -23420.27    10.525635   0.97804047 
   22000    186.79161    1654.0339    67412.137   -22164.161    1226.6091    -23390.77    10.719855   0.97804047 
   22100    184.34494    1487.6566    67412.137   -22163.988    1210.5425    -23374.53    10.691291   0.97804047 
   22200    186.62276    1901.1814    67412.137   -22164.022    1225.5003   -23389.522    10.881982   0.97804047 
   22300    190.08632    1556.3269    67412.137   -22164.249    1248.2445   -23412.493    10.884934   0.97804047 
   22400    186.73718    1461.1767    67412.137   -22164.138    1226.2516    -23390.39    10.665245   0.97804047 
   22500    191.03995    1791.1115    67412.137   -22164.248    1254.5068   -23418.755    10.952974   0.97804047 
   22600    189.43509    1837.6754    67412.137   -22164.188    1243.9681   -23408.156    10.931744   0.97804047 
   22700    190.70876     1808.149    67412.137   -22164.334    1252.3319   -23416.666    10.981874   0.97804047 
   22800    187.57316    1904.2442    67412.137   -22164.079    1231.7413    -23395.82    11.132159   0.97804047 
   22900    187.28719    1890.4575    67412.137    -22164.09    1229.8634   -23393.953     11.24859   0.97804047 
   23000    191.57192    1713.5338    67412.137   -22164.235         1258   -23422.235    11.275057   0.97804047 
   23100    186.91648    1816.9791    67412.137   -22164.115     1227.429   -23391.544    11.429324   0.97804047 
   23200    189.00495     1784.058    67412.137   -22164.195    1241.1434   -23405.338    11.390514   0.97804047 
   23300    187.86663    1633.3743    67412.137   -22164.081    1233.6684    -23397.75    11.333591   0.97804047 
   23400    190.41339    2018.5146    67412.137   -22164.051    1250.3923   -23414.443    11.235357   0.97804047 
   23500     190.5872    1803.1231    67412.137   -22164.155    1251.5337   -23415.689     11.31945   0.97804047 
   23600    185.16875    1548.0679    67412.137   -22164.123    1215.9522   -23380.075    11.472232   0.97804047 
   23700    184.44276    1632.4864    67412.137    -22163.96    1211.1848   -23375.145    11.443644   0.97804047 
   23800    194.40555    1704.9246    67412.137   -22164.324    1276.6077   -23440.932    11.584121   0.97804047 
   23900    194.50176    1942.9163    67412.137   -22164.266    1277.2395   -23441.506    11.586062   0.97804047 
   24000    189.75095    1896.3785    67412.137   -22164.031    1246.0422   -23410.073     11.69624   0.97804047 
   24100    184.20787     1837.556    67412.137   -22163.931    1209.6423   -23373.573    11.540709   0.97804047 
   24200    189.91676    1730.8205    67412.137   -22164.231    1247.1311   -23411.362    11.553046   0.97804047 
   24300    189.41816    1773.9657    67412.137   -22164.258    1243.8569   -23408.114     11.54073   0.97804047 
   24400       191.19    2052.6605    67412.137   -22164.201    1255.4921   -23419.693    11.591832   0.97804047 
   24500    195.06215    1824.2882    67412.137   -22164.226    1280.9194   -23445.145    11.621743   0.97804047 
   24600    187.26717    1613.1566    67412.137   -22164.054    1229.7319   -23393.786    11.773885   0.97804047 
   24700     188.5032    1511.0108    67412.137       -22164    1237.8486   -23401.848    11.745042   0.97804047 
   24800    191.51224    1654.8471    67412.137   -22164.244    1257.6081   -23421.852    11.679308   0.97804047 
   24900    186.61592    1904.7671    67412.137   -22164.023    1225.4553   -23389.479    11.789792   0.97804047 
   25000    191.10077    2083.6249    67412.137   -22164.219    1254.9061   -23419.125    11.831425   0.97804047 
   25100    194.66166    1682.7428    67412.137   -22164.324    1278.2895   -23442.614    11.759683   0.97804047 
   25200    188.58374    1323.2259    67412.137   -22164.114    1238.3775   -23402.492    11.759524   0.97804047 
   25300    188.64313    1421.3983    67412.137   -22164.147    1238.7675   -23402.915    11.687007   0.97804047 
   25400    187.69405    1763.8015    67412.137   -22164.045    1232.5351    -23396.58    11.801454   0.97804047 
   25500    185.59703     1536.131    67412.137   -22164.093    1218.7646   -23382.857    11.957589   0.97804047 
   25600    191.59157    1777.4343    67412.137   -22164.108    1258.1291   -23422.237    11.924842   0.97804047 
   25700    187.12074    1584.2192    67412.137   -22164.056    1228.7703   -23392.826    12.051129   0.97804047 
   25800     194.0232    1592.7096    67412.137   -22164.327    1274.0969   -23438.424    11.969744   0.97804047 
   25900    190.42021    1666.1124    67412.137   -22164.214    1250.4371   -23414.651    11.972736   0.97804047 
   26000    191.70623    1651.4361    67412.137   -22164.082     1258.882   -23422.964    12.054448   0.97804047 
   26100    191.00088    1733.6731    67412.137   -22164.266    1254.2502   -23418.516    12.129446   0.97804047 
   26200    193.49399    1560.7305    67412.137   -22164.304    1270.6217   -23434.925    12.153269   0.97804047 
   26300    188.19998    1558.4808    67412.137   -22164.275    1235.8574   -23400.132    12.288916   0.97804047 
   26400    187.34665    1504.3056    67412.137   -22163.932    1230.2538   -23394.186    12.252268   0.97804047 
   26500    185.45177    1235.0526    67412.137   -22163.922    1217.8107   -23381.733    12.254746   0.97804047 
   26600    187.41035    1332.2886    67412.137   -22163.899    1230.6722   -23394.571    12.301749   0.97804047 
   26700    187.77472    1550.7717    67412.137   -22163.965    1233.0649    -23397.03    12.322712   0.97804047 
   26800    190.64961    1692.7153    67412.137   -22164.233    1251.9435   -23416.176    12.327067   0.97804047 
   26900     185.3445    1338.2081    67412.137   -22163.997    1217.1063   -23381.104    12.400726   0.97804047 
   27000    187.58183    1038.8328    67412.137   -22164.303    1231.7982   -23396.101    12.314103   0.97804047 
   27100    184.51044    1384.2849    67412.137   -22163.968    1211.6292   -23375.597    12.443875   0.97804047 
   27200    186.25273    1520.5398    67412.137   -22164.103    1223.0703   -23387.173    12.418772   0.97804047 
   27300    189.05642    1570.2874    67412.137   -22164.219    1241.4814   -23405.701    12.386174   0.97804047 
   27400    185.36799    1381.6362    67412.137   -22164.063    1217.2605   -23381.324    12.428538   0.97804047 
   27500    185.67268    1296.1504    67412.137   -22164.109    1219.2613    -23383.37    12.521457   0.97804047 
   27600    187.82108     1447.354    67412.137   -22164.056    1233.3693   -23397.425    12.553032   0.97804047 
   27700    187.97123    1518.7088    67412.137   -22164.173    1234.3553   -23398.528    12.681209   0.97804047 
   27800    185.51123    1703.0754    67412.137   -22164.112    1218.2012   -23382.313    12.731685   0.97804047 
   27900    187.01511    1355.8283    67412.137   -22164.144    1228.0767    -23392.22    12.710296   0.97804047 
   28000    188.36269    1196.4382    67412.137   -22164.098    1236.9259   -23401.023    12.664003   0.97804047 
   28100    188.50395    1635.7987    67412.137   -22164.152    1237.8535   -23402.006    12.688467   0.97804047 
   28200    186.96888    1439.6443    67412.137   -22164.131    1227.7732   -23391.905      12.8549   0.97804047 
   28300    183.63913     1507.817    67412.137    -22163.93    1205.9076   -23369.837    12.840787   0.97804047 
   28400    186.27574    1546.4935    67412.137   -22163.963    1223.2215   -23387.185    12.692617   0.97804047 
   28500    190.13919    1423.7965    67412.137    -22164.17    1248.5917   -23412.762    12.883442   0.97804047 
   28600    188.81696    1612.7686    67412.137   -22164.023     1239.909   -23403.932     12.94178   0.97804047 
   28700    188.82729    1529.1437    67412.137   -22164.116    1239.9768   -23404.092    12.914932   0.97804047 
   28800    191.04318    1525.3356    67412.137   -22164.229    1254.5279   -23418.757    12.952543   0.97804047 
   28900    185.11926    1664.5759    67412.137    -22163.97    1215.6272   -23379.597    12.923017   0.97804047 
   29000    185.92161    1275.8659    67412.137   -22164.125     1220.896   -23385.021    12.958045   0.97804047 
   29100    190.66907    1727.6663    67412.137   -22164.259    1252.0713    -23416.33    13.072422   0.97804047 
   29200    189.12389    1508.6076    67412.137   -22164.135    1241.9245    -23406.06    13.353628   0.97804047 
   29300     189.3761    1796.1953    67412.137   -22164.067    1243.5807   -23407.647     13.40082   0.97804047 
   29400    194.29324    1769.4617    67412.137   -22164.325    1275.8702   -23440.196    13.298445   0.97804047 
   29500    190.04554    1632.5694    67412.137   -22164.193    1247.9767   -23412.169    13.301712   0.97804047 
   29600    191.54782    1827.0681    67412.137   -22164.299    1257.8418   -23422.141    13.207345   0.97804047 
   29700    188.15842    1978.3355    67412.137   -22164.134    1235.5845   -23399.718    13.276132   0.97804047 
   29800    194.48448    1762.4158    67412.137   -22164.428     1277.126   -23441.554    13.340502   0.97804047 
   29900    194.36565    1827.2153    67412.137   -22164.355    1276.3457   -23440.701    13.352769   0.97804047 
   30000    195.03291    1749.4318    67412.137   -22164.419    1280.7274   -23445.146     13.36571   0.97804047 
   30100    191.29499    1727.6156    67412.137   -22164.106    1256.1815   -23420.288    13.437753   0.97804047 
   30200    190.34986    1619.8855    67412.137   -22164.081    1249.9751   -23414.056    13.349951   0.97804047 
   30300    192.84565    1463.9258    67412.137    -22164.18    1266.3642   -23430.545    13.336361   0.97804047 
   30400    191.62513    1601.5499    67412.137   -22164.281    1258.3495    -23422.63    13.460795   0.97804047 
   30500    190.50656    1206.4419    67412.137   -22164.168    1251.0041   -23415.172    13.486881   0.97804047 
   30600    191.25582    1524.9923    67412.137   -22164.152    1255.9243   -23420.076    13.590834   0.97804047 
   30700    190.82899    1635.2207    67412.137   -22164.187    1253.1214   -23417.309    13.706073   0.97804047 
   30800    190.85064    1443.7549    67412.137   -22164.172    1253.2636   -23417.435    13.759626   0.97804047 
   30900    187.42082    1600.1461    67412.137   -22164.035    1230.7409   -23394.776     13.76467   0.97804047 
   31000     188.6787    1499.5219    67412.137   -22164.064     1239.001   -23403.065    13.731261   0.97804047 
   31100    191.40693    1527.4478    67412.137   -22164.095    1256.9166   -23421.011    13.742771   0.97804047 
   31200    190.25032    1531.3258    67412.137   -22164.125    1249.3214   -23413.446    13.649787   0.97804047 
   31300    189.73851    1508.0553    67412.137   -22164.161    1245.9605   -23410.121    13.681724   0.97804047 
   31400    187.21491    1373.8281    67412.137   -22164.176    1229.3887   -23393.565    13.836631   0.97804047 
   31500    191.49052    1212.8598    67412.137   -22164.123    1257.4655   -23421.588     13.88525   0.97804047 
   31600    189.24335    1231.0336    67412.137   -22164.072    1242.7089   -23406.781    13.950642   0.97804047 
   31700    183.63596    1404.2071    67412.137   -22163.923    1205.8868    -23369.81    13.881473   0.97804047 
   31800    189.62721    1340.8845    67412.137   -22164.034    1245.2297   -23409.264    13.980899   0.97804047 
   31900    188.30627    1197.9345    67412.137   -22164.007    1236.5554   -23400.563    13.982768   0.97804047 
   32000    189.40573    1151.9755    67412.137   -22164.196    1243.7752   -23407.972    14.128781   0.97804047 
   32100    190.00911    1147.1642    67412.137   -22164.165    1247.7375   -23411.902    14.086139   0.97804047 
   32200    187.57094    1019.6329    67412.137    -22164.11    1231.7267   -23395.837    14.145342   0.97804047 
   32300    194.66455    1308.0018    67412.137   -22164.438    1278.3085   -23442.746    14.074686   0.97804047 
   32400    188.35189    1258.6354    67412.137   -22164.246     1236.855   -23401.101     14.23156   0.97804047 
   32500    187.26809    1474.7992    67412.137   -22164.082     1229.738    -23393.82     14.31974   0.97804047 
   32600    188.00703    1330.6511    67412.137   -22164.197    1234.5904   -23398.787    14.259848   0.97804047 
   32700    187.87936     1439.666    67412.137   -22164.126     1233.752   -23397.878    14.365157   0.97804047 
   32800    183.84741    1204.7428    67412.137   -22164.107    1207.2753   -23371.383    14.360438   0.97804047 
   32900    184.77311    1075.9117    67412.137   -22163.966    1213.3541    -23377.32    14.356567   0.97804047 
   33000    186.60597    929.03163    67412.137   -22164.134      1225.39   -23389.524    14.392139   0.97804047 
   33100    192.19531    1218.2098    67412.137   -22164.165    1262.0937   -23426.259    14.493509   0.97804047 
   33200    182.93219    1397.8241    67412.137   -22163.739    1201.2653   -23365.005    14.584922   0.97804047 
   33300    189.68565    1383.7935    67412.137   -22164.076    1245.6134   -23409.689    14.740534   0.97804047 
   33400    188.13441    1360.5043    67412.137   -22164.107    1235.4268   -23399.534    14.682008   0.97804047 
   33500    183.60361    1496.3357    67412.137   -22163.755    1205.6743    -23369.43    14.732889   0.97804047 
   33600     186.4884    1371.9185    67412.137   -22163.974     1224.618   -23388.592    14.746587   0.97804047 
   33700    186.43586    1638.2453    67412.137   -22164.033    1224.2729   -23388.306    14.756291   0.97804047 
   33800    187.64271    1653.3275    67412.137   -22164.123     1232.198   -23396.321    14.669425   0.97804047 
   33900    188.27435    1492.3902    67412.137   -22164.229    1236.3458   -23400.575    14.725125   0.97804047 
   34000    188.03064    1233.7534    67412.137   -22164.084    1234.7454    -23398.83    14.641635   0.97804047 
   34100    183.95172    1306.1025    67412.137   -22163.908    1207.9603   -23371.868    14.759578   0.97804047 
   34200    183.33838    1587.3321    67412.137   -22163.771    1203.9326   -23367.704    14.805244   0.97804047 
   34300    187.31154    1255.9603    67412.137   -22163.981    1230.0233   -23394.005    14.931757   0.97804047 
   34400    187.58818    1673.3629    67412.137    -22164.08    1231.8399    -23395.92    15.049064   0.97804047 
   34500    186.98658    1356.7937    67412.137    -22164.06    1227.8894   -23391.949    15.156205   0.97804047 
   34600     186.2901    1688.2617    67412.137   -22163.941    1223.3158   -23387.257    15.257393   0.97804047 
   34700    184.34175    1703.6968    67412.137   -22164.076    1210.5215   -23374.597    14.969936   0.97804047 
   34800    188.83402    1479.2581    67412.137   -22164.031     1240.021   -23404.052    14.992438   0.97804047 
   34900    182.69142     1626.011    67412.137   -22163.765    1199.6842   -23363.449    14.957621   0.97804047 
   35000    183.85699    1463.2883    67412.137   -22163.916    1207.3382   -23371.254    15.241904   0.97804047 
   35100    190.57594    1715.5683    67412.137    -22164.28    1251.4597    -23415.74    15.194473   0.97804047 
   35200    188.97449    1516.9622    67412.137   -22163.981    1240.9434   -23404.924    15.320279   0.97804047 
   35300    189.97111    1731.6842    67412.137    -22164.29    1247.4879   -23411.778    15.465167   0.97804047 
   35400    190.33199    1779.8528    67412.137   -22164.261    1249.8577   -23414.119    15.427794   0.97804047 
   35500    188.00813    1451.1513    67412.137   -22164.065    1234.5976   -23398.663     15.40982   0.97804047 
   35600    185.00051    1811.6065    67412.137   -22163.936    1214.8474   -23378.783    15.486031   0.97804047 
   35700    188.84058    1790.1377    67412.137   -22164.195    1240.0641   -23404.259    15.462075   0.97804047 
   35800    195.44536    1642.7067    67412.137   -22164.386    1283.4358   -23447.822    15.396908   0.97804047 
   35900    190.54485    1899.7879    67412.137    -22164.31    1251.2556   -23415.565    15.601466   0.97804047 
   36000      184.325    1514.5958    67412.137   -22164.155    1210.4115   -23374.567    15.627416   0.97804047 
   36100    186.98547    1513.3124    67412.137    -22163.99    1227.8821   -23391.872    15.397468   0.97804047 
   36200    188.55758    1601.4236    67412.137   -22164.023    1238.2057   -23402.228    15.615015   0.97804047 
   36300    186.01587    1594.7378    67412.137   -22163.864     1221.515   -23385.379    15.792417   0.97804047 
   36400    187.79498    1244.5531    67412.137    -22164.01    1233.1979   -23397.208       15.654   0.97804047 
   36500    189.35659     1320.071    67412.137   -22164.083    1243.4526   -23407.536    15.668831   0.97804047 
   36600    190.07872    1318.0911    67412.137   -22164.072    1248.1946   -23412.267    15.687412   0.97804047 
   36700    188.17807    1373.3394    67412.137   -22164.139    1235.7135   -23399.852    15.719356   0.97804047 
   36800    190.60897    1157.2502    67412.137   -22164.228    1251.6766   -23415.904    15.759797   0.97804047 
   36900    185.59344    1133.5418    67412.137   -22163.922     1218.741   -23382.663    15.848968   0.97804047 
   37000    189.98164     1123.071    67412.137   -22164.341    1247.5571   -23411.899    16.015147   0.97804047 
   37100    188.41046    1318.6076    67412.137   -22164.187    1237.2396   -23401.427    15.994602   0.97804047 
   37200    185.16459    1173.4574    67412.137   -22163.909    1215.9249   -23379.834    15.953562   0.97804047 
   37300    187.67838    1143.0029    67412.137   -22164.048    1232.4322    -23396.48    15.978799   0.97804047 
   37400    184.21266    938.09191    67412.137   -22163.961    1209.6738   -23373.635    16.061713   0.97804047 
   37500    190.67681    1360.1741    67412.137   -22164.205    1252.1221   -23416.327    16.065361   0.97804047 
   37600    185.53215    1088.1538    67412.137   -22163.923    1218.3385   -23382.262    16.137177   0.97804047 
   37700    187.91211    1435.1438    67412.137   -22164.038     1233.967   -23398.005    16.210273   0.97804047 
   37800    188.26312    1236.7807    67412.137   -22164.142     1236.272   -23400.414    16.205142   0.97804047 
   37900    189.42432    1261.7169    67412.137   -22164.175    1243.8974   -23408.072    16.258069   0.97804047 
   38000    187.72615    1292.7481    67412.137   -22163.965    1232.7459   -23396.711     16.31723   0.97804047 
   38100    190.88193    1030.7914    67412.137   -22164.154     1253.469   -23417.623    16.232364   0.97804047 
   38200     193.5744    1125.2261    67412.137   -22164.246    1271.1497   -23435.395    16.104446   0.97804047 
   38300    187.35194    1243.4809    67412.137   -22164.004    1230.2886   -23394.292    16.274923   0.97804047 
   38400    187.72947    1109.4601    67412.137   -22164.119    1232.7677   -23396.887    16.247913   0.97804047 
   38500    185.52123     1086.151    67412.137   -22163.838    1218.2668   -23382.105    16.338373   0.97804047 
   38600    189.01925     1562.401    67412.137   -22164.178    1241.2374   -23405.415    16.367943   0.97804047 
   38700    189.27034    1218.4828    67412.137   -22164.179    1242.8862   -23407.065    16.379485   0.97804047 
   38800    189.95271    1371.3372    67412.137   -22163.982    1247.3671   -23411.349    16.388917   0.97804047 
   38900    191.65504    1257.0203    67412.137    -22164.15    1258.5458   -23422.696     16.50587   0.97804047 
   39000       193.44    1091.2952    67412.137   -22164.142    1270.2672   -23434.409    16.381987   0.97804047 
   39100    191.87013    1609.3397    67412.137   -22164.281    1259.9583   -23424.239    16.566114   0.97804047 
   39200    192.90652    1742.2474    67412.137   -22164.181     1266.764   -23430.945     16.59046   0.97804047 
   39300    191.68046    1553.9894    67412.137   -22164.023    1258.7128   -23422.736    16.574252   0.97804047 
   39400    186.34652    1646.3542    67412.137   -22163.969    1223.6863   -23387.655    16.627171   0.97804047 
   39500     187.3118    1635.5372    67412.137   -22164.029     1230.025   -23394.054    16.689421   0.97804047 
   39600    192.51107    1716.1512    67412.137   -22164.197    1264.1672   -23428.364    16.748846   0.97804047 
   39700    192.08536    1750.9191    67412.137   -22164.297    1261.3717   -23425.669    16.743178   0.97804047 
   39800    186.28085    1624.2585    67412.137   -22163.957    1223.2551   -23387.212    16.875709   0.97804047 
   39900    189.54182    1939.9688    67412.137   -22163.976    1244.6689   -23408.645    16.938248   0.97804047 
   40000    188.53915    1811.9055    67412.137   -22164.157    1238.0847   -23402.242    16.937634   0.97804047 
   40100      194.366    1596.1764    67412.137    -22164.23     1276.348   -23440.578    16.907973   0.97804047 
   40200    190.93702    1820.1115    67412.137   -22164.135    1253.8308   -23417.966    16.883756   0.97804047 
   40300    187.25939    1662.2217    67412.137   -22164.146    1229.6809   -23393.827    16.981563   0.97804047 
   40400    196.01997    1976.9507    67412.137   -22164.385    1287.2091   -23451.594    16.991397   0.97804047 
   40500     186.9406      1775.49    67412.137    -22163.99    1227.5874   -23391.577    17.035592   0.97804047 
   40600    192.08159    1831.6207    67412.137   -22164.217    1261.3469   -23425.564    17.055369   0.97804047 
   40700    195.12717    2037.8606    67412.137   -22164.413    1281.3464   -23445.759    17.096767   0.97804047 
   40800    193.88204    1892.5989    67412.137    -22164.25    1273.1699    -23437.42    17.184289   0.97804047 
   40900    190.71137    1822.5072    67412.137   -22164.194     1252.349   -23416.543    17.257013   0.97804047 
   41000    187.80727    1508.7255    67412.137    -22163.85    1233.2786   -23397.128    17.253331   0.97804047 
   41100    189.56255     1546.586    67412.137   -22164.208     1244.805   -23409.013    17.138047   0.97804047 
   41200    194.23728    1492.4045    67412.137   -22164.445    1275.5027   -23439.948    17.114159   0.97804047 
   41300     194.8415    2017.4559    67412.137   -22164.352    1279.4705   -23443.822    17.277554   0.97804047 
   41400    188.94569    1621.8198    67412.137   -22164.317    1240.7543   -23405.071    17.248119   0.97804047 
   41500    190.18757    1691.4227    67412.137   -22163.984    1248.9094   -23412.893    17.291723   0.97804047 
   41600    190.25663    1756.9208    67412.137   -22164.139    1249.3629   -23413.502    17.270933   0.97804047 
   41700    193.49814    1396.8338    67412.137   -22164.209     1270.649   -23434.858    17.365533   0.97804047 
   41800    186.73996    1466.9482    67412.137   -22163.827    1226.2699   -23390.097    17.371904   0.97804047 
   41900    194.67851    1379.9183    67412.137   -22164.453    1278.4002   -23442.853      17.2152   0.97804047 
   42000    188.81001    1438.6089    67412.137   -22164.119    1239.8633   -23403.983    17.408547   0.97804047 
   42100    188.92185    1513.1067    67412.137   -22164.115    1240.5978   -23404.712    17.458918   0.97804047 
   42200     190.1725    1629.6722    67412.137   -22163.842    1248.8104   -23412.653    17.409683   0.97804047 
   42300    190.42592     1576.843    67412.137   -22164.042    1250.4745   -23414.516    17.455538   0.97804047 
   42400    189.08204    1662.6197    67412.137   -22163.962    1241.6497   -23405.612    17.529733   0.97804047 
   42500    193.81665    1693.3924    67412.137   -22164.122    1272.7406   -23436.863    17.528251   0.97804047 
   42600    194.12982    1580.9257    67412.137   -22164.214     1274.797   -23439.011    17.555959   0.97804047 
   42700    193.38483    1566.1502    67412.137   -22164.249    1269.9049   -23434.154    17.614549   0.97804047 
   42800    193.06091    1758.0368    67412.137   -22164.204    1267.7778   -23431.982     17.65515   0.97804047 
   42900    190.95117    1512.5044    67412.137   -22164.039    1253.9238   -23417.963    17.726002   0.97804047 
   43000    186.96108    1412.0748    67412.137   -22163.899    1227.7219   -23391.621    17.678343   0.97804047 
   43100      190.349    1536.8447    67412.137   -22163.964    1249.9695   -23413.934    17.831956   0.97804047 
   43200    190.74639    1608.1151    67412.137   -22164.123     1252.579   -23416.702    17.761874   0.97804047 
   43300    191.00115    1794.9004    67412.137   -22164.233    1254.2519   -23418.485    17.814594   0.97804047 
   43400    190.30779    1854.7586    67412.137   -22164.044    1249.6989   -23413.743    17.910093   0.97804047 
   43500    188.28459    1753.6762    67412.137   -22164.053     1236.413   -23400.466     18.20196   0.97804047 
   43600    189.55217    1804.9356    67412.137   -22164.063    1244.7369     -23408.8    18.099766   0.97804047 
   43700    188.98545    1446.9024    67412.137   -22164.078    1241.0154   -23405.093    18.281684   0.97804047 
   43800    190.22712    1713.7662    67412.137   -22164.241    1249.1691    -23413.41    18.291218   0.97804047 
   43900    185.54992    1755.1182    67412.137   -22164.227    1218.4552   -23382.683    18.190533   0.97804047 
   44000    195.43118      1357.74    67412.137   -22164.356    1283.3427   -23447.699    18.223054   0.97804047 
   44100    192.93134    1537.9707    67412.137   -22164.348     1266.927   -23431.275    18.184974   0.97804047 
   44200    190.92365    1733.6449    67412.137   -22164.109     1253.743   -23417.852    18.295172   0.97804047 
   44300    188.73466    1515.9491    67412.137   -22164.198    1239.3685   -23403.566    18.358813   0.97804047 
   44400    188.10483    1431.2274    67412.137   -22164.106    1235.2326   -23399.339    18.538126   0.97804047 
   44500    190.35801    1587.4727    67412.137   -22164.241    1250.0286   -23414.269    18.455434   0.97804047 
   44600    189.86927    1469.7367    67412.137   -22164.185    1246.8192   -23411.004     18.42243   0.97804047 
   44700    195.12037    1438.1008    67412.137    -22164.46    1281.3017   -23445.762    18.377332   0.97804047 
   44800    189.22348    1909.1706    67412.137   -22164.056    1242.5785   -23406.634     18.42277   0.97804047 
   44900    191.64716    1770.9947    67412.137   -22164.096    1258.4941    -23422.59    18.365458   0.97804047 
   45000    189.86557    1833.8838    67412.137   -22164.047    1246.7949   -23410.842    18.447264   0.97804047 
   45100    189.74649    1768.1535    67412.137   -22164.212    1246.0129   -23410.224    18.472483   0.97804047 
   45200    193.66961    1962.8717    67412.137   -22164.251     1271.775   -23436.026    18.557455   0.97804047 
   45300    188.26447    1643.0927    67412.137    -22164.08    1236.2809   -23400.361    18.653178   0.97804047 
   45400    191.03725    1767.5606    67412.137   -22164.258     1254.489   -23418.747    18.542634   0.97804047 
   45500    193.81645    1689.6683    67412.137   -22164.441    1272.7392    -23437.18     18.63687   0.97804047 
   45600    190.17504    1778.1347    67412.137   -22164.238    1248.8271   -23413.065    18.495691   0.97804047 
   45700    192.88403    1858.7762    67412.137   -22164.205    1266.6163   -23430.821    18.404866   0.97804047 
   45800    191.07199    1671.0175    67412.137   -22164.152    1254.7171    -23418.87    18.518912   0.97804047 
   45900    194.76655    1590.1987    67412.137   -22164.222    1278.9783     -23443.2     18.60443   0.97804047 
   46000    186.26481    1389.9774    67412.137   -22163.928    1223.1497   -23387.078    18.669515   0.97804047 
   46100    191.33747    1317.5471    67412.137   -22164.256    1256.4604   -23420.717    18.770551   0.97804047 
   46200     193.4966     1515.893    67412.137   -22164.444    1270.6389   -23435.083    18.631475   0.97804047 
   46300    185.37916    1357.4239    67412.137    -22163.93    1217.3339   -23381.264    18.904225   0.97804047 
   46400    190.56827    1712.7703    67412.137   -22164.058    1251.4094   -23415.467     18.89651   0.97804047 
   46500    189.59018    1600.6347    67412.137     -22164.2    1244.9865   -23409.186    18.962438   0.97804047 
   46600    195.58557    1478.6973    67412.137   -22164.408    1284.3566   -23448.765    18.905541   0.97804047 
   46700    185.95305    1083.1134    67412.137   -22164.029    1221.1024   -23385.131    18.879562   0.97804047 
   46800    197.76741    1468.3355    67412.137   -22164.499    1298.6841   -23463.183    18.841122   0.97804047 
   46900    190.69399    1304.4046    67412.137   -22164.193    1252.2349   -23416.428    18.915815   0.97804047 
   47000      185.564    1330.0184    67412.137   -22163.942    1218.5476    -23382.49    19.097948   0.97804047 
   47100    186.25263    1661.8123    67412.137    -22163.94    1223.0697    -23387.01    19.231617   0.97804047 
   47200    192.20091    1449.9522    67412.137   -22164.272    1262.1304   -23426.402    19.150349   0.97804047 
   47300     190.4205     1708.028    67412.137   -22164.067     1250.439   -23414.505    19.315734   0.97804047 
   47400    189.55011    1688.3304    67412.137   -22164.197    1244.7233   -23408.921    19.283447   0.97804047 
   47500    185.55836    1597.2545    67412.137   -22163.855    1218.5107   -23382.365    19.207343   0.97804047 
   47600    190.54845    1567.3665    67412.137   -22164.028    1251.2792   -23415.308    19.289507   0.97804047 
   47700    191.64944    1508.0705    67412.137   -22164.263    1258.5091   -23422.772    19.269611   0.97804047 
   47800      187.585    1354.2651    67412.137   -22164.179     1231.819   -23395.998    19.364595   0.97804047 
   47900    189.92754    1689.1547    67412.137   -22164.056    1247.2018   -23411.258    19.282999   0.97804047 
   48000    191.27779    1397.7888    67412.137   -22164.138    1256.0685   -23420.207    19.337026   0.97804047 
   48100    187.94603    1601.3018    67412.137   -22163.932    1234.1898   -23398.122    19.437392   0.97804047 
   48200    185.83353    1482.1874    67412.137   -22163.964    1220.3176   -23384.282    19.627751   0.97804047 
   48300    191.47569    1393.3732    67412.137   -22164.253    1257.3681   -23421.621     19.55596   0.97804047 
   48400    193.08377    1433.4632    67412.137   -22164.156     1267.928   -23432.084    19.512802   0.97804047 
   48500    193.49481    1334.5978    67412.137   -22164.144    1270.6271   -23434.771    19.513866   0.97804047 
   48600    192.16141    1521.3636    67412.137   -22164.297     1261.871   -23426.168    19.591698   0.97804047 
   48700    187.99927    1275.5332    67412.137   -22164.115    1234.5394   -23398.655    19.635716   0.97804047 
   48800    187.89375    1090.4243    67412.137   -22163.995    1233.8465   -23397.842     19.73155   0.97804047 
   48900    191.46287    1314.6222    67412.137   -22164.134     1257.284   -23421.418    19.624333   0.97804047 
   49000    185.35445    976.46585    67412.137   -22163.872    1217.1716   -23381.043    19.851892   0.97804047 
   49100    189.26619     1221.914    67412.137   -22164.076     1242.859   -23406.935    19.881621   0.97804047 
   49200      190.181    1135.1222    67412.137    -22164.05    1248.8663   -23412.916    19.705122   0.97804047 
   49300    188.62095    1317.5562    67412.137   -22164.065    1238.6218   -23402.687    19.740895   0.97804047 
   49400     187.8767    1352.1628    67412.137   -22163.953    1233.7345   -23397.687    19.715924   0.97804047 
   49500    186.73466    1156.0899    67412.137   -22164.113    1226.2351   -23390.348    19.755538   0.97804047 
   49600    186.80496    1236.5031    67412.137    -22164.13    1226.6967   -23390.826     19.89702   0.97804047 
   49700    189.26954    854.56828    67412.137   -22164.301     1242.881   -23407.182    20.005605   0.97804047 
   49800     185.5822    1476.2078    67412.137   -22164.072    1218.6672   -23382.739    20.124732   0.97804047 
   49900    186.89128     1262.373    67412.137    -22163.84    1227.2635   -23391.104    20.086479   0.97804047 
   50000    185.06142    1237.0631    67412.137   -22163.933    1215.2474   -23379.181    20.008307   0.97804047 
   50100    185.08132    1287.9282    67412.137   -22164.205    1215.3781   -23379.583    19.992205   0.97804047 
   50200    181.65106    667.16204    67412.137   -22163.959    1192.8525   -23356.812    19.984704   0.97804047 
   50300    192.67541    1195.3019    67412.137   -22164.184    1265.2464    -23429.43    20.076218   0.97804047 
   50400    187.22274    1521.0652    67412.137   -22164.144    1229.4402   -23393.585    20.114254   0.97804047 
   50500    184.40355    1507.4109    67412.137   -22164.037    1210.9273   -23374.965    20.164473   0.97804047 
   50600    188.92881    1674.1736    67412.137   -22164.007    1240.6435   -23404.651     20.22098   0.97804047 
   50700    181.43827    1614.3401    67412.137     -22163.9    1191.4551   -23355.355    20.232296   0.97804047 
   50800    188.24445    1520.5767    67412.137   -22163.951    1236.1494   -23400.101    20.293676   0.97804047 
   50900    186.14705       1370.5    67412.137   -22163.963    1222.3764   -23386.339    20.446039   0.97804047 
   51000    187.01761     1286.871    67412.137   -22163.869    1228.0931   -23391.962    20.306667   0.97804047 
   51100    189.33892    1231.1292    67412.137   -22164.042    1243.3365   -23407.378    20.416773   0.97804047 
   51200    187.73535    1386.1178    67412.137   -22164.035    1232.8063   -23396.841      20.4923   0.97804047 
   51300    192.40548    1389.9516    67412.137   -22164.201    1263.4738   -23427.674    20.755592   0.97804047 
   51400    194.75143    1274.3269    67412.137   -22164.385     1278.879   -23443.264     20.69818   0.97804047 
   51500    189.48125    1616.6058    67412.137   -22164.162    1244.2712   -23408.433    20.759333   0.97804047 
   51600    188.97421     1295.736    67412.137   -22164.089    1240.9416   -23405.031     20.91839   0.97804047 
   51700    193.98879    1288.4983    67412.137   -22164.294    1273.8709   -23438.165    20.930753   0.97804047 
   51800    191.56707    899.18832    67412.137   -22164.125    1257.9682   -23422.094    20.863501   0.97804047 
   51900    188.57842    1184.3888    67412.137   -22163.988    1238.3425    -23402.33    20.860857   0.97804047 
   52000    186.73362    1432.9722    67412.137    -22163.89    1226.2283   -23390.118    20.924454   0.97804047 
   52100    185.19337    1261.0284    67412.137   -22164.027    1216.1139   -23380.141    20.931767   0.97804047 
   52200    189.30535    1239.0973    67412.137   -22164.223    1243.1161   -23407.339    20.854861   0.97804047 
   52300    187.92519    1082.9565    67412.137   -22164.038     1234.053   -23398.091    21.013122   0.97804047 
   52400    188.49142    1084.2092    67412.137   -22164.072    1237.7713   -23401.844     21.23428   0.97804047 
   52500    187.23279    986.40889    67412.137   -22164.005    1229.5061   -23393.511    21.170384   0.97804047 
   52600    186.38769    1094.7244    67412.137   -22163.951    1223.9566   -23387.907    21.138644   0.97804047 
   52700    190.66867    1086.6706    67412.137   -22164.144    1252.0686   -23416.213    21.262901   0.97804047 
   52800    187.31033    1416.4664    67412.137   -22164.048    1230.0153   -23394.063    21.265275   0.97804047 
   52900    192.82561     1500.671    67412.137   -22164.245    1266.2327   -23430.477    21.337604   0.97804047 
   53000    187.68368    1526.2302    67412.137   -22163.899     1232.467   -23396.366    21.298956   0.97804047 
   53100    188.19669    1405.3773    67412.137   -22164.043    1235.8359   -23399.879    21.412329   0.97804047 
   53200    188.42735    1572.6794    67412.137   -22164.093    1237.3505   -23401.444    21.519131   0.97804047 
   53300    185.56669     1520.371    67412.137   -22163.953    1218.5653   -23382.518    21.585973   0.97804047 
   53400    190.28882    1373.4111    67412.137    -22164.24    1249.5743   -23413.814    21.428539   0.97804047 
   53500    190.29216    1463.2521    67412.137   -22164.012    1249.5962   -23413.608    21.367095   0.97804047 
   53600    185.22459    1548.5134    67412.137   -22163.739    1216.3189   -23380.058    21.339154   0.97804047 
   53700     188.7454    1725.1529    67412.137   -22164.073    1239.4391   -23403.512    21.538052   0.97804047 
   53800    185.33576    1577.8389    67412.137   -22163.866    1217.0489   -23380.915    21.625336   0.97804047 
   53900    194.43275    1381.9387    67412.137   -22164.123    1276.7863   -23440.909       21.538   0.97804047 
   54000     197.6511     1426.795    67412.137   -22164.384    1297.9203   -23462.304    21.743278   0.97804047 
   54100    189.73483    1316.3673    67412.137   -22164.124    1245.9363    -23410.06     21.68364   0.97804047 
   54200    190.83695     1129.941    67412.137   -22164.246    1253.1737    -23417.42    21.730787   0.97804047 
   54300    191.36452    1112.5825    67412.137   -22164.029    1256.6381   -23420.667    21.895765   0.97804047 
   54400    191.94418    1074.8882    67412.137   -22164.156    1260.4445     -23424.6    22.137802   0.97804047 
   54500    190.07447    857.90147    67412.137    -22164.26    1248.1667   -23412.427    22.013778   0.97804047 
   54600    187.92622    1363.4147    67412.137   -22164.193    1234.0597   -23398.253    21.917878   0.97804047 
   54700    191.28653    1588.5834    67412.137   -22164.091     1256.126   -23420.217     22.00515   0.97804047 
   54800    187.30524    1600.2969    67412.137   -22163.998    1229.9819    -23393.98    21.903713   0.97804047 
   54900    188.04162    1477.0326    67412.137   -22164.003    1234.8175    -23398.82    22.036328   0.97804047 
   55000    191.96808    1368.0692    67412.137   -22164.376    1260.6015   -23424.977    21.855746   0.97804047 
   55100    188.01059    1470.7198    67412.137   -22164.108    1234.6137   -23398.721    21.869227   0.97804047 
   55200     193.5698    1524.2668    67412.137   -22164.135    1271.1195   -23435.254    21.938435   0.97804047 
   55300    186.84253    1297.5877    67412.137   -22164.033    1226.9434   -23390.976    22.002969   0.97804047 
   55400    187.68559    1320.5893    67412.137   -22164.026    1232.4795   -23396.505     21.96269   0.97804047 
   55500    191.10116    1359.4307    67412.137   -22164.283    1254.9087   -23419.191    22.222881   0.97804047 
   55600    185.62225    1346.5101    67412.137   -22163.945    1218.9302   -23382.875    22.119949   0.97804047 
   55700    190.09243    1384.5942    67412.137   -22164.112    1248.2846   -23412.397    22.201875   0.97804047 
   55800    186.59662    1173.2017    67412.137   -22164.107    1225.3286   -23389.435    22.343296   0.97804047 
   55900    187.38941    1322.9471    67412.137    -22164.03    1230.5347   -23394.564    22.418127   0.97804047 
   56000    191.39426    1582.0706    67412.137   -22164.221    1256.8334   -23421.054    22.435477   0.97804047 
   56100    190.95202    1395.6392    67412.137   -22164.028    1253.9293   -23417.957    22.319756   0.97804047 
   56200    192.01224    1571.5978    67412.137    -22163.98    1260.8915   -23424.871    22.529606   0.97804047 
   56300    187.08665     1556.457    67412.137   -22163.978    1228.5465   -23392.524    22.394669   0.97804047 
   56400    187.51057    1349.8385    67412.137   -22164.084    1231.3303   -23395.414    22.499948   0.97804047 
   56500    189.22607    1303.0673    67412.137   -22164.087    1242.5955   -23406.683    22.682792   0.97804047 
   56600    191.37925    1514.1849    67412.137   -22164.229    1256.7348   -23420.964    22.567088   0.97804047 
   56700    186.31407    1621.4943    67412.137   -22164.089    1223.4731   -23387.562    22.430281   0.97804047 
   56800    190.14653    1347.9716    67412.137   -22164.332    1248.6399   -23412.972    22.451655   0.97804047 
   56900    189.53466    1542.8448    67412.137   -22164.102    1244.6219   -23408.724     22.58767   0.97804047 
   57000    192.40766    1348.3048    67412.137   -22164.469    1263.4881   -23427.957    22.683048   0.97804047 
   57100    193.49491    1668.6584    67412.137    -22164.25    1270.6278   -23434.878    22.736394   0.97804047 
   57200    188.20256    1708.2197    67412.137   -22163.952    1235.8744   -23399.827     22.70081   0.97804047 
   57300    192.81874    1327.3896    67412.137   -22164.286    1266.1875   -23430.474    22.757484   0.97804047 
   57400    189.41701    1751.5186    67412.137   -22164.072    1243.8493   -23407.921    22.801001   0.97804047 
   57500    193.07505    1244.2969    67412.137   -22164.234    1267.8707   -23432.104    22.759573   0.97804047 
   57600    189.56582    1524.6691    67412.137   -22164.207    1244.8265   -23409.033    23.046437   0.97804047 
   57700    194.55886    1696.9035    67412.137   -22164.226    1277.6144   -23441.841    23.018747   0.97804047 
   57800    191.24772     1743.918    67412.137   -22164.101    1255.8711   -23419.973    22.929546   0.97804047 
   57900    192.94479    1620.4804    67412.137   -22164.289    1267.0153   -23431.304    22.813917   0.97804047 
   58000    189.64735     1438.316    67412.137   -22164.049    1245.3619   -23409.411    22.680779   0.97804047 
   58100    188.80665    1788.7728    67412.137   -22164.074    1239.8413   -23403.915    22.747314   0.97804047 
   58200     188.4917    1459.2289    67412.137   -22164.231    1237.7731   -23402.004    22.754895   0.97804047 
   58300    187.11879    1739.2502    67412.137   -22163.839    1228.7576   -23392.597     22.76956   0.97804047 
   58400    193.44865    1620.8053    67412.137   -22164.374     1270.324   -23434.698    22.690933   0.97804047 
   58500    192.52999    1775.1609    67412.137   -22164.007    1264.2914   -23428.298    22.773501   0.97804047 
   58600    190.64133    1351.4335    67412.137    -22164.17    1251.8891    -23416.06    22.798936   0.97804047 
   58700    192.23661    1454.4849    67412.137   -22164.131    1262.3649   -23426.496    22.815137   0.97804047 
   58800     186.2186     1431.853    67412.137   -22163.857    1222.8462   -23386.704    22.980728   0.97804047 
   58900    192.63211    1391.6813    67412.137   -22163.993     1264.962   -23428.955    23.036017   0.97804047 
   59000    197.74171    1332.0646    67412.137   -22164.233    1298.5153   -23462.749    23.219296   0.97804047 
   59100    192.06506    1412.0691    67412.137   -22164.312    1261.2383    -23425.55    23.143656   0.97804047 
   59200    191.04932     1737.213    67412.137   -22164.009    1254.5683   -23418.577    23.047498   0.97804047 
   59300    187.39246    1771.2761    67412.137   -22163.966    1230.5547   -23394.521    22.895191   0.97804047 
   59400    190.01779    1362.1243    67412.137    -22164.24    1247.7945   -23412.035    23.158969   0.97804047 
   59500    192.96544    1237.6769    67412.137   -22164.142    1267.1509   -23431.293    23.118382   0.97804047 
   59600    193.45276    1452.6483    67412.137   -22164.093     1270.351   -23434.444    22.923381   0.97804047 
   59700    187.00001    1347.2275    67412.137   -22163.901    1227.9776   -23391.879    23.029774   0.97804047 
   59800    190.95741    1437.8299    67412.137   -22164.205    1253.9647   -23418.169    23.179705   0.97804047 
   59900    197.33469    1967.9728    67412.137   -22164.322    1295.8425   -23460.165    23.269755   0.97804047 
   60000    193.24326    1583.0022    67412.137   -22164.099    1268.9752   -23433.074    23.254936   0.97804047 
   60100    191.31031    1680.0655    67412.137   -22164.094    1256.2821   -23420.376    23.393326   0.97804047 
   60200    194.40363    1616.5749    67412.137   -22164.247    1276.5951   -23440.842    23.426965   0.97804047 
   60300    189.11576     1411.552    67412.137    -22164.11    1241.8711   -23405.981    23.465562   0.97804047 
   60400    187.61059     1707.513    67412.137   -22164.042    1231.9871   -23396.029    23.556019   0.97804047 
   60500    192.47639    1865.7848    67412.137   -22163.982    1263.9394   -23427.921    23.418579   0.97804047 
   60600    192.81643    1343.2534    67412.137   -22164.172    1266.1724   -23430.344    23.437838   0.97804047 
   60700    190.51621    1464.2466    67412.137   -22164.096    1251.0675   -23415.163    23.554321   0.97804047 
   60800     190.4967    1509.5784    67412.137   -22163.981    1250.9394   -23414.921    23.866834   0.97804047 
   60900    187.74291    1482.9944    67412.137   -22164.023     1232.856   -23396.879    23.845795   0.97804047 
   61000    192.39219    1473.5652    67412.137   -22164.249    1263.3865   -23427.636    23.976446   0.97804047 
   61100    192.57374    1645.7545    67412.137   -22164.059    1264.5787   -23428.638    23.902893   0.97804047 
   61200    193.82198    1738.9947    67412.137   -22164.346    1272.7755   -23437.121    24.010071   0.97804047 
   61300    190.99298    1582.8963    67412.137   -22164.095    1254.1983   -23418.293    23.954751   0.97804047 
   61400    193.16231    1612.3264    67412.137   -22164.165    1268.4437   -23432.609    24.056923   0.97804047 
   61500    195.30471    1906.0837    67412.137   -22164.169    1282.5122   -23446.681    24.017813   0.97804047 
   61600    188.00294    1751.4829    67412.137   -22163.991    1234.5635   -23398.554    24.095874   0.97804047 
   61700    196.02978    1675.4617    67412.137   -22164.413    1287.2736   -23451.686    24.185447   0.97804047 
   61800    190.63114    1775.1908    67412.137   -22164.009    1251.8222   -23415.831    23.994087   0.97804047 
   61900    188.90463    1567.1803    67412.137   -22164.186    1240.4846   -23404.671    24.022006   0.97804047 
   62000    195.27413    1457.6208    67412.137    -22164.24    1282.3114   -23446.552    24.001935   0.97804047 
   62100    189.54751    1423.5813    67412.137   -22164.177    1244.7063   -23408.884    24.069919   0.97804047 
   62200    190.36367    1588.0636    67412.137   -22163.998    1250.0658   -23414.064    24.301506   0.97804047 
   62300    191.48539    1815.0086    67412.137   -22164.242    1257.4318   -23421.674    24.377055   0.97804047 
   62400    195.34048    2027.5307    67412.137   -22164.329    1282.7471   -23447.076    24.294559   0.97804047 
   62500    190.52001    1763.7629    67412.137   -22164.063    1251.0924   -23415.156    24.294779   0.97804047 
   62600    196.69703    1920.1442    67412.137   -22164.405    1291.6552    -23456.06     24.21826   0.97804047 
   62700    187.35352    1334.9714    67412.137   -22163.848    1230.2989   -23394.147    24.366659   0.97804047 
   62800    192.24822    1785.4341    67412.137   -22164.169    1262.4411   -23426.611     24.40677   0.97804047 
   62900    188.21879    1385.9215    67412.137   -22164.017    1235.9809   -23399.998    24.332075   0.97804047 
   63000    196.39158    1724.3621    67412.137   -22164.061    1289.6494    -23453.71    24.342289   0.97804047 
   63100    192.34136    1628.8814    67412.137    -22164.18    1263.0528   -23427.233    24.446081   0.97804047 
   63200    191.35558    1639.1167    67412.137   -22164.068    1256.5794   -23420.647    24.409835   0.97804047 
   63300    194.99127    1715.0987    67412.137   -22164.201    1280.4539   -23444.655    24.322141   0.97804047 
   63400    195.54455    1649.7503    67412.137   -22164.176    1284.0872   -23448.263    24.581939   0.97804047 
   63500    196.10871    1749.8969    67412.137   -22164.252    1287.7919   -23452.044    24.503869   0.97804047 
   63600    190.09671    1652.1587    67412.137   -22163.994    1248.3127   -23412.307    24.515133   0.97804047 
   63700    192.41467     1814.974    67412.137   -22164.108    1263.5341   -23427.643    24.620925   0.97804047 
   63800    196.39914     1675.336    67412.137   -22164.272     1289.699   -23453.971    24.777206   0.97804047 
   63900    192.83442    1699.6884    67412.137   -22164.252    1266.2905   -23430.542    24.903213   0.97804047 
   64000    191.49487    1590.8644    67412.137   -22163.941    1257.4941   -23421.435     24.86652   0.97804047 
   64100    191.00808    1539.6416    67412.137   -22164.072    1254.2974    -23418.37    25.063294   0.97804047 
   64200    193.68802    1730.8948    67412.137   -22164.206    1271.8959   -23436.102    25.073511   0.97804047 
   64300    199.53663    1638.9413    67412.137   -22164.415    1310.3021   -23474.717    24.945352   0.97804047 
   64400    193.51621    1358.7645    67412.137   -22164.302    1270.7677   -23435.069    25.008103   0.97804047 
   64500     193.3492    1636.2649    67412.137   -22164.091    1269.6709   -23433.762    25.253395   0.97804047 
   64600    195.10822     1624.034    67412.137   -22164.259    1281.2219   -23445.481    25.251746   0.97804047 
   64700    194.31542    1544.7752    67412.137    -22164.08    1276.0159   -23440.096    25.294996   0.97804047 
   64800    193.99769    1593.7988    67412.137   -22164.204    1273.9294   -23438.134     25.29464   0.97804047 
   64900    195.05056    1195.7202    67412.137   -22164.243    1280.8433   -23445.086    25.270084   0.97804047 
   65000    194.81842    1228.8642    67412.137   -22164.194    1279.3189   -23443.513    25.378281   0.97804047 
   65100    192.09396    1708.1475    67412.137   -22164.325    1261.4281   -23425.753    25.363911   0.97804047 
   65200    191.51541    1493.2443    67412.137   -22164.261    1257.6289    -23421.89    25.424462   0.97804047 
   65300    192.64778    1624.7858    67412.137   -22164.069    1265.0649   -23429.134    25.602274   0.97804047 
   65400    188.09634    1418.8326    67412.137   -22164.144    1235.1768   -23399.321    25.625837   0.97804047 
   65500     192.6935    1911.0931    67412.137   -22164.149    1265.3651   -23429.514    25.595582   0.97804047 
   65600    193.70563    1420.7054    67412.137   -22164.244    1272.0115   -23436.255     25.55549   0.97804047 
   65700    191.01401     1558.842    67412.137   -22164.167    1254.3364   -23418.504    25.600569   0.97804047 
   65800    194.19163    1520.5028    67412.137    -22164.23    1275.2029   -23439.433    25.802516   0.97804047 
   65900    192.02132    1737.3483    67412.137   -22164.147    1260.9511   -23425.098     25.86093   0.97804047 
   66000    194.62033    1249.9347    67412.137   -22164.205    1278.0181   -23442.223    26.096074   0.97804047 
   66100    191.60464    1638.5493    67412.137   -22164.246    1258.2149   -23422.461    25.972585   0.97804047 
   66200     193.6386    1869.6776    67412.137   -22164.301    1271.5714   -23435.873    25.884253   0.97804047 
   66300    189.42799    2045.2388    67412.137   -22163.974    1243.9214   -23407.895    25.904689   0.97804047 
   66400    196.88523    1921.2041    67412.137   -22164.374    1292.8911   -23457.266    26.009523   0.97804047 
   66500     194.7044    1846.4996    67412.137   -22164.349    1278.5701   -23442.919     26.00876   0.97804047 
   66600    196.59678     1914.248    67412.137   -22164.402    1290.9969   -23455.399    26.203929   0.97804047 
   66700    196.67973    2180.1887    67412.137    -22164.31    1291.5416   -23455.852    26.321412   0.97804047 
   66800        190.7    2003.8464    67412.137   -22164.131    1252.2744   -23416.405    26.345206   0.97804047 
   66900    194.97033    1947.1252    67412.137   -22164.421    1280.3165   -23444.737    26.326457   0.97804047 
   67000    190.80615    2223.3023    67412.137   -22164.048    1252.9714   -23417.019    26.345622   0.97804047 
[...]
  284400    236.81677   -497.95575    67774.357   -20727.914    1555.1105   -22283.024    739.73814   0.97281332 
  284500    237.13197   -498.85133    67774.357   -20728.038    1557.1803   -22285.218    739.54789   0.97281332 
  284600    238.23527   -533.55513    67774.357   -20728.017    1564.4254   -22292.442    739.90504   0.97281332 
  284700    239.00571    -830.8483    67774.357   -20728.126    1569.4847    -22297.61    741.21455   0.97281332 
  284800    237.90662   -954.14222    67774.357   -20728.027    1562.2673   -22290.294    741.80574   0.97281332 
  284900    243.20704   -714.93714    67774.357   -20728.159    1597.0736   -22325.232    741.42723   0.97281332 
  285000    237.00146    -681.6965    67774.357   -20728.029    1556.3233   -22284.352    741.40418   0.97281332 
  285100    244.95036   -432.16052    67774.357   -20728.132    1608.5215   -22336.653    741.22655   0.97281332 
  285200     244.5726    216.50793    67774.357   -20728.123    1606.0409   -22334.164    741.03058   0.97281332 
  285300    241.10698    352.58302    67774.357   -20728.078    1583.2831   -22311.361    741.75032   0.97281332 
  285400    238.87113   -427.92007    67774.357   -20727.911    1568.6009   -22296.512    742.55498   0.97281332 
  285500    241.73005   -665.52726    67774.357    -20728.09    1587.3746   -22315.465    742.69424   0.97281332 
  285600    245.02431   -629.37197    67774.357   -20728.187    1609.0072   -22337.194    743.21275   0.97281332 
  285700    241.97717    -461.8756    67774.357   -20728.331    1588.9974   -22317.328    743.93916   0.97281332 
  285800    250.69013   -540.85411    67774.357    -20728.18     1646.213   -22374.393    743.60509   0.97281332 
  285900    248.30563   -436.10348    67774.357   -20728.348    1630.5546   -22358.903    744.05366   0.97281332 
  286000    240.26839    -557.8054    67774.357   -20728.143    1577.7763    -22305.92    745.22599   0.97281332 
  286100    242.74643    -14.56933    67774.357   -20727.985    1594.0489   -22322.034    745.32828   0.97281332 
  286200    245.48378   -172.88079    67774.357   -20728.094    1612.0244   -22340.119    746.23588   0.97281332 
  286300    242.18451   -906.40597    67774.357   -20728.119     1590.359   -22318.478      747.237   0.97281332 
  286400     232.7624   -982.67156    67774.357   -20727.712    1528.4866   -22256.198    746.96101   0.97281332 
  286500     245.5607   -602.40654    67774.357   -20728.319    1612.5295   -22340.849    747.20619   0.97281332 
  286600    241.69003   -345.25468    67774.357   -20728.088    1587.1118     -22315.2    747.31237   0.97281332 
  286700    239.31587   -301.47206    67774.357   -20727.879    1571.5214   -22299.401    747.10591   0.97281332 
  286800    238.14873     -763.604    67774.357   -20727.958    1563.8571   -22291.815    748.09893   0.97281332 
  286900    240.94287   -835.06022    67774.357   -20728.112    1582.2054   -22310.317    749.45555   0.97281332 
  287000    235.66101   -1002.2721    67774.357    -20727.87     1547.521   -22275.391    749.88086   0.97281332 
  287100    246.12741   -313.40632    67774.357   -20728.354    1616.2509   -22344.605     749.8215   0.97281332 
  287200    238.71363   -1052.0607    67774.357   -20727.966    1567.5666   -22295.532    750.86619   0.97281332 
  287300     241.8175   -855.48138    67774.357   -20728.167    1587.9489   -22316.116    751.42145   0.97281332 
  287400     242.0478   -1150.4595    67774.357   -20728.219    1589.4613    -22317.68    751.45277   0.97281332 
  287500    240.22224   -846.00562    67774.357   -20728.093    1577.4733   -22305.566    752.37284   0.97281332 
  287600    237.46164   -236.49759    67774.357   -20727.939    1559.3452   -22287.284    753.33508   0.97281332 
  287700    244.41543   -196.46742    67774.357   -20728.243    1605.0088   -22333.252    753.57178   0.97281332 
  287800    244.69292   -351.49108    67774.357   -20727.987     1606.831   -22334.818    754.66206   0.97281332 
  287900    243.22118    -608.4555    67774.357   -20727.842    1597.1665   -22325.009     755.3721   0.97281332 
  288000    242.93406   -650.89929    67774.357   -20728.083     1595.281   -22323.364    755.32385   0.97281332 
  288100    244.95303    -824.5854    67774.357   -20727.969    1608.5391   -22336.508     756.1309   0.97281332 
  288200    238.65498   -505.33538    67774.357   -20728.208    1567.1815    -22295.39    756.56179   0.97281332 
  288300    244.56383   -705.26086    67774.357   -20728.179    1605.9833   -22334.162    756.60435   0.97281332 
  288400    236.70441   -197.41754    67774.357   -20727.927    1554.3727     -22282.3    757.24089   0.97281332 
  288500    242.43652   -866.94968    67774.357   -20728.139    1592.0139   -22320.153    758.24739   0.97281332 
  288600    246.79505   -947.37045    67774.357   -20728.045    1620.6351    -22348.68    759.70533   0.97281332 
  288700    239.14566   -585.79287    67774.357   -20727.927    1570.4036    -22298.33    759.45833   0.97281332 
  288800    232.27672   -680.68865    67774.357    -20727.86    1525.2972   -22253.157    760.47887   0.97281332 
  288900    240.31389   -336.31339    67774.357   -20727.828    1578.0751   -22305.903    760.60576   0.97281332 
  289000    243.40345   -587.99091    67774.357   -20728.031    1598.3634   -22326.394    759.88932   0.97281332 
  289100    245.27378   -492.04768    67774.357    -20728.25    1610.6453   -22338.895    759.93252   0.97281332 
  289200    248.62477   -779.09367    67774.357   -20728.171    1632.6504   -22360.822    760.23213   0.97281332 
  289300    248.73084   -147.61103    67774.357   -20728.049    1633.3469   -22361.396    761.35838   0.97281332 
  289400    242.79042   -709.25682    67774.357   -20728.092    1594.3378   -22322.429    761.08648   0.97281332 
  289500    241.37694   -297.81606    67774.357    -20728.13    1585.0558   -22313.186    761.27219   0.97281332 
  289600    236.48847   -689.20143    67774.357   -20728.157    1552.9547   -22281.111    761.67757   0.97281332 
  289700     245.7639   -521.80386    67774.357   -20728.014    1613.8639   -22341.878    761.94906   0.97281332 
  289800    244.71519   -461.11365    67774.357   -20728.024    1606.9773   -22335.001    761.40623   0.97281332 
  289900    240.29033   -471.03791    67774.357   -20728.127    1577.9204   -22306.048    761.38291   0.97281332 
  290000    248.08488     -774.775    67774.357   -20728.248    1629.1051   -22357.353    761.71127   0.97281332 
  290100    246.38311   -276.71536    67774.357   -20728.438      1617.93   -22346.368    762.81802   0.97281332 
  290200    242.79926   -684.13619    67774.357   -20728.144    1594.3958    -22322.54      761.914   0.97281332 
  290300    244.50255   -495.85669    67774.357   -20728.296    1605.5809   -22333.877    762.55435   0.97281332 
  290400    242.72411   -624.51633    67774.357   -20728.035    1593.9023   -22321.937    763.12507   0.97281332 
  290500    238.38826   -453.81631    67774.357   -20727.917      1565.43   -22293.347    763.76486   0.97281332 
  290600    244.00704   -396.28565    67774.357   -20728.088     1602.327   -22330.415    764.24898   0.97281332 
  290700    245.67425   -476.27062    67774.357   -20728.183    1613.2751   -22341.458    764.70102   0.97281332 
  290800     241.4534   -745.13619    67774.357   -20728.042     1585.558     -22313.6    765.27696   0.97281332 
  290900    239.09068   -1128.2391    67774.357   -20727.954    1570.0426   -22297.996    765.58934   0.97281332 
  291000    236.90332   -539.05933    67774.357   -20727.944    1555.6789   -22283.623    765.50628   0.97281332 
  291100    243.05985   -970.69111    67774.357    -20727.94    1596.1071   -22324.047    767.06529   0.97281332 
  291200    241.40818   -538.40783    67774.357   -20728.326     1585.261   -22313.587    767.64549   0.97281332 
  291300    242.65579   -841.47775    67774.357   -20728.078    1593.4537   -22321.531    768.18158   0.97281332 
  291400     241.4316   -440.45693    67774.357   -20727.994    1585.4148   -22313.409    769.31386   0.97281332 
  291500    248.59468   -601.58057    67774.357   -20727.939    1632.4528   -22360.392    769.26269   0.97281332 
  291600    242.54993   -535.30361    67774.357   -20727.895    1592.7586   -22320.654    770.43346   0.97281332 
  291700    240.93347   -496.99825    67774.357   -20728.127    1582.1437   -22310.271    768.69466   0.97281332 
  291800    230.71458   -619.92105    67774.357   -20727.822    1515.0391   -22242.862    768.22484   0.97281332 
  291900    236.61538   -985.52133    67774.357   -20727.978     1553.788   -22281.766    768.40559   0.97281332 
  292000    244.00915   -993.33957    67774.357   -20728.252    1602.3408   -22330.593    769.29388   0.97281332 
  292100    239.33536   -735.91903    67774.357   -20727.924    1571.6494   -22299.573    770.75616   0.97281332 
  292200    247.92894   -616.65328    67774.357   -20728.329    1628.0811    -22356.41    770.41888   0.97281332 
  292300     240.6363   -564.67544    67774.357   -20727.924    1580.1923   -22308.116     770.9399   0.97281332 
  292400    248.39828   -644.95167    67774.357   -20728.323    1631.1631   -22359.487    772.74438   0.97281332 
  292500    241.45679   -447.95207    67774.357   -20727.976    1585.5802   -22313.556    773.42043   0.97281332 
  292600    243.55747   -12.648862    67774.357   -20728.133    1599.3748   -22327.507    773.87575   0.97281332 
  292700    242.18245   -520.76532    67774.357   -20727.973    1590.3455   -22318.319    773.62906   0.97281332 
  292800    246.58622   -352.72093    67774.357   -20728.258    1619.2638   -22347.522    773.99917   0.97281332 
  292900     243.5853   -232.41204    67774.357   -20728.249    1599.5576   -22327.806    773.80042   0.97281332 
  293000    248.23485   -279.14286    67774.357   -20728.254    1630.0899   -22358.344    774.07327   0.97281332 
  293100    248.48635   -182.08485    67774.357   -20728.313    1631.7414   -22360.054    774.12861   0.97281332 
  293200    242.75905   -56.909679    67774.357    -20728.16    1594.1318   -22322.292    775.80231   0.97281332 
  293300    242.10799   -287.49828    67774.357   -20728.029    1589.8564   -22317.886    774.92237   0.97281332 
  293400    244.66348   -209.92792    67774.357   -20728.102    1606.6377    -22334.74    777.06045   0.97281332 
  293500    243.43385     -230.168    67774.357   -20728.077     1598.563    -22326.64    777.11539   0.97281332 
  293600    235.59933    6.1280008    67774.357   -20727.958    1547.1159   -22275.074    777.18121   0.97281332 
  293700    243.40962   -354.02507    67774.357   -20727.971    1598.4039   -22326.375    777.86879   0.97281332 
  293800    246.75454   -650.74832    67774.357   -20728.134    1620.3691   -22348.503     778.3478   0.97281332 
  293900    242.38489   -575.98969    67774.357   -20727.981    1591.6748   -22319.656    778.56414   0.97281332 
  294000    244.89398   -244.43443    67774.357   -20728.031    1608.1513   -22336.182    779.34547   0.97281332 
  294100    240.39399      -430.45    67774.357    -20727.88    1578.6011   -22306.481    780.35771   0.97281332 
  294200    241.55609   -322.86063    67774.357   -20728.057    1586.2323   -22314.289    779.36374   0.97281332 
  294300    241.62551   -649.68102    67774.357    -20728.05    1586.6882   -22314.739    779.36376   0.97281332 
  294400    243.56254   -459.46068    67774.357   -20727.934    1599.4081   -22327.342    779.44378   0.97281332 
  294500    243.46251   -434.05322    67774.357   -20728.169    1598.7512    -22326.92    779.08326   0.97281332 
  294600    248.60363   -201.71765    67774.357   -20728.276    1632.5116   -22360.788    780.14425   0.97281332 
  294700    244.37947   -391.62617    67774.357   -20728.124    1604.7726   -22332.897    781.37641   0.97281332 
  294800    243.49661   -33.110671    67774.357   -20728.101    1598.9751   -22327.076    782.29323   0.97281332 
  294900    251.47514   -214.96478    67774.357   -20728.482     1651.368    -22379.85    782.09181   0.97281332 
  295000    242.02263   -318.21047    67774.357   -20728.041     1589.296   -22317.337    781.53305   0.97281332 
  295100    246.09537    -881.4584    67774.357   -20728.165    1616.0405   -22344.205    781.99306   0.97281332 
  295200    241.54276    -1037.039    67774.357   -20728.036    1586.1448   -22314.181    781.79599   0.97281332 
  295300    244.46725   -827.91708    67774.357   -20728.166    1605.3491   -22333.515    782.17782   0.97281332 
  295400    244.10612   -724.72521    67774.357   -20728.186    1602.9777   -22331.164    781.79942   0.97281332 
  295500    245.73531   -526.63613    67774.357   -20728.186    1613.6761   -22341.862    781.07633   0.97281332 
  295600     244.2081   -847.39277    67774.357   -20728.134    1603.6473   -22331.782    781.78611   0.97281332 
  295700    248.57805   -746.56004    67774.357    -20728.29    1632.3436   -22360.633    783.13393   0.97281332 
  295800    242.94792   -560.33917    67774.357   -20728.052    1595.3721   -22323.424     782.8755   0.97281332 
  295900    241.76738   -396.20964    67774.357   -20728.139    1587.6198   -22315.758    784.00362   0.97281332 
  296000    244.60785   -933.88773    67774.357    -20728.42    1606.2724   -22334.692    785.20967   0.97281332 
  296100    243.58282   -530.07565    67774.357   -20728.129    1599.5413   -22327.671    784.29523   0.97281332 
  296200    241.29532   -666.05501    67774.357    -20728.08    1584.5199     -22312.6    784.42183   0.97281332 
  296300    237.08063   -535.58231    67774.357   -20728.102    1556.8432   -22284.945    785.43515   0.97281332 
  296400      245.284   -520.02857    67774.357   -20728.179    1610.7124   -22338.892    784.41291   0.97281332 
  296500    241.23562   -82.354898    67774.357   -20728.145    1584.1279   -22312.273      785.212   0.97281332 
  296600    248.05448   -73.746955    67774.357   -20728.221    1628.9055   -22357.127    786.65477   0.97281332 
  296700    238.22512   -396.53535    67774.357   -20727.732    1564.3588   -22292.091    788.28302   0.97281332 
  296800    249.33155   -106.92951    67774.357   -20728.382    1637.2916   -22365.674    789.37053   0.97281332 
  296900    241.06023   -674.58971    67774.357   -20728.153    1582.9761   -22311.129    790.54252   0.97281332 
  297000     241.7239   -153.48811    67774.357   -20728.089    1587.3342   -22315.423    790.82873   0.97281332 
  297100    243.87407   -303.83379    67774.357   -20728.266    1601.4538    -22329.72    791.92579   0.97281332 
  297200    240.56937    -709.3653    67774.357   -20728.037    1579.7528    -22307.79    792.01332   0.97281332 
  297300    241.22309   -775.72988    67774.357   -20727.938    1584.0456   -22311.983     792.9036   0.97281332 
  297400    243.14544   -858.65263    67774.357   -20728.111    1596.6691    -22324.78    793.25441   0.97281332 
  297500    241.16616   -778.33788    67774.357   -20728.063    1583.6718   -22311.734    793.32323   0.97281332 
  297600    244.58613   -870.24948    67774.357   -20728.291    1606.1297    -22334.42    793.79196   0.97281332 
  297700    237.65252   -367.27578    67774.357   -20728.119    1560.5986   -22288.717    794.53275   0.97281332 
  297800    237.26518   -150.06322    67774.357   -20727.944    1558.0551       -22286    795.09442   0.97281332 
  297900    239.54231    -397.8005    67774.357   -20727.967    1573.0084   -22300.975    793.59639   0.97281332 
  298000    243.01044   -392.21892    67774.357   -20728.208    1595.7826   -22323.991    794.82345   0.97281332 
  298100    239.37168   -159.78773    67774.357   -20727.895    1571.8879   -22299.783    796.04263   0.97281332 
  298200    243.67699   -196.82603    67774.357   -20728.021    1600.1597   -22328.181    796.82443   0.97281332 
  298300    236.36986   -690.42979    67774.357   -20727.882    1552.1758   -22280.057    796.43812   0.97281332 
  298400     235.7801   -467.69966    67774.357   -20727.837     1548.303    -22276.14    797.51205   0.97281332 
  298500    234.61402   -466.04876    67774.357    -20727.93    1540.6456   -22268.575    797.62815   0.97281332 
  298600      237.594   -261.68084    67774.357   -20728.001    1560.2144   -22288.215    796.98308   0.97281332 
  298700    237.03774   -431.34057    67774.357   -20728.165    1556.5615   -22284.726    798.26823   0.97281332 
  298800    243.39777   -163.20281    67774.357   -20728.267    1598.3261   -22326.593    798.01881   0.97281332 
  298900    236.98847   -112.19185    67774.357   -20727.963     1556.238   -22284.201    799.29883   0.97281332 
  299000     245.1775   -613.86345    67774.357   -20728.252    1610.0131   -22338.265    800.97374   0.97281332 
  299100    237.35463    -141.0993    67774.357   -20728.011    1558.6424   -22286.654    800.55218   0.97281332 
  299200    241.89465   -759.25862    67774.357   -20727.866    1588.4555   -22316.322    802.04593   0.97281332 
  299300    241.44117   -837.53884    67774.357   -20728.097    1585.4777   -22313.575    803.32429   0.97281332 
  299400    242.93628   -687.47305    67774.357   -20727.894    1595.2956   -22323.189    803.26347   0.97281332 
  299500     237.4366   -819.58744    67774.357    -20727.91    1559.1807   -22287.091    804.34055   0.97281332 
  299600    237.11506   -458.54519    67774.357   -20727.902    1557.0693   -22284.971    805.29212   0.97281332 
  299700    244.32009   -442.63386    67774.357   -20728.041    1604.3827   -22332.424    806.05577   0.97281332 
  299800    247.36068    -140.1017    67774.357   -20728.208    1624.3495   -22352.557    806.79506   0.97281332 
  299900    242.21736   -459.07972    67774.357   -20728.165    1590.5747    -22318.74    808.56785   0.97281332 
  300000    246.37354   -229.51186    67774.357   -20728.389    1617.8671   -22346.256    809.23788   0.97281332 
  300100    240.33435   -213.08404    67774.357   -20728.112    1578.2095   -22306.322     809.7027   0.97281332 
  300200    240.73891    -352.9215    67774.357    -20727.81    1580.8661   -22308.676    809.82417   0.97281332 
  300300    240.38417   -552.32303    67774.357   -20728.054    1578.5367   -22306.591    809.61495   0.97281332 
  300400    240.75836   -347.63684    67774.357   -20728.211    1580.9939   -22309.205    810.70185   0.97281332 
  300500    238.06666   -469.36078    67774.357   -20727.878    1563.3182   -22291.197    810.70822   0.97281332 
  300600    243.71329   -663.68501    67774.357   -20728.074     1600.398   -22328.472     810.2593   0.97281332 
  300623     244.1158   -147.78529    67774.357   -20728.069    1603.0412    -22331.11    810.01957   0.97281332 
Loop time of 53.1564 on 12 procs for 100000 steps with 2204 atoms

Performance: 812.697 ns/day, 0.030 hours/ns, 1881.243 timesteps/s
96.0% CPU use with 12 MPI tasks x no OpenMP threads

MPI task timing breakdown:
Section |  min time  |  avg time  |  max time  |%varavg| %total
---------------------------------------------------------------
Pair    | 30.726     | 31.762     | 34.037     |  15.1 | 59.75
Neigh   | 1.853      | 1.893      | 1.9449     |   2.2 |  3.56
Comm    | 13.868     | 16.137     | 17.301     |  21.7 | 30.36
Output  | 0.15168    | 0.16953    | 0.21056    |   3.2 |  0.32
Modify  | 0.77032    | 0.81198    | 0.85144    |   2.7 |  1.53
Other   |            | 2.383      |            |       |  4.48

Nlocal:        183.667 ave         196 max         175 min
Histogram: 2 3 1 0 1 0 3 1 0 1
Nghost:        687.667 ave         698 max         675 min
Histogram: 1 0 0 3 2 2 0 1 1 2
Neighs:        0.00000 ave           0 max           0 min
Histogram: 12 0 0 0 0 0 0 0 0 0
FullNghs:      5185.83 ave        5586 max        4926 min
Histogram: 4 1 0 0 2 1 2 1 0 1

Total # of neighbors = 62230
Ave neighs/atom = 28.235027
Neighbor list builds = 5755
Dangerous builds = 0

write_data		data.${NAME}
write_data		data.ML_m500atm_245K
System init for write_data ...
Total wall time: 0:02:36
