
# read in water data
read_data data.ML_m500atm_245K group water extra/atom/types 1
Reading data file ...
  orthogonal box = (0.0000000 0.0000000 -0.075063929) to (49.220000 49.019636 28.015064)
  3 by 2 by 2 MPI processor grid
  reading atoms ...
  2204 atoms
  reading velocities ...
  2204 velocities
  read_data CPU = 0.005 seconds

# remove area for graphite
region substrate block 0 ${XDIM} 0 ${YDIM} 0 ${Z_G}
region substrate block 0 49.22 0 ${YDIM} 0 ${Z_G}
region substrate block 0 49.22 0 49.019635930410494 0 ${Z_G}
region substrate block 0 49.22 0 49.019635930410494 0 10.062
delete_atoms region substrate
Deleted 803 atoms, new total = 1401

# Insert substrate
read_data data.graphite add append shift 0.0 0.0 0.0 group graphite offset 1 0 0 0 0
Reading data file ...
  orthogonal box = (0.0000000 0.0000000 -0.075063929) to (49.220000 49.019636 28.015064)
  3 by 2 by 2 MPI processor grid
  reading atoms ...
  2760 atoms
  reading velocities ...
  2760 velocities
  read_data CPU = 0.005 seconds


# Define potential
# CHECK ON THIS %%%%%%%%%%%%
#
pair_style sw
pair_coeff * * MLC_e.sw mW C


# Delete water and ice atoms that are overlapping
#
delete_atoms overlap 2.5 water graphite
System init for delete_atoms ...
Neighbor list info ...
  update every 1 steps, delay 10 steps, check yes
  max neighbors/atom: 2000, page size: 100000
  master list distance cutoff = 6.6747184
  ghost atom cutoff = 6.6747184
  binsize = 3.3373592, bins = 15 15 9
  2 neighbor lists, perpetual/occasional/extra = 1 1 0
  (1) command delete_atoms, occasional, copy from (2)
      attributes: full, newton on
      pair build: copy
      stencil: none
      bin: none
  (2) pair sw, perpetual
      attributes: full, newton on
      pair build: full/bin/atomonly
      stencil: full/bin/3d
      bin: standard
Deleted 98 atoms, new total = 4063

# set timestep
#
timestep 10.0

# Define output
#

compute 1 all msd
compute 2 water temp
compute        peratom water stress/atom NULL
compute        p water reduce sum c_peratom[1] c_peratom[2] c_peratom[3]
variable       water_press equal -(c_p[1]+c_p[2]+c_p[3])/(3*(vol-24277.055086535))

thermo 50
thermo_style custom step c_2 v_water_press vol etotal ke pe c_1[4]

# Neighbor lists
#
neigh_modify delay 0 every 1 check yes


# Fix graphite atoms in place
#
fix 1 graphite setforce 0.0 0.0 0.0
velocity graphite set 0.0 0.0 0.0


### Set fixes ###
#

# Run 0.25 ns equilibration of water in NPH ensemble
#
fix 2 water momentum 10 linear 1 1 1 rescale
fix 3 water nph z ${PRES} ${PRES} ${PCOUPL}
fix 3 water nph z -500 ${PRES} ${PCOUPL}
fix 3 water nph z -500 -500 ${PCOUPL}
fix 3 water nph z -500 -500 10000.0
fix 4 water temp/csvr ${TEMP} ${TEMP} ${TCOUPL} 837492
fix 4 water temp/csvr 250 ${TEMP} ${TCOUPL} 837492
fix 4 water temp/csvr 250 250 ${TCOUPL} 837492
fix 4 water temp/csvr 250 250 5000.0 837492

dump 	1 all atom 2000 nph.${NAME}.dump
dump 	1 all atom 2000 nph.ML_graphite_m500atm_250K.dump
run 	25000
Neighbor list info ...
  update every 1 steps, delay 0 steps, check yes
  max neighbors/atom: 2000, page size: 100000
  master list distance cutoff = 6.6747184
  ghost atom cutoff = 6.6747184
  binsize = 3.3373592, bins = 15 15 9
  1 neighbor lists, perpetual/occasional/extra = 1 0 0
  (1) pair sw, perpetual
      attributes: full, newton on
      pair build: full/bin/atomonly
      stencil: full/bin/3d
      bin: standard
Per MPI rank memory allocation (min/avg/max) = 5.323 | 5.325 | 5.329 Mbytes
Step c_2 v_water_press Volume TotEng KinEng PotEng c_1[4] 
       0    243.32721   -2057.2203    67774.357    -11706.64    944.35647   -12650.997            0 
      50     264.6732   -3911.1868    67465.146   -11737.198    1027.2006   -12764.399   0.43901353 
     100    272.62587   -3924.5481    66655.107   -11766.234     1058.065   -12824.299    0.7890668 
     150    276.33987    -2542.319    65881.415   -11783.993    1072.4791   -12856.472    1.1642193 
     200    296.17814   -2934.0994    65261.551   -11852.077    1149.4717   -13001.549    1.4493077 
     250    279.16537   -2754.8427    64692.334    -11878.95    1083.4449   -12962.394    1.8229972 
     300    282.80003   -2268.6957    64177.015   -11875.325    1097.5511   -12972.876    2.2489406 
     350    281.14473   -2602.0382    63720.432   -11924.977    1091.1268   -13016.104    2.6467096 
     400    284.75696   -2428.4697    63303.602   -11952.092     1105.146   -13057.238    2.9871698 
     450    276.47796   -1756.9667    62921.617   -11963.456     1073.015   -13036.471    3.3595383 
     500    285.24454   -1936.5405    62556.636    -11999.64    1107.0383   -13106.678     3.719161 
     550    275.43255   -1900.3917    62242.679    -12025.15    1068.9578   -13094.108    4.1046571 
     600    282.05958   -1964.8195    61941.751   -12050.378    1094.6774   -13145.056     4.407754 
     650    277.95588   -893.04859    61681.246   -12069.422    1078.7509   -13148.173    4.7304728 
     700    280.33052   -1987.9132    61478.942   -12081.059    1087.9669   -13169.026    5.0034632 
     750    276.11054   -1322.8818     61272.32   -12101.196    1071.5891   -13172.785    5.4125483 
     800    270.95659   -1306.9222     61107.93   -12109.984    1051.5865    -13161.57    5.7501553 
     850    282.79074   -1257.1594    60931.976   -12116.415     1097.515    -13213.93    6.1294929 
     900    289.83848   -1199.1912    60788.264    -12134.04    1124.8674   -13258.908    6.4353367 
     950    278.38415   -585.83078    60678.709   -12145.076     1080.413   -13225.489    6.6687342 
    1000    284.95241   -485.95294    60578.203   -12159.686    1105.9045    -13265.59    6.9354862 
    1050    281.78698    -1128.828    60488.268   -12182.241    1093.6194   -13275.861    7.1600431 
    1100    267.34928   -834.23779    60386.692   -12204.809    1037.5865   -13242.395    7.3776657 
    1150    276.64855   -1607.4784    60314.989   -12218.002    1073.6771   -13291.679    7.5758813 
    1200    271.87681   -1275.2411    60211.797   -12242.268    1055.1579   -13297.426    7.8978276 
    1250    265.36836   -1168.0611    60077.247   -12254.756    1029.8985   -13284.655     8.167975 
    1300    279.64615    -1007.347    59951.669   -12270.315    1085.3108   -13355.626    8.3918845 
    1350    266.92532    -1977.517    59806.077   -12290.371    1035.9411   -13326.312    8.6017055 
    1400    272.11513    -1488.525    59603.285   -12286.092    1056.0828   -13342.174    8.9669241 
    1450    266.99689   -1650.9855    59411.896       -12297    1036.2188   -13333.219    9.3195102 
    1500     265.1568    -1385.162        59232   -12319.964    1029.0774   -13349.041    9.5888556 
    1550    269.04573   -738.08168    59079.306   -12323.436    1044.1704   -13367.607    9.8185127 
    1600    270.77483   -1633.3689    58969.826   -12334.719    1050.8811     -13385.6    10.040056 
    1650    267.83691   -417.51981    58855.869   -12365.047     1039.479   -13404.526    10.320231 
    1700    265.11508   -683.16117    58746.891   -12356.956    1028.9155   -13385.871     10.54701 
    1750    263.00443    -1183.059     58648.74   -12366.221    1020.7241   -13386.945    10.784228 
    1800     256.9703   -699.28366    58561.197   -12369.304    997.30551   -13366.609    11.007188 
    1850     259.7191   -660.38636    58523.497   -12368.268    1007.9736   -13376.242    11.246761 
    1900    270.15307   -1247.7585    58488.156   -12354.619     1048.468   -13403.087    11.439954 
    1950    259.32677   -485.90524      58451.2    -12355.08     1006.451   -13361.531    11.722813 
    2000    273.44563   -848.68545    58461.807   -12357.923    1061.2465   -13419.169    11.905183 
    2050    258.78512   -907.67507    58477.797   -12374.236    1004.3489   -13378.585    12.135581 
    2100    267.94345    -1455.707    58481.008   -12392.054    1039.8924   -13431.946    12.476629 
    2150    268.08113   -1082.8333    58485.916   -12387.511    1040.4268   -13427.938    12.473777 
    2200    256.54184   -354.43043    58474.379   -12398.166    995.64264   -13393.809    12.590777 
    2250    265.19424   -989.48234    58463.633   -12400.885    1029.2228   -13430.108    12.777388 
    2300     268.2947    32.830848    58434.687   -12375.871    1041.2557   -13417.127    13.024466 
    2350    269.11043   -1229.6342    58412.029   -12375.642    1044.4215   -13420.063    13.277802 
    2400     267.5848   -1507.3176     58372.15   -12381.606    1038.5005   -13420.107     13.51583 
    2450    273.53823   -1352.6064    58344.527   -12384.427    1061.6059   -13446.033    13.690303 
    2500    266.35539   -945.02863    58322.715   -12381.818    1033.7292   -13415.547    13.924918 
    2550    264.34582   -862.87788    58308.251   -12380.478      1025.93   -13406.408     14.33246 
    2600    263.35744   -771.37154    58287.217   -12387.168    1022.0941   -13409.262    14.470672 
    2650    275.15274    -763.4996    58278.882   -12379.535    1067.8718   -13447.406    14.706564 
    2700    269.46045   -961.26328    58320.638   -12399.469      1045.78   -13445.249    14.935175 
    2750    260.62188   -1044.3245    58378.445   -12409.515    1011.4774   -13420.992    15.018399 
    2800    261.43735   -777.70158    58432.446   -12412.726    1014.6422   -13427.369    15.264342 
    2850    261.43604   -1387.3079    58487.127   -12427.758    1014.6371   -13442.395    15.283816 
    2900    256.08279   -1059.5216    58497.361   -12440.348    993.86109   -13434.209    15.486437 
    2950    257.96669   -1458.2206    58454.388   -12448.191    1001.1725   -13449.364    15.624923 
    3000    254.54511   -905.35363     58336.11   -12441.028    987.89333   -13428.922    15.979062 
    3050    249.34335   -778.10665    58195.222   -12441.296    967.70521   -13409.001    16.289461 
    3100    261.99382   -587.81606    58113.336   -12453.458    1016.8018    -13470.26    16.464086 
    3150    270.70794   -760.05295    58085.165   -12454.457    1050.6215   -13505.079    16.750122 
    3200    262.59263    -1040.907    58081.872   -12446.244    1019.1259   -13465.369    17.001171 
    3250    258.60883   -785.71702    58084.756   -12440.448    1003.6647   -13444.112    17.175005 
    3300    264.60873   -863.08645     58118.25   -12426.568    1026.9504   -13453.518    17.218367 
    3350    266.74251   -622.45275    58206.769   -12416.184    1035.2316   -13451.415    17.345093 
    3400    257.49852    -824.4778    58345.321    -12441.86    999.35552   -13441.215    17.507595 
    3450    256.05326   -1422.1507    58454.469   -12442.458    993.74648   -13436.205    17.475223 
    3500     261.2328   -1223.6459    58496.794   -12446.644    1013.8483   -13460.492    17.587781 
    3550    257.25999   -847.82913    58522.296   -12440.723    998.42981   -13439.152    17.915367 
    3600    267.25969   -1548.4052    58519.899    -12454.41    1037.2388   -13491.649    18.141798 
    3650    250.14784    -1090.866    58471.951   -12455.249    970.82743   -13426.076     18.38827 
    3700    254.52152    -958.7258    58412.584   -12460.579    987.80175    -13448.38    18.731027 
    3750    260.33504   -365.46673    58368.624   -12462.519    1010.3641   -13472.883    18.804712 
    3800     257.9921   -310.91551     58368.56   -12480.834    1001.2711   -13482.105    18.949619 
    3850    251.45352   -605.64128    58425.095   -12484.275     975.8948   -13460.169    19.062669 
    3900    248.93322   -1023.0535    58481.585   -12485.164    966.11348   -13451.278    19.282239 
    3950    251.45552   -969.61429    58540.459   -12480.305    975.90258   -13456.207    19.397848 
    4000    242.47141    -1449.748    58584.021   -12483.501    941.03509   -13424.536    19.594744 
    4050    256.34119   -646.77031    58580.683   -12482.581    994.86393   -13477.445    19.810705 
    4100     251.6518   -729.87475    58542.899   -12479.419    976.66435   -13456.083    19.967994 
    4150    256.94586   -1123.6703    58514.278   -12467.941    997.21064   -13465.151    20.228706 
    4200    262.05416   -520.79708    58489.315   -12482.238     1017.036   -13499.274    20.389646 
    4250    265.80227   -1454.9214     58457.55   -12472.011    1031.5825   -13503.594    20.396915 
    4300    262.24749   -533.28411    58367.309   -12484.543    1017.7864   -13502.329    20.591298 
    4350    261.15742   -205.66391    58275.428   -12486.575    1013.5558    -13500.13     20.78192 
    4400    252.74513   -1362.0709    58241.191   -12481.756    980.90756   -13462.663    20.933452 
    4450    262.71458   -280.04562    58263.302   -12471.387    1019.5991   -13490.987     21.14233 
    4500    260.97328   -1223.3043    58339.064    -12453.37    1012.8411   -13466.211    21.238171 
    4550    257.67093   -1738.5252      58391.9   -12453.474    1000.0246   -13453.499    21.354895 
    4600    257.00235   -1844.2184    58385.772   -12455.488    997.42989   -13452.918    21.484489 
    4650    260.04192   -1271.3009    58294.418   -12443.802    1009.2265   -13453.029    21.776814 
    4700    263.28012    -668.7756    58203.346   -12431.299     1021.794   -13453.093    22.034944 
    4750     260.6555   -1070.0317    58138.804   -12435.303    1011.6078   -13446.911    22.192984 
    4800    262.32379    -1049.452     58119.58   -12442.694    1018.0825   -13460.776    22.400803 
    4850    256.81625   -621.70987    58146.751   -12445.936    996.70763   -13442.644    22.509814 
    4900    258.42683   -1506.0772    58161.546    -12445.06    1002.9583   -13448.018    22.622698 
    4950    262.74716   -950.90146    58140.248    -12448.49    1019.7256   -13468.216    22.838667 
    5000    254.29495    -1052.275    58125.276   -12460.827    986.92244    -13447.75    23.068515 
    5050    252.11419   -497.83077    58130.565   -12467.927    978.45886   -13446.386    23.209986 
    5100    257.23418   -1230.6675     58148.92   -12475.777    998.32963   -13474.107    23.407549 
    5150    251.42016   -1607.3937    58137.565   -12488.196    975.76534   -13463.962    23.458671 
    5200    250.85449   -1123.8088    58067.555   -12477.403    973.56996   -13450.973    23.630601 
    5250    262.46515    122.66406     57993.81   -12482.035    1018.6311   -13500.666    23.846392 
    5300    253.54387    -499.3764    57994.902    -12481.41     984.0075   -13465.418    24.051731 
    5350    259.24276   -36.204001    58056.315   -12479.861     1006.125   -13485.986    24.270175 
    5400    252.30923   -646.18124    58161.216   -12487.522    979.21584   -13466.738    24.361753 
    5450    255.17953   -1307.9682    58247.596   -12496.011     990.3555   -13486.367    24.490848 
    5500    252.98663   -1410.6062     58298.09   -12495.518    981.84484   -13477.362    24.674398 
    5550    252.96323   -1096.0562    58278.457   -12512.221    981.75402   -13493.975    24.899736 
    5600    252.38388   -1246.6711    58219.835   -12531.742    979.50554   -13511.248    25.088318 
    5650    248.05213   -1230.6494    58151.012   -12556.822    962.69397   -13519.516    25.280611 
    5700    250.90101   -1086.6746    58105.128   -12551.667    973.75051   -13525.418    25.418956 
    5750    250.53138   -675.06111    58062.427   -12542.045    972.31596   -13514.361    25.864217 
    5800     245.8021   -615.33241    58041.217   -12544.091    953.96158   -13498.053    26.046769 
    5850    251.86857   -789.10557    58032.611   -12526.387     977.5056   -13503.892    26.175803 
    5900    254.11282   -104.38105    58050.453   -12541.178    986.21557   -13527.393    26.042429 
    5950    248.78742   -878.30972    58095.211   -12540.555    965.54763   -13506.103    25.920419 
    6000    259.80137   -1507.6341    58141.038   -12544.692    1008.2929   -13552.985    26.222525 
    6050    262.77749   -620.36893     58165.36   -12533.067    1019.8433    -13552.91    26.244536 
    6100    252.37477   -1977.5769    58193.267   -12527.344    979.47018   -13506.815    26.463015 
    6150    252.08936   -794.37376    58186.575   -12531.387     978.3625    -13509.75    26.654284 
    6200    253.12565   -939.07603    58178.296   -12535.226    982.38436   -13517.611    26.647152 
    6250    253.75811    83.133176    58199.206    -12529.79    984.83894   -13514.629    26.794363 
    6300    254.36261   -989.40499    58300.561   -12520.326    987.18503   -13507.511    26.952868 
    6350    247.56251   -1434.7426    58433.575   -12508.793    960.79375   -13469.587    26.815979 
    6400    250.50635   -1519.8583    58513.878   -12535.783    972.21882   -13508.002    26.882895 
    6450    247.88201   -1701.6948    58529.407   -12533.151     962.0337   -13495.184    27.028226 
    6500    249.14922   -1300.4555    58434.086   -12518.415    966.95178   -13485.367    27.543456 
    6550    256.28647   -1013.3802    58272.078   -12521.019    994.65157    -13515.67    27.872984 
    6600    255.07195     -705.076    58163.691   -12529.342    989.93797   -13519.279    28.262746 
    6650    247.08829   -1071.6511    58126.188   -12536.638    958.95327   -13495.592    28.372145 
    6700    250.44691   -541.52127    58092.361   -12551.857    971.98812   -13523.845    28.666804 
    6750    247.45948   -272.18166    58105.925   -12544.024    960.39386   -13504.418    28.784244 
    6800    258.56766   -1063.0469    58169.657   -12535.729    1003.5049   -13539.234    29.070666 
    6850    246.43391   -451.58374    58249.065   -12532.664    956.41363   -13489.078    29.217869 
    6900    249.96791   -1151.0491     58358.04   -12519.611    970.12915    -13489.74    29.626321 
    6950    254.13689   -684.91176    58461.471   -12511.894    986.30899   -13498.203    29.491996 
    7000    254.76611   -339.54819    58555.193   -12508.416    988.75102   -13497.167     29.56891 
    7050    259.67616     -583.487    58617.519   -12501.712     1007.807   -13509.519    29.539483 
    7100    251.37072   -1525.4911    58688.055   -12506.656    975.57345    -13482.23    29.675756 
    7150    244.82366   -876.27488    58758.266   -12523.322    950.16421   -13473.487    29.761418 
    7200    254.50295   -676.45619    58817.365   -12536.634    987.72969   -13524.363    29.725699 
    7250    256.27934   -1333.1547    58855.538   -12515.178    994.62388   -13509.801    29.854375 
    7300    254.77152    -826.5656    58885.653   -12508.583    988.77202   -13497.355     29.67641 
    7350    253.12584   -146.70035    58953.722   -12512.819     982.3851   -13495.204    29.728432 
    7400     256.2297   -1054.6926    59019.484   -12500.796    994.43125   -13495.227    29.706191 
    7450    257.74424   -922.69429    59018.398   -12494.471    1000.3092    -13494.78    29.831397 
    7500    244.35557   -319.24975    58971.495   -12519.972    948.34754    -13468.32    29.834822 
    7550    250.28182   -743.76516    58909.807   -12534.802     971.3474    -13506.15    30.001521 
    7600    256.30891   -236.63631    58861.563   -12515.574    994.73863   -13510.312    30.136411 
    7650    252.67047   -1500.9642    58797.252   -12521.987    980.61782   -13502.604    30.409754 
    7700     253.5742   -395.51325    58743.802   -12521.973    984.12521   -13506.098     30.38617 
    7750    255.86005   -908.92562     58705.57   -12524.134    992.99661   -13517.131    30.450493 
    7800    258.83733    -301.9955    58677.994   -12529.607    1004.5515   -13534.158     30.72004 
    7850    253.34066   -612.74228     58681.37   -12526.448    983.21884   -13509.667    30.870966 
    7900    255.94303   -936.77502    58730.817   -12544.428    993.31864   -13537.746    30.874548 
    7950    247.18501    -1033.041    58784.123   -12558.747    959.32866   -13518.075    30.958807 
    8000    251.63643   -909.46956    58788.836   -12557.705    976.60467   -13534.309    30.976962 
    8050    250.56645   -1619.9662    58749.517   -12545.828    972.45208    -13518.28     31.08857 
    8100    259.14726   -689.05482    58680.526   -12561.281    1005.7543   -13567.035     31.25887 
    8150    255.08544   -1645.7849    58586.229   -12544.534    989.99035   -13534.524    31.487872 
    8200    256.02482   -913.21931    58466.373   -12551.559    993.63609   -13545.195     31.74178 
    8250    251.48664   -319.59562     58347.27   -12552.684    976.02333   -13528.708     31.95746 
    8300    253.87361   -182.34354     58277.27   -12552.596     985.2872   -13537.883    32.319416 
    8350    250.52997   -801.30107    58292.893   -12570.047    972.31048   -13542.357    32.382812 
    8400    240.79854   -913.52191    58354.504   -12580.593    934.54268   -13515.136    32.504347 
    8450    251.51325   -1145.0622    58429.919    -12584.26    976.12661   -13560.386    32.453503 
    8500    245.55333   -1152.0483    58454.495   -12587.191    952.99607   -13540.187     32.55628 
    8550    245.81117   -865.31856    58439.736   -12588.191    953.99675   -13542.187    32.719964 
    8600    248.23582   -1178.7881    58415.997   -12579.662    963.40688   -13543.069    32.944324 
    8650    247.08244   -1043.4069     58409.46   -12583.873    958.93058   -13542.803    33.118328 
    8700    254.53819   -865.57499    58394.432   -12579.026    987.86647   -13566.892    33.306121 
    8750    253.99354   -1308.4322    58363.085   -12566.981    985.75267   -13552.733    33.719625 
    8800    252.32425   -155.63428     58362.39   -12575.426    979.27411     -13554.7     33.76974 
    8850    255.23206   -1521.8467    58390.069   -12591.031    990.55938   -13581.591    33.874315 
    8900    247.86985   -1018.8724    58416.171   -12596.173    961.98653   -13558.159    33.966653 
    8950    254.04437   -784.26914     58442.63   -12594.105    985.94992   -13580.055    33.919261 
    9000    252.32632   -1099.5263    58462.311    -12589.91    979.28215   -13569.192    34.046515 
    9050    248.33979   -1672.4949    58473.417   -12588.459    963.81037    -13552.27    34.085355 
    9100    248.38289   -1615.2895    58443.096   -12608.624    963.97765   -13572.601    34.366476 
    9150    250.59719   -781.24675    58369.827   -12598.315    972.57138   -13570.887     34.53947 
    9200    240.48446   -890.22055    58267.529   -12610.514    933.32372   -13543.838    34.859815 
    9250    253.02985   -347.75161     58187.01   -12621.806    982.01256   -13603.819    34.974638 
    9300    246.18672   -726.72434    58173.501   -12628.664    955.45426   -13584.119    35.103165 
    9350    245.15903   -228.57314    58218.996   -12625.878    951.46578   -13577.344    35.214396 
    9400    242.68198   -748.69565    58284.068   -12615.733    941.85233   -13557.585     35.31125 
    9450    249.91721   -854.45102    58359.261   -12615.179    969.93234   -13585.111    35.499768 
    9500    253.17915   -1027.1197    58462.366   -12619.226    982.59202   -13601.818     35.47362 
    9550    255.67608   -1522.5656    58581.169   -12613.434    992.28262   -13605.717     35.43752 
    9600    252.79942   -1194.0608    58677.594   -12599.942    981.11826   -13581.061    35.366815 
    9650    242.09669    -999.0199     58734.33   -12615.203     939.5808   -13554.784    35.407577 
    9700    245.45807   -1004.7552    58754.259   -12620.267    952.62636   -13572.894    35.579601 
    9750    245.60718   -1381.9283    58709.473   -12616.438    953.20508   -13569.643    35.619574 
    9800    242.72659   -487.80024    58631.793   -12624.388    942.02546   -13566.414    36.026178 
    9850    243.04745    -741.3649    58561.885   -12614.559    943.27073    -13557.83    35.965966 
    9900    247.67181   -991.63011    58490.187   -12617.245    961.21792   -13578.463    36.207869 
    9950    247.79186   -510.25843    58456.028   -12614.499    961.68385   -13576.183    36.414472 
   10000    248.89904   -586.59636    58473.923    -12609.88    965.98083   -13575.861    36.348285 
   10050    248.23223    503.67041    58516.911   -12615.837    963.39292    -13579.23    36.263428 
   10100    244.87676    -695.7527    58604.256   -12601.269    950.37028   -13551.639     36.38068 
   10150    246.09684   -1012.3506    58700.483    -12589.29    955.10546   -13544.396    36.331784 
   10200    245.95892   -908.22749    58774.977   -12586.358    954.57019   -13540.928    36.466889 
   10250    248.46872    -1260.631    58852.483   -12582.279    964.31075    -13546.59     36.62625 
   10300    252.68998   -1221.6646    58897.027   -12585.066    980.69351   -13565.759    36.765329 
   10350    248.70813   -838.01404    58913.139   -12588.542    965.23992   -13553.782    36.950014 
   10400    246.12152   -925.98601    58887.157   -12598.725    955.20125   -13553.927    37.379795 
   10450    245.22981   -1208.7329    58806.413   -12596.566    951.74049   -13548.307     37.59376 
   10500    240.86188   -959.31822    58725.012   -12592.338    934.78848   -13527.127     37.70196 
   10550    255.72187   -1202.6514    58640.599   -12588.505    992.46035   -13580.966    38.044893 
   10600    246.90468   -648.33122    58601.457   -12592.435    958.24068   -13550.675    38.310356 
   10650    258.60118    100.39337    58605.192   -12582.649     1003.635   -13586.284    38.540523 
   10700    255.87527   -266.97745    58691.149    -12584.23    993.05569   -13577.285    38.864119 
   10750    248.86829   -1090.8495    58810.473   -12582.789    965.86149    -13548.65    38.933295 
   10800    239.95473   -650.28976    58909.295   -12582.838    931.26782   -13514.106     39.17538 
   10850    247.73475   -1018.5457    58990.557   -12569.962    961.46222   -13531.424    39.167831 
   10900    252.88445   -1252.1555    59071.948   -12571.264    981.44825   -13552.712    39.176206 
   10950    246.93779   -1681.7697    59142.397   -12571.314    958.36921   -13529.683    39.489297 
   11000    251.91898   -1326.6016    59173.453   -12581.717    977.70125   -13559.418    39.498192 
   11050    252.55274   -896.25041    59165.475   -12597.744    980.16089   -13577.905    39.770739 
   11100    246.14898   -963.10046    59157.412   -12585.389    955.30782   -13540.697    39.808485 
   11150    252.76233   -1114.8243    59133.984   -12585.947    980.97431   -13566.921    40.102377 
   11200    245.31876    -1225.142    59127.347   -12592.435    952.08569   -13544.521    40.214341 
   11250    252.99067   -1072.3605    59159.505   -12597.405     981.8605   -13579.266    40.363043 
   11300    249.72479   -1104.7951    59171.197   -12597.461     969.1856   -13566.647    40.423041 
   11350    240.34757   -1369.0372    59175.791    -12606.63    932.79246   -13539.422    40.662338 
   11400    248.95768   -1012.7635    59156.145   -12606.316    966.20842   -13572.524    40.806964 
   11450    245.13135   -1282.4138    59122.705   -12621.802    951.35838   -13573.161    40.771723 
   11500    254.11479   -1594.5821    59113.538   -12625.979    986.22324   -13612.203    40.650454 
   11550    246.95415   -2016.3857    59060.726   -12622.049     958.4327   -13580.482    40.852143 
   11600    247.75226   -898.76097    58922.331   -12630.488    961.53016   -13592.018    41.191262 
   11650    248.33076   -1266.6517     58774.82   -12599.145    963.77532   -13562.921     41.28254 
   11700    252.94441   -869.47387    58664.185   -12595.811    981.68096   -13577.492    41.403336 
   11750    247.32283   -884.93106    58619.549   -12600.879    959.86355   -13560.742    41.758612 
   11800    244.76443    113.34304      58598.3   -12613.709    949.93433   -13563.643    41.859612 
   11850    249.06024   -123.04277    58603.169   -12595.757    966.60643   -13562.364    41.588984 
   11900    254.17473   -417.79482    58620.875    -12622.99    986.45585   -13609.446    41.691306 
   11950    244.81526   -125.07423    58665.367   -12615.019    950.13163   -13565.151    41.910814 
   12000    244.86133   -470.52156    58770.264   -12615.755    950.31042   -13566.066    41.827339 
   12050      241.955   -857.01309    58881.506   -12608.793    939.03089   -13547.824    41.870824 
   12100    241.03782   -1394.0818    58954.673    -12592.76    935.47131   -13528.231    42.134834 
   12150    252.87434   -864.30548    58988.981   -12593.963    981.40903   -13575.372    42.355833 
   12200    242.45313   -1347.3715    59009.783   -12584.189    940.96415   -13525.154    42.483066 
   12250    254.98758   -704.71217    59017.083   -12576.667    989.61056   -13566.277    42.663145 
   12300    253.88429   -732.60889     59065.79   -12581.313    985.32866   -13566.641    42.778271 
   12350     243.9315    -640.3185    59132.654   -12589.571    946.70175   -13536.273    42.745927 
   12400    250.37162   -747.07278     59216.39   -12604.107    971.69594   -13575.803    42.835916 
   12450     249.9162    -564.2072     59290.18   -12596.446    969.92845   -13566.375    42.953938 
   12500    243.49062   -1586.8283    59342.287   -12586.532    944.99065   -13531.522    43.172619 
   12550    246.34573   -749.62104    59353.123   -12592.856    956.07141   -13548.928    43.257693 
   12600    247.68843   -1149.8918    59324.439   -12586.157    961.28242    -13547.44    43.352355 
   12650    247.74287   -925.58444    59243.228   -12578.954    961.49372   -13540.448    43.718637 
   12700    248.53279   -469.50187    59141.905   -12577.777    964.55939   -13542.336    43.872362 
   12750    256.30675   -1317.5416    59048.636   -12586.855    994.73025   -13581.585    44.077709 
   12800    255.85932   -926.37416     58946.03    -12601.26    992.99379   -13594.254    44.136905 
   12850     238.9274   -1360.4807    58828.201   -12599.519    927.28075     -13526.8    44.190727 
   12900    252.60375    -773.7551     58677.88   -12588.507    980.35885   -13568.866    44.294475 
   12950    250.39668   -1225.4536    58556.717   -12600.383    971.79319   -13572.176    44.471469 
   13000    249.56748   -763.86792    58409.545   -12590.915    968.57505    -13559.49    44.795531 
   13050    252.18649   -684.89154    58283.838   -12588.549    978.73948   -13567.288    45.126793 
   13100    252.27511   -970.00489    58193.827   -12583.792    979.08339   -13562.875    45.239493 
   13150    248.77703    -960.1935    58125.192    -12593.94     965.5073   -13559.448    45.271781 
   13200    249.20334   -574.29364    58104.695   -12595.684    967.16183   -13562.846    45.322283 
   13250    247.55014   -433.28222    58114.509   -12619.559    960.74571   -13580.305    45.326969 
   13300    246.86094   -554.82497    58170.238   -12611.173    958.07091   -13569.244    45.328687 
   13350    245.01606   -749.00698    58264.327   -12602.338    950.91093   -13553.249    45.257389 
   13400    245.43298   -695.28731    58363.444   -12613.707    952.52901   -13566.236    45.290493 
   13450    251.87249   -1324.0663    58463.788   -12622.944    977.52082   -13600.465    45.216056 
   13500    255.48757   -1633.1023    58532.477   -12618.237    991.55102   -13609.788    45.498801 
   13550    239.13126   -469.78857    58575.588   -12638.243    928.07193   -13566.315    45.756453 
   13600    240.65014   -1409.7032    58605.474    -12642.06    933.96673   -13576.026    45.604255 
   13650    242.58792   -1470.7597     58607.89   -12643.634    941.48726   -13585.121    46.058111 
   13700    245.61448   -1912.3029    58582.458   -12643.227     953.2334    -13596.46    46.316781 
   13750    241.94103   -854.93494    58521.406   -12636.982    938.97668   -13575.958    46.425036 
   13800    249.09348   -1104.6213      58475.9   -12655.921    966.73545   -13622.656    46.480561 
   13850    250.59622   -764.04249    58461.817    -12652.97    972.56762   -13625.538    46.869538 
   13900    251.77334   -593.87329    58485.178   -12644.715    977.13604   -13621.851    46.881159 
   13950    244.19233   -1148.8907    58532.898   -12652.658    947.71402   -13600.373    47.030341 
   14000    242.32354    -1146.241    58565.806   -12638.231     940.4612   -13578.692    47.018982 
   14050    249.94416   -734.39354    58578.538   -12634.951    970.03697   -13604.988    46.892225 
   14100    251.78788   -684.87021    58563.341   -12632.011    977.19244   -13609.203    46.969211 
   14150    250.30585   -458.25403    58545.327   -12631.461    971.44067   -13602.902    47.212676 
   14200    252.12191    -381.3791    58552.911   -12630.754    978.48885   -13609.243    46.958846 
   14250    241.93826   -522.50499     58600.92   -12607.138    938.96594   -13546.104    47.068363 
   14300     249.8359   -1516.8882    58712.805   -12613.892    969.61678   -13583.509    47.239152 
   14350    255.38157   -1129.5972    58811.187    -12620.17    991.13962    -13611.31     47.27076 
   14400    258.17651   -857.55682    58873.811   -12605.198    1001.9868   -13607.185     47.19293 
   14450    252.04001   -1097.1038    58907.092    -12625.22    978.17098   -13603.391    47.217615 
   14500    247.12717    -1612.545    58936.793   -12625.519    959.10419   -13584.623    47.298389 
   14550    248.83577   -1348.0147    58943.461   -12645.359    965.73526   -13611.095    47.483841 
   14600    243.68024   -753.18662    58927.053   -12642.251    945.72659   -13587.978    47.447535 
   14650    256.09259   -679.15022    58844.827   -12647.417    993.89909   -13641.316    47.552457 
   14700    250.37645   -832.06645    58725.244   -12644.059    971.71466   -13615.774    47.623734 
   14750    254.70154   -841.37192      58625.8   -12646.992     988.5004   -13635.492    47.778518 
   14800    247.30864   -602.65139    58606.887   -12664.607    959.80845   -13624.415    47.765607 
   14850      245.599   -787.30678    58621.297   -12672.258    953.17334   -13625.431    47.876132 
   14900    248.30837   -729.30582    58629.294   -12672.921    963.68844   -13636.609    48.135843 
   14950    240.61166   -317.13744    58666.937    -12694.77    933.81739   -13628.588    48.199877 
   15000    238.90879   -1227.0784    58720.768   -12693.188    927.20853   -13620.397    48.447616 
   15050    240.72754   -1293.9584    58785.725   -12696.301    934.26713   -13630.568    48.502257 
   15100    236.17355   -1442.3915    58823.163    -12684.14      916.593   -13600.733    48.376708 
   15150    237.51169   -931.91797    58816.262   -12687.584    921.78634    -13609.37    48.551868 
   15200    246.69324   -1129.2812    58817.252   -12684.767    957.42009   -13642.187    48.593664 
   15250    242.34106   -1485.1683    58830.501   -12687.711     940.5292    -13628.24    48.698556 
   15300    242.61582   -1400.8609    58799.601   -12674.719    941.59557   -13616.315    48.778227 
   15350    239.06003   -1822.5727    58738.566    -12672.27    927.79548   -13600.066    48.939695 
   15400    238.67414   -702.08545    58603.992   -12664.352    926.29782    -13590.65    49.102864 
   15450    247.86175    -818.9199    58505.284   -12667.501    961.95509   -13629.456    49.128892 
   15500    239.18708   -821.54449    58486.413   -12663.257    928.28859   -13591.546    49.233655 
   15550    241.24516   -688.11905     58510.02   -12666.258    936.27599   -13602.534    49.149598 
   15600    245.26658   -1319.5406    58530.391   -12664.606     951.8832   -13616.489    49.264104 
   15650    238.47572   -666.71961    58503.949   -12669.993    925.52775    -13595.52    49.184618 
   15700     241.5717   -1273.2418    58440.677   -12657.317    937.54331    -13594.86    49.342657 
   15750    246.60548   -901.87292    58376.997   -12657.369    957.07949   -13614.448    49.437542 
   15800    248.40946    -1173.415    58360.641   -12656.246    964.08076   -13620.327    49.556747 
   15850    245.59663   -640.39005    58384.449    -12648.75    953.16413   -13601.914    49.557375 
   15900    245.69887   -1229.9807    58433.473   -12648.586    953.56091   -13602.147    49.574418 
   15950    244.07975   -1623.4922    58483.619   -12637.907    947.27711   -13585.184    49.738596 
   16000    245.12663   -1970.8359    58500.696   -12628.336    951.34005   -13579.676    49.886768 
   16050    247.81309   -1061.2768    58446.376   -12613.888    961.76622   -13575.655    49.893429 
   16100      250.647   -923.62976    58390.695   -12608.658     972.7647   -13581.423    50.061942 
   16150    238.44263   -749.49062    58328.446   -12610.123    925.39934   -13535.523    50.263328 
   16200    250.20857   -1193.5628     58259.94   -12595.068    971.06312   -13566.131    50.272314 
   16250    257.46091    -829.8988     58168.57   -12588.528    999.20958   -13587.737    50.526791 
   16300    251.01774    115.20132    58119.271   -12599.193    974.20354   -13573.396    50.673439 
   16350    251.86793   -626.24681    58148.783   -12602.948    977.50314   -13580.451    50.529811 
   16400    249.47646   -394.04046    58206.995   -12594.079     968.2218   -13562.301     50.81365 
   16450    250.34778   -1125.2062    58313.686   -12607.082    971.60341   -13578.685    50.714226 
   16500    249.90825    -1461.262      58409.8   -12594.748     969.8976   -13564.646    50.628772 
   16550    246.96363   -900.34835    58453.326   -12581.092    958.46948   -13539.561    50.467573 
   16600    245.15827   -976.39814    58455.034   -12574.585    951.46284   -13526.048    50.477337 
   16650    247.71286   -1797.8473    58436.655   -12557.273    961.37724   -13518.651    50.742961 
   16700    252.11634   -1068.0395    58425.847    -12588.05    978.46723   -13566.517    51.058792 
   16750    244.33477   -274.73454    58419.436   -12591.657    948.26682   -13539.924    51.405352 
   16800    250.36591   -1000.2125    58433.861   -12593.571    971.67378   -13565.245    51.501196 
   16850    247.80772   -1248.3879    58438.704   -12603.409    961.74541   -13565.155    51.519376 
   16900    244.29173   -799.65976    58401.571   -12601.579    948.09978   -13549.679    51.745944 
   16950    252.16956    -979.2997    58372.762   -12587.937    978.67376   -13566.611    51.777909 
   17000    252.45195   -1010.9959    58357.648   -12594.325    979.76973   -13574.095    51.977736 
   17050    245.58677   -869.05506     58344.23   -12578.812    953.12587   -13531.938    52.126633 
   17100    248.41399     -51.1526     58364.61   -12589.175    964.09836   -13553.273    52.259736 
   17150    258.25012   -839.82778    58441.064   -12567.188    1002.2725    -13569.46    52.332927 
   17200    258.60494   -1247.6096    58534.184    -12552.19    1003.6496    -13555.84    52.381012 
   17250    250.13264   -871.53598    58598.305   -12552.392    970.76845   -13523.161    52.652274 
   17300    256.14675   -86.780302    58639.857   -12533.773    994.10931   -13527.883    52.860116 
   17350    255.03395   -1147.1474    58699.313   -12542.129    989.79052   -13531.919    52.647216 
   17400    261.41961   -729.11917    58679.535   -12546.485    1014.5733   -13561.058    52.859269 
   17450    253.43176   -1224.4299     58631.65   -12536.327    983.57238   -13519.899    52.982407 
   17500    251.92757   -568.31015    58562.523   -12558.647    977.73461   -13536.382    53.179322 
   17550    259.49501   -1232.6121    58509.125   -12570.015    1007.1039   -13577.119    53.023846 
   17600    251.98734    -563.8503    58446.632   -12558.744    977.96657   -13536.711    53.468246 
   17650     257.2603   -706.08403    58386.447   -12541.691    998.43101   -13540.122      53.3403 
   17700    256.59059   -892.95661    58339.494   -12531.222    995.83186   -13527.054    53.459225 
   17750    254.06978   -254.57543    58302.357   -12532.284    986.04855   -13518.332    53.520308 
   17800    258.77062   -594.57456    58332.285   -12530.642    1004.2926   -13534.935    53.802659 
   17850    250.15989   -479.72101     58397.25   -12542.256    970.87422    -13513.13    53.838394 
   17900    248.55375   -777.22308    58455.005   -12549.463    964.64076   -13514.103    54.001442 
   17950    252.55544   -1046.4367    58519.449   -12556.231    980.17136   -13536.402    54.198709 
   18000    246.01057   -894.06415     58545.04   -12561.869    954.77062    -13516.64    54.341738 
   18050     243.7363   -1069.6151    58527.275   -12581.811    945.94415   -13527.755    54.606008 
   18100    250.88082   -772.75289    58472.922   -12589.709    973.67213   -13563.382    54.707622 
   18150    245.27481   -1158.6675    58424.309   -12597.963    951.91515   -13549.878    54.839132 
   18200    254.55689   -1805.3456    58396.074   -12584.165    987.93903   -13572.104    54.831098 
   18250    250.14443   -343.27709    58353.235   -12567.757    970.81419   -13538.571    55.323756 
   18300    247.92203   -854.26518    58385.711    -12555.38    962.18905   -13517.569    55.500769 
   18350    254.16801   -1173.3013    58501.127   -12550.387     986.4298   -13536.817     55.59005 
   18400    253.97706   -840.02747    58653.356   -12555.778    985.68869   -13541.467    55.529238 
   18450     246.0584    -1084.537    58794.856   -12558.433    954.95627   -13513.389    55.425039 
   18500    248.36083   -1447.1056     58884.26   -12546.168    963.89203    -13510.06    55.618033 
   18550    251.84355   -1144.9911    58921.184   -12540.247    977.40852   -13517.656    55.616157 
   18600    246.41636   -923.16579    58900.448   -12527.396     956.3455   -13483.741    55.813487 
   18650    256.74799   -909.31657    58849.672    -12529.76    996.44272   -13526.202    56.005863 
   18700    250.39348     -1484.39    58782.795   -12533.304    971.78078   -13505.085    56.163971 
   18750    250.76371    -707.7009    58690.875   -12516.437    973.21765   -13489.654    56.336984 
   18800    258.12147   -1455.2769    58635.449   -12519.517    1001.7732    -13521.29    56.471484 
   18850    246.01615   -899.33391    58563.208   -12529.106    954.79228   -13483.898    56.621281 
   18900    252.87149   -1288.8003    58498.992   -12539.235    981.39797   -13520.633    56.756362 
   18950    255.75942   -564.49217    58445.125   -12549.434    992.60607    -13542.04    56.754916 
   19000    250.86937    88.325302    58401.694   -12541.272    973.62771     -13514.9     56.94075 
   19050    243.54034   -1397.7121    58415.263   -12533.555    945.18364   -13478.739      56.7743 
   19100    250.35178   -1027.0598    58429.599   -12539.327    971.61892   -13510.946     56.82383 
   19150    256.24264   -1068.8106      58420.3   -12531.186    994.48144   -13525.667    57.324723 
   19200    252.45239   -1047.8712    58371.256   -12536.028    979.77144   -13515.799    57.580894 
   19250    248.42455   -1267.8134    58309.648   -12533.511    964.13932    -13497.65    57.679829 
   19300    254.81785   -1004.3105    58267.812   -12543.081    988.95182   -13532.033    57.670221 
   19350     252.6793   -601.71312    58267.577   -12558.678    980.65209    -13539.33    57.641554 
   19400    244.23518   -1542.6791    58318.999   -12551.205    947.88032   -13499.086     57.67497 
   19450    248.68052   -549.27428    58363.775   -12554.122    965.13274   -13519.255    57.715977 
   19500    247.71826   -377.73774    58415.674   -12576.668    961.39821   -13538.066    57.728153 
   19550    254.31609   -423.72034     58452.02   -12552.951     987.0045   -13539.956    57.990178 
   19600    246.00345   -579.31964    58458.136   -12548.464    954.74301   -13503.207     58.04104 
   19650      241.438   -566.92551    58438.228   -12531.763    937.02444   -13468.787    58.308448 
   19700     262.0938   -1048.2343    58432.662   -12516.709    1017.1899   -13533.899    58.372095 
   19750    245.50186   -316.20389    58474.651   -12522.709    952.79634   -13475.505    58.389411 
   19800    273.45859    -932.7651    58586.773   -12527.377    1061.2968   -13588.674     58.56797 
   19850    253.49913   -1616.7107    58718.946   -12513.283    983.83384   -13497.117    58.458403 
   19900    255.31076   -1157.6789    58787.995   -12499.933    990.86481   -13490.798    58.596224 
   19950    260.20257    -1028.599    58844.487   -12506.902      1009.85   -13516.752    58.776631 
   20000    261.58997    -1630.397    58905.851   -12496.553    1015.2345   -13511.787    58.679186 
   20050    261.76325   -1632.8324    58899.269   -12508.459     1015.907   -13524.366    58.956198 
   20100    252.20158   -1108.8797    58841.197   -12520.481    978.79803   -13499.279     58.95103 
   20150     259.8829   -1133.3563    58808.132   -12529.956    1008.6094   -13538.565    59.018134 
   20200    256.87119   -1286.4307    58785.698   -12531.151    996.92087   -13528.072    59.296418 
   20250    259.89545   -1659.3706     58749.06   -12536.408    1008.6581   -13545.066    59.456522 
   20300     254.0762   -994.41913    58710.059    -12534.08    986.07345   -13520.154    59.517766 
   20350    258.24163    -873.9172    58695.799   -12529.132    1002.2396   -13531.371    59.578811 
   20400    250.10337   -1352.0166    58721.933   -12521.149    970.65485   -13491.804    59.737763 
   20450    265.11884   -963.78379    58779.359   -12502.998    1028.9301   -13531.928    59.703538 
   20500    252.04669   -1402.3179    58811.162   -12500.274    978.19692   -13478.471    59.867656 
   20550    258.70085   -221.46751    58839.908   -12492.058    1004.0218   -13496.079    59.918364 
   20600    265.14989   -1424.0534     58917.47   -12493.529    1029.0506   -13522.579    60.088004 
   20650    257.15454    -1262.074    58979.671    -12483.08    998.02055   -13481.101    60.493377 
   20700    258.80136   -849.60033    58999.213   -12501.186    1004.4119   -13505.598    60.414117 
   20750    256.36058   -642.90783    59024.655   -12501.994    994.93918   -13496.933    60.303656 
   20800    261.19589   -877.08158    59069.775   -12501.841    1013.7051   -13515.546    60.303352 
   20850    258.74232   -48.081675      59100.9   -12503.626    1004.1827   -13507.809     60.68139 
   20900    255.30897   -1065.2509     59158.59   -12476.831    990.85784   -13467.688    60.527743 
   20950    255.70528   -1029.0823    59191.094   -12487.973    992.39596   -13480.369    60.565842 
   21000    259.54713   -1176.1712    59162.416   -12499.591    1007.3062   -13506.898    60.904895 
   21050     260.2163   -1467.3727     59080.61   -12497.092    1009.9033   -13506.996    61.132031 
   21100    249.60752   -592.73198    58966.914    -12502.23    968.73046    -13470.96    61.149211 
   21150    262.03328   -800.02767    58863.242   -12505.633     1016.955   -13522.588    61.423455 
   21200    258.87837    -1173.238    58797.855   -12518.568    1004.7107   -13523.278    61.417172 
   21250    255.02345   -556.85396    58735.309   -12534.921    989.74975   -13524.671    61.730833 
   21300    259.16529   -983.82695    58679.078   -12530.679    1005.8243   -13536.503    61.900828 
   21350    245.44754    -637.7909    58592.252   -12548.655     952.5855    -13501.24    62.125968 
   21400    253.77981    -1037.123     58504.82   -12554.534    984.92317   -13539.457    62.473138 
   21450     250.8873   -1362.9324    58429.024   -12549.087     973.6973   -13522.785    62.681809 
   21500    249.43223   -1104.9466    58371.092    -12546.39    968.05016    -13514.44     63.05861 
   21550    260.73896   -285.27397    58320.762   -12553.889    1011.9317    -13565.82    62.985131 
   21600    253.85477   -830.80029    58315.971   -12564.652    985.21407   -13549.866    63.110325 
   21650    252.41779   -1065.7843    58326.523   -12567.026    979.63717   -13546.663    63.116346 
   21700    255.81297   -873.49239    58328.925   -12563.634    992.81387   -13556.448    63.249788 
   21750    256.84061   -1034.1603    58312.266   -12565.929    996.80217   -13562.731    63.667892 
   21800    262.38852    -1205.385     58312.11   -12567.283    1018.3337   -13585.616    63.827246 
   21850    249.59325   -650.82058    58326.804   -12566.429    968.67505   -13535.104    64.125175 
   21900    252.54115   -594.11645    58414.278   -12565.259    980.11589   -13545.375    64.214892 
   21950    250.44494   -1099.9166    58557.321   -12560.533    971.98049   -13532.513    64.222495 
   22000    252.48975   -418.33622    58675.815   -12554.335    979.91642   -13534.252    64.418336 
   22050    244.30578   -1591.6986      58741.3   -12554.085    948.15431   -13502.239    64.492576 
   22100    252.63303   -775.01133    58709.322   -12530.104    980.47251   -13510.576    64.543807 
   22150    247.90293   -1041.7354     58669.93   -12528.201    962.11489   -13490.316    64.988148 
   22200    261.37891   -1798.4332     58655.71   -12522.574    1014.4154    -13536.99    65.133191 
   22250    254.71118   -766.72634    58605.658   -12527.691    988.53782   -13516.229    65.358983 
   22300    261.26453   -832.21396    58566.786   -12535.041    1013.9715   -13549.012    65.231483 
   22350    247.60402   -388.81707    58525.371   -12543.793    960.95483   -13504.748    65.324043 
   22400     247.8531   -1959.0173    58443.788   -12550.765    961.92152   -13512.687    65.564554 
   22450    254.19339   -1551.8972    58328.536   -12542.733     986.5283   -13529.261    65.595879 
   22500    257.55175    -154.9344    58172.621   -12514.094    999.56211   -13513.656    65.966331 
   22550    265.68991    78.056955    58054.633   -12527.387    1031.1464   -13558.534    66.250697 
   22600    264.11572   -212.18595    58037.566   -12544.461     1025.037   -13569.498    66.291633 
   22650    256.06517   -805.73097    58087.913   -12537.537    993.79267    -13531.33    66.554678 
   22700    257.98902   -497.93685    58206.942   -12541.993    1001.2592   -13543.252    66.435998 
   22750    258.40486   -265.69214    58348.277   -12537.294    1002.8731   -13540.167    66.442255 
   22800    250.72687   -1101.7132    58487.035   -12543.963    973.07465   -13517.037    66.493707 
   22850    250.01615   -1475.9953    58595.707   -12539.367    970.31634   -13509.684    66.698872 
   22900    253.30309   -1453.2005    58649.899    -12519.53      983.073   -13502.603    67.147537 
   22950    253.88062   -1111.9744    58683.387   -12518.973     985.3144   -13504.287    67.020672 
   23000    252.26472   -1767.1786    58737.812   -12546.903    979.04306   -13525.946    66.930425 
   23050    253.84796   -1013.1478     58757.49   -12528.778    985.18764   -13513.966    67.240613 
   23100    257.72351   -1279.3814    58750.541   -12548.534    1000.2287   -13548.763     67.41373 
   23150     258.1747   -1694.6381    58733.024   -12548.198    1001.9798   -13550.178    67.664239 
   23200    259.79395   -1361.4205    58668.228   -12541.171    1008.2641   -13549.435     67.75867 
   23250    249.94458   -692.08468    58573.987   -12533.175    970.03857   -13503.214    68.147082 
   23300    255.10718   -800.05785    58503.953   -12536.829     990.0747   -13526.903    68.153992 
   23350    256.84354   -1400.3144    58432.341   -12541.577    996.81356    -13538.39    68.166779 
   23400    254.95644   -741.00565    58333.709   -12536.954    989.48968   -13526.443    68.449752 
   23450    251.14342   -337.51067    58261.184   -12542.122     974.6913   -13516.813    68.493738 
   23500    252.97926    281.25861    58210.605   -12547.768    981.81623   -13529.584    68.789369 
   23550    252.15838   -336.52403    58221.972   -12550.049    978.63037   -13528.679    69.039636 
   23600    244.57535   -1132.6562    58278.151   -12557.644    949.20053   -13506.844    68.962183 
   23650    244.62503   -930.21541    58367.083   -12570.327    949.39333   -13519.721    68.890173 
   23700    244.85713   -898.22789    58445.133   -12568.441    950.29411   -13518.735    69.146781 
   23750    247.66564   -1718.9941    58501.063   -12561.519    961.19397   -13522.713    69.282026 
   23800    244.45075   -789.93315    58498.964   -12556.557    948.71696   -13505.274     69.22752 
   23850    255.46208   -951.30918    58498.183   -12550.735    991.45208   -13542.187    69.126466 
   23900    242.46566   -841.15416    58481.573   -12545.719    941.01279   -13486.732    69.413572 
   23950    244.44978   -909.93733    58441.374   -12561.163    948.71321   -13509.876    69.616547 
   24000    254.16133   -634.60227    58399.512   -12560.216    986.40386    -13546.62    69.900138 
   24050     242.8222   -758.61987     58393.16   -12550.616    942.39654   -13493.013    69.868379 
   24100     252.5133   -1005.7339    58394.838   -12557.462    980.00784    -13537.47    69.991979 
   24150    251.86483   -529.60755    58372.086   -12548.169     977.4911    -13525.66    70.150533 
   24200    253.79692   -993.33784    58386.449   -12553.325    984.98956   -13538.315    70.059212 
   24250    246.74606   -543.19814    58376.711   -12532.595    957.62508    -13490.22    70.194432 
   24300    263.35064   -298.44056    58332.053   -12545.651    1022.0677   -13567.718     70.37324 
   24350    250.05536   -839.84187    58261.052   -12551.773    970.46851   -13522.241    70.598945 
   24400    252.56262    -491.1486     58183.78   -12560.073    980.19923   -13540.272    70.486227 
   24450     250.4216   -953.49848     58139.06   -12563.327    971.88992   -13535.217     70.46528 
   24500    248.47456   -225.47876    58124.887   -12561.555     964.3334   -13525.888    70.573586 
   24550    244.66872   -149.85615    58163.156   -12569.268    949.56291   -13518.831    70.436071 
   24600    248.78803   -871.58396    58237.247     -12574.9    965.54998    -13540.45    70.624308 
   24650    247.61295   -824.32334    58312.802   -12565.524    960.98948   -13526.513    70.846108 
   24700    251.32638   -674.07474     58408.34   -12564.985    975.40139   -13540.386    71.101701 
   24750    249.43384   -882.05774    58507.314   -12559.694    968.05639   -13527.751    71.471311 
   24800    246.11187   -1426.7974    58615.634   -12563.776    955.16377    -13518.94    71.547523 
   24850    250.73608    -864.7972    58694.261   -12561.125     973.1104   -13534.236    71.832311 
   24900    244.90528   -781.45212    58764.487   -12572.927    950.48097   -13523.408     71.84674 
   24950     251.2312   -1925.3003    58821.714   -12571.119    975.03198   -13546.151    71.957495 
   25000    251.61278   -1728.0955    58836.788   -12562.805    976.51291   -13539.318    72.164275 
Loop time of 52.5672 on 12 procs for 25000 steps with 4063 atoms

Performance: 410.902 ns/day, 0.058 hours/ns, 475.581 timesteps/s
95.2% CPU use with 12 MPI tasks x no OpenMP threads

MPI task timing breakdown:
Section |  min time  |  avg time  |  max time  |%varavg| %total
---------------------------------------------------------------
Pair    | 21.002     | 25.194     | 30.131     |  73.3 | 47.93
Neigh   | 1.4158     | 3.2522     | 5.3243     | 100.5 |  6.19
Comm    | 10.63      | 17.65      | 23.633     | 129.4 | 33.58
Output  | 0.16129    | 0.16428    | 0.19224    |   2.1 |  0.31
Modify  | 5.7241     | 5.8113     | 5.94       |   2.5 | 11.05
Other   |            | 0.4958     |            |       |  0.94

Nlocal:        338.583 ave         538 max         168 min
Histogram: 6 0 0 0 0 0 0 0 2 4
Nghost:        1578.25 ave        1763 max        1390 min
Histogram: 3 2 1 0 0 0 0 0 4 2
Neighs:        0.00000 ave           0 max           0 min
Histogram: 12 0 0 0 0 0 0 0 0 0
FullNghs:      37187.5 ave       69338 max        9268 min
Histogram: 6 0 0 0 0 0 0 0 2 4

Total # of neighbors = 446250
Ave neighs/atom = 109.83264
Neighbor list builds = 2835
Dangerous builds = 0

unfix           3
unfix           4
undump          1


# Run 0.25 ns equilibration of water in NVE ensemble
#
fix            3 water nve
dump		1 all atom 2000 nve.${NAME}.dump
dump		1 all atom 2000 nve.ML_graphite_m500atm_250K.dump
run	        25000
Per MPI rank memory allocation (min/avg/max) = 5.053 | 5.055 | 5.059 Mbytes
Step c_2 v_water_press Volume TotEng KinEng PotEng c_1[4] 
   25000    251.61278   -1728.0955    58836.788   -12562.805    976.51291   -13539.318    72.164275 
   25050    249.52346   -1327.6629    58836.788   -12563.201    968.40422   -13531.606    72.144784 
   25100    247.72312    -1279.499    58836.788   -12563.488    961.41705   -13524.905    72.769179 
   25150    247.51309   -1680.6549    58836.788   -12562.233    960.60194   -13522.835    72.958339 
   25200    254.16816   -707.26068    58836.788   -12562.882    986.43037   -13549.312    73.166938 
   25250    261.95046   -369.81736    58836.788   -12563.761    1016.6336   -13580.395    73.345795 
   25300    254.67634   -923.89743    58836.788   -12563.531    988.40263   -13551.934     73.14428 
   25350    251.69392   -810.17626    58836.788   -12563.665    976.82779   -13540.493    73.501523 
   25400    248.83075   -373.56317    58836.788   -12562.788    965.71579   -13528.504    73.715439 
   25450    246.49407   -868.25819    58836.788   -12562.722    956.64709   -13519.369    73.741038 
   25500    246.11762   -1114.6556    58836.788   -12562.634    955.18612    -13517.82     73.70501 
   25550    245.36056   -1169.9179    58836.788   -12562.469    952.24792   -13514.717    73.651985 
   25600    239.67154   -800.58835    58836.788   -12562.189    930.16875   -13492.358    73.774885 
   25650    247.24687   -1757.5964    58836.788   -12562.337    959.56874   -13521.906    73.856465 
   25700    248.31081   -1697.3619    58836.788   -12562.714    963.69789   -13526.412    74.014298 
   25750    249.34964   -1636.6037    58836.788   -12563.541    967.72963   -13531.271    73.928837 
   25800    255.99481   -1174.2217    58836.788   -12563.845    993.51962   -13557.365    74.359336 
   25850    241.73407   -1088.5458    58836.788   -12562.273    938.17347   -13500.446    74.550578 
   25900     250.5612   -986.16978    58836.788   -12562.694    972.43169   -13535.126    74.955815 
   25950    246.00915   -643.38833    58836.788   -12562.912    954.76511   -13517.677    75.344522 
   26000    245.88181   -583.80858    58836.788   -12562.507     954.2709   -13516.778     75.57005 
   26050     253.1953    -246.0324    58836.788   -12562.847    982.65468   -13545.502    75.706863 
   26100    254.87821   -1782.2691    58836.788   -12563.213    989.18609   -13552.399    75.743036 
   26150    252.45678   -1274.3678    58836.788   -12562.869    979.78847   -13542.658    75.627377 
   26200    250.89417   -1508.7795    58836.788     -12562.8    973.72394   -13536.524     75.80909 
   26250     241.7667   -938.94806    58836.788   -12561.743    938.30012   -13500.043    75.875547 
   26300    247.53593   -1395.4131    58836.788   -12562.172    960.69056   -13522.862    75.759088 
   26350    251.43364   -532.93476    58836.788   -12563.717    975.81766   -13539.535    75.866692 
   26400    243.40179   -910.95329    58836.788   -12562.903     944.6459   -13507.549    76.293908 
   26450    254.46503   -137.87656    58836.788   -12563.815    987.58254   -13551.397    76.261553 
   26500    249.81498   -742.65479    58836.788   -12562.407    969.53561   -13531.943     76.21508 
   26550    252.81096   -646.57054    58836.788   -12562.437    981.16306     -13543.6    76.305323 
   26600    249.18541   -1202.7147    58836.788   -12562.328    967.09222    -13529.42    76.483014 
   26650    258.78806   -1310.5615    58836.788   -12563.212    1004.3603   -13567.572    76.783761 
   26700    254.98416   -609.92688    58836.788   -12562.933    989.59726    -13552.53    77.077555 
   26750    253.74769   -1170.0447    58836.788   -12563.059    984.79853   -13547.858     76.98555 
   26800    256.30013   -1397.1625    58836.788   -12563.046    994.70457    -13557.75    77.445649 
   26850    251.51332    -706.7831    58836.788   -12562.469    976.12689   -13538.596    77.543226 
   26900    251.63194   -579.43554    58836.788   -12563.285    976.58726   -13539.872    77.904655 
   26950    255.40304   -859.07617    58836.788   -12562.545    991.22295   -13553.768    78.288142 
   27000    252.70384   -109.71236    58836.788   -12562.802    980.74733   -13543.549    78.433278 
   27050     256.7808   -215.50967    58836.788   -12563.897    996.57006   -13560.467     78.58357 
   27100    247.30261   -637.04051    58836.788   -12562.617    959.78507   -13522.402    78.928506 
   27150    243.77507   -448.24196    58836.788   -12562.588    946.09463   -13508.683    79.194046 
   27200    251.04868   -1108.0973    58836.788   -12562.885    974.32361   -13537.209    79.364961 
   27250    253.57136   -1673.9195    58836.788   -12563.282    984.11416   -13547.396    79.655524 
   27300    243.54898   -1848.8026    58836.788    -12561.98    945.21715   -13507.197    79.933221 
   27350    250.90587   -1460.3689    58836.788   -12562.541    973.76935   -13536.311    80.183601 
   27400     246.4136   -682.02111    58836.788   -12562.761    956.33479   -13519.096    80.258436 
   27450    248.34264   -1400.4594    58836.788   -12562.832    963.82142   -13526.653    80.349569 
   27500    261.19709   -1849.4101    58836.788   -12563.227    1013.7097   -13576.937    80.524966 
   27550    247.32089   -1003.4507    58836.788   -12562.423    959.85601   -13522.279    80.530873 
   27600    246.10961   -522.19972    58836.788   -12562.663    955.15502   -13517.818    80.743469 
   27650    249.65066   -377.57363    58836.788   -12562.906    968.89786   -13531.803    80.694234 
   27700    251.31197   -1067.1474    58836.788    -12562.96    975.34543   -13538.306    81.117997 
   27750    257.21513   -711.55834    58836.788   -12563.505    998.25569   -13561.761    81.168102 
   27800    242.03337   -376.97955    58836.788   -12562.943    939.33505   -13502.278     81.40609 
   27850    248.43302    -1382.427    58836.788   -12562.276     964.1722   -13526.449    81.282595 
   27900    254.58187   -1156.5164    58836.788   -12563.114    988.03598    -13551.15    81.360471 
   27950    250.29621   -823.07261    58836.788   -12562.687    971.40327   -13534.091    81.495161 
   28000    253.20705   -613.46961    58836.788   -12562.704    982.70027   -13545.404    81.329663 
   28050    255.40351   -802.92655    58836.788   -12563.982    991.22477   -13555.207    81.650366 
   28100    250.60264   -1119.4252    58836.788    -12563.51    972.59254   -13536.103    81.796948 
   28150    249.44842   -821.80783    58836.788   -12562.381    968.11296   -13530.494    81.896239 
   28200    249.29298   -1502.2599    58836.788   -12562.421    967.50972   -13529.931    81.752077 
   28250    244.73939   -921.39016    58836.788   -12561.743    949.83716    -13511.58     81.98447 
   28300    249.46036   -989.86378    58836.788   -12562.031    968.15932    -13530.19    82.022802 
   28350    254.18798   -1191.9735    58836.788   -12563.003    986.50727    -13549.51    82.412691 
   28400    238.90682   -1063.9512    58836.788   -12562.936    927.20086   -13490.137    82.765911 
   28450    249.47785   -1333.4721    58836.788   -12562.423    968.22719    -13530.65    83.052868 
   28500    253.05398    -1934.428    58836.788   -12562.619     982.1062   -13544.725    83.391838 
   28550    240.61051   -2055.7359    58836.788   -12562.613    933.81292   -13496.426    83.845985 
   28600    250.56393   -1480.2939    58836.788   -12562.462    972.44228   -13534.904    84.034504 
   28650    248.71285   -1474.6244    58836.788   -12562.521    965.25823   -13527.779    84.127236 
   28700    250.70695   -1185.9262    58836.788   -12562.714    972.99737   -13535.711    84.258438 
   28750    241.77152   -853.10983    58836.788   -12560.963     938.3188   -13499.282    84.215485 
   28800    245.74476   -1290.7816    58836.788    -12562.07    953.73903   -13515.809    84.440691 
   28850    244.30808   -1066.8935    58836.788   -12562.117    948.16325   -13510.281    84.501082 
   28900    245.65862   -33.255193    58836.788   -12561.857     953.4047   -13515.262    84.628471 
   28950    242.31032   -387.25641    58836.788    -12562.13    940.40992    -13502.54     84.61503 
   29000    246.68076   -913.83035    58836.788    -12562.61    957.37167   -13519.982    84.467164 
   29050    247.00722   -1188.9081    58836.788   -12561.908    958.63866   -13520.547    84.485623 
   29100    251.34809   -519.66896    58836.788   -12562.673    975.48565   -13538.158    84.632486 
   29150    251.74582   -1182.8827    58836.788   -12562.802    977.02923   -13539.831    84.692788 
   29200     260.7163   -857.77567    58836.788   -12563.478    1011.8438   -13575.322    84.898664 
   29250    252.60631   -1356.8601    58836.788   -12562.619    980.36881   -13542.988    85.215754 
   29300    257.59759   -1236.8923    58836.788    -12564.12    999.74001    -13563.86    85.282581 
   29350    252.78893   -1820.4522    58836.788    -12562.82    981.07756   -13543.898    85.216295 
   29400    249.80059   -190.75307    58836.788   -12562.783    969.47974   -13532.263    85.359975 
   29450    249.34103   -895.96194    58836.788   -12562.951     967.6962   -13530.647    85.378325 
   29500    254.80759   -602.42878    58836.788    -12562.61    988.91198   -13551.522     85.41068 
   29550    250.38425   -560.64726    58836.788   -12563.083    971.74495   -13534.828    85.940687 
   29600    245.38601   -849.47622    58836.788   -12562.338    952.34672   -13514.685    86.110954 
   29650    251.46502   -1605.7855    58836.788   -12563.106    975.93945   -13539.046    86.350717 
   29700    250.60744   -1060.2323    58836.788   -12562.458    972.61117    -13535.07    86.670423 
   29750    254.14734   -225.33351    58836.788   -12562.416    986.34957   -13548.765    87.141095 
   29800    252.76182   -886.87274    58836.788   -12562.373    980.97234   -13543.345    87.449955 
   29850    245.56016   -800.31267    58836.788   -12562.026    953.02258   -13515.049    87.352243 
   29900    240.63857   -499.87697    58836.788   -12561.885    933.92181   -13495.807    87.501712 
   29950    255.27703   -695.27485    58836.788    -12563.27     990.7339   -13554.004    87.730803 
   30000    254.95547   -770.88547    58836.788   -12562.487    989.48592   -13551.973    87.812826 
   30050    255.25951   -1129.7631    58836.788   -12563.452    990.66589   -13554.118     88.12421 
   30100    249.43212   -996.19426    58836.788   -12563.119    968.04974   -13531.169    88.458767 
   30150    254.05306   -1598.0717    58836.788   -12562.898    985.98364   -13548.881    88.829589 
   30200    254.74628   -472.14922    58836.788   -12563.253    988.67406   -13551.927    89.287233 
   30250    251.87393   -1419.1937    58836.788   -12562.033    977.52641    -13539.56    89.685163 
   30300    257.81329   -956.66052    58836.788   -12563.413    1000.5772    -13563.99     89.98373 
   30350    254.87206   -1363.4882    58836.788    -12563.72    989.16219   -13552.882    90.309401 
   30400    253.59909   -1519.7706    58836.788    -12562.37    984.22181   -13546.592    90.187632 
   30450    246.51392    -1253.287    58836.788   -12562.309    956.72413   -13519.033    90.386194 
   30500    253.44158   -824.14431    58836.788   -12562.606    983.61049   -13546.217    90.414382 
   30550    254.84852   -1656.5069    58836.788    -12562.49    989.07086   -13551.561    90.210918 
   30600    252.34991   -1733.6343    58836.788   -12562.943    979.37371   -13542.316    90.572364 
   30650    260.39779   -1512.5094    58836.788     -12563.4    1010.6077   -13574.007    90.916517 
   30700    254.95261   -1176.7603    58836.788    -12563.32    989.47483   -13552.795    90.960165 
   30750    250.75042   -687.47232    58836.788   -12562.662    973.16607   -13535.828    91.013078 
   30800    254.50439   -704.82614    58836.788   -12563.319    987.73527   -13551.054     91.25798 
   30850    252.68571   -782.58158    58836.788   -12562.745    980.67695   -13543.422    91.184084 
   30900     248.2537   -1578.0128    58836.788   -12562.716    963.47625   -13526.192    91.271863 
   30950    249.51484   -625.45075    58836.788   -12562.285    968.37077   -13530.656    91.176458 
   31000    263.70457   -1744.8461    58836.788     -12563.6    1023.4413   -13587.041    91.384153 
   31050     252.9417   -1793.9377    58836.788   -12562.529    981.67044   -13544.199    91.481608 
   31100    257.87878    -472.8044    58836.788   -12563.015    1000.8313   -13563.846    91.829302 
   31150    254.13391   -823.04185    58836.788   -12563.041    986.29745   -13549.339    92.008231 
   31200    248.06599   -236.31794    58836.788   -12562.654    962.74776   -13525.402    91.707768 
   31250    250.49092   -655.53368    58836.788   -12561.851    972.15894    -13534.01    91.806701 
   31300    245.30457   -1316.2941    58836.788   -12562.453    952.03062   -13514.483    91.493372 
   31350    250.79057   -2403.9053    58836.788   -12562.432     973.3219   -13535.754    91.713135 
   31400    254.19057   -1647.3758    58836.788   -12563.161    986.51733   -13549.678    92.042602 
   31450    256.19625   -1286.7264    58836.788   -12563.394    994.30141   -13557.696     91.48565 
   31500    241.05423   -1380.2784    58836.788   -12562.288      935.535   -13497.823    91.839986 
   31550    256.21531   -538.46462    58836.788   -12562.553    994.37537   -13556.929    91.964961 
   31600    250.46914   -1166.8062    58836.788   -12562.664     972.0744   -13534.739     92.03335 
   31650    256.45911   -668.74457    58836.788   -12563.368    995.32156   -13558.689    91.734606 
   31700    252.10025   -1210.3024    58836.788   -12563.092    978.40477   -13541.497    91.787561 
   31750    250.76438   -623.21206    58836.788   -12562.796    973.22025   -13536.017    91.827701 
   31800    242.25469   -798.53344    58836.788   -12561.972      940.194   -13502.166    91.843505 
   31850    250.34048    -1284.198    58836.788   -12562.811    971.57509   -13534.386    92.083142 
   31900    253.38293   -831.85304    58836.788   -12562.825    983.38286   -13546.207    92.140733 
   31950    252.74216   -1527.5693    58836.788   -12561.794    980.89602    -13542.69    92.460374 
   32000    246.95334   -1238.3355    58836.788   -12562.179    958.42953   -13520.609    92.545739 
   32050    249.57129   -1186.6879    58836.788   -12562.547    968.58983   -13531.137     92.44297 
   32100     244.0392   -2028.0628    58836.788   -12562.163    947.11973   -13509.283    92.306891 
   32150    255.21297   -1140.6771    58836.788   -12563.128    990.48527   -13553.614    92.246785 
   32200    255.06929   -1337.2377    58836.788   -12562.184    989.92767   -13552.112    92.383792 
   32250    253.72137   -1320.7913    58836.788   -12562.762    984.69636   -13547.459    92.593625 
   32300    249.90986   -1218.4596    58836.788   -12562.794    969.90385   -13532.698     92.63413 
   32350    243.41873   -1125.1549    58836.788   -12561.051    944.71168   -13505.762    92.830363 
   32400     250.5014   -1231.9939    58836.788    -12562.12    972.19963   -13534.319    92.939225 
   32450    240.33076   -789.24007    58836.788   -12561.775    932.72719   -13494.502    93.121605 
   32500    253.58146   -703.22009    58836.788   -12563.081    984.15337   -13547.235    93.136701 
   32550    247.17546   -1524.4455    58836.788   -12562.277     959.2916   -13521.569    93.112736 
   32600    251.83412   -1107.3331    58836.788   -12562.545     977.3719   -13539.916     93.00761 
   32650    248.91257   -1568.6884    58836.788   -12562.155    966.03332   -13528.188    92.944167 
   32700    250.74538   -1597.9864    58836.788   -12562.589    973.14652   -13535.735    92.691816 
   32750    252.30441   -1414.6304    58836.788   -12562.162    979.19714   -13541.359    93.113739 
   32800      243.115   -690.28373    58836.788   -12561.521    943.53287   -13505.054     93.20121 
   32850    246.35517   -600.65805    58836.788   -12561.787    956.10802   -13517.895    93.183856 
   32900    251.52558    -799.6796    58836.788   -12562.456    976.17446    -13538.63    93.407297 
   32950    248.47138   -608.14564    58836.788   -12562.257    964.32106   -13526.578    93.612305 
   33000    247.73371   -1460.6977    58836.788    -12561.65    961.45815   -13523.109    94.006742 
   33050    259.89883   -835.32975    58836.788   -12563.342    1008.6712   -13572.013    94.162901 
   33100    251.25147   -1063.2489    58836.788   -12561.952    975.11063   -13537.063    94.221343 
   33150    246.56755   -702.36967    58836.788   -12561.603    956.93228   -13518.536    94.604669 
   33200    251.62961   -514.44128    58836.788    -12562.63    976.57821   -13539.208     94.97375 
   33250    258.97378   -773.95149    58836.788   -12563.098     1005.081   -13568.179    95.221086 
   33300    249.71221   -1287.9992    58836.788   -12562.645    969.13677   -13531.782      95.3956 
   33350     246.3132    -776.6379    58836.788   -12561.814    955.94515   -13517.759    95.680519 
   33400     244.4734   -1086.1933    58836.788   -12561.909    948.80486   -13510.714    95.525737 
   33450    243.73924   -2178.2157    58836.788   -12562.158    945.95555   -13508.113    95.726172 
   33500    248.83255   -2008.8271    58836.788    -12562.21    965.72279   -13527.933    95.876692 
   33550    252.15732   -1710.6985    58836.788   -12562.525    978.62625   -13541.151    96.150531 
   33600    248.69243   -1552.3799    58836.788   -12562.287    965.17897   -13527.466     96.14828 
   33650    250.61982   -1668.9232    58836.788   -12562.521    972.65921    -13535.18    96.080649 
   33700    249.77194   -1793.2653    58836.788   -12562.148    969.36855   -13531.516    96.122656 
   33750    252.28996   -987.73759    58836.788   -12562.997    979.14105   -13542.138     96.49965 
   33800    251.84777   -1271.9337    58836.788   -12562.772    977.42488   -13540.197     96.91191 
   33850    254.07767   -763.18377    58836.788   -12561.873    986.07917   -13547.952    96.881025 
   33900    259.89455   -1125.7197    58836.788   -12562.981    1008.6546   -13571.635    97.096825 
   33950    251.30206     -998.661    58836.788   -12562.361    975.30698   -13537.668    97.025229 
   34000    253.60574   -958.34956    58836.788   -12563.142     984.2476   -13547.389    97.252524 
   34050     251.3705   -1256.0877    58836.788   -12563.494     975.5726   -13539.067    97.134862 
   34100    256.70455   -869.65017    58836.788   -12563.063    996.27411   -13559.337      97.3128 
   34150    247.94839   -398.93903    58836.788   -12562.388    962.29136   -13524.679    97.337714 
   34200    250.86099   -977.91232    58836.788   -12562.636    973.59517   -13536.231    97.489448 
   34250    253.45397   -454.18748    58836.788   -12562.829    983.65858   -13546.487      97.3713 
   34300    252.11352   -1602.5149    58836.788    -12563.09    978.45627   -13541.546    97.392911 
   34350    247.82645   -1792.3676    58836.788    -12562.04    961.81808   -13523.858    97.641727 
   34400    250.18181   -1409.2151    58836.788   -12562.445    970.95929   -13533.404    97.720713 
   34450    254.56094   -1558.9466    58836.788    -12561.95    987.95476   -13549.904    98.009433 
   34500    256.17268   -568.35542    58836.788   -12562.777    994.20992   -13556.986    97.927023 
   34550    254.73823   -1295.2254    58836.788   -12562.487    988.64281   -13551.129    98.286059 
   34600    255.29278   -299.44218    58836.788   -12562.972    990.79503   -13553.767    97.861166 
   34650    250.76905    -1458.717    58836.788   -12561.923    973.23837   -13535.161      98.1882 
   34700     253.9508   -1326.7091    58836.788   -12562.073    985.58677   -13547.659     98.39214 
   34750     245.1405   -834.97292    58836.788   -12562.048    951.39387   -13513.442    98.308087 
   34800    247.69269   -623.80125    58836.788   -12561.905    961.29898   -13523.204    98.436354 
   34850     253.2701   -935.46647    58836.788   -12562.379    982.94498   -13545.324    98.868276 
   34900    253.85195   -854.15337    58836.788   -12562.923    985.20313   -13548.126    99.195008 
   34950    256.03037   -1395.3386    58836.788   -12562.865    993.65762   -13556.522    99.313844 
   35000    246.43886   -1213.2697    58836.788   -12561.376    956.43283   -13517.809    99.403388 
   35050    250.14169    -671.9832    58836.788   -12562.124    970.80357   -13532.927    99.503652 
   35100    253.77558   -1222.4111    58836.788   -12562.915    984.90674   -13547.822    99.645326 
   35150    251.24939   -1079.7017    58836.788   -12562.554    975.10258   -13537.657    99.541914 
   35200    250.48458   -943.75612    58836.788   -12562.121    972.13434   -13534.255    99.751298 
   35250    251.54827   -624.82736    58836.788   -12562.216    976.26254   -13538.478    99.743454 
   35300    253.21994   -522.61674    58836.788   -12562.746     982.7503   -13545.496    99.449762 
   35350    251.03273   -1329.0235    58836.788   -12562.229    974.26169   -13536.491    99.844602 
   35400    249.35207   -914.25733    58836.788   -12562.021    967.73905    -13529.76    100.17059 
   35450    257.05665   -1325.1393    58836.788   -12563.274    997.64065   -13560.914    100.43263 
   35500    254.29041   -643.31957    58836.788   -12562.881    986.90482   -13549.786    100.36159 
   35550    246.79841   -1185.7448    58836.788   -12562.598    957.82824   -13520.426    100.55727 
   35600    256.67347   -736.66013    58836.788   -12562.491    996.15351   -13558.645    100.59027 
   35650    248.33034    -598.8664    58836.788   -12562.186    963.77369    -13525.96    100.82203 
   35700     253.6574   -848.25312    58836.788   -12562.618    984.44809   -13547.066    101.00686 
   35750    253.20189    -663.6785    58836.788    -12562.23    982.68024    -13544.91    100.86769 
   35800    244.39107   -1359.0943    58836.788   -12561.749    948.48535   -13510.234    101.00451 
   35850    243.46426   -782.13629    58836.788   -12561.996    944.88838   -13506.884    100.85765 
   35900    244.21788   -830.63915    58836.788    -12561.59    947.81317   -13509.403     100.9281 
   35950    253.04352   -564.07749    58836.788   -12562.072    982.06562   -13544.138    101.11663 
   36000     247.8197   -1743.2593    58836.788   -12561.647    961.79189   -13523.439    101.24468 
   36050    244.56039   -678.63231    58836.788   -12561.284    949.14245   -13510.427    101.14408 
   36100    247.55435   -869.90419    58836.788   -12561.075    960.76207   -13521.838    100.85228 
   36150    245.18527   -696.84975    58836.788   -12561.335    951.56762   -13512.903    101.18835 
   36200    253.45384   -816.58816    58836.788   -12561.793    983.65808   -13545.451    101.65145 
   36250    253.25946   -171.75963    58836.788   -12561.479    982.90366   -13544.383    101.72388 
   36300    247.67422   -853.69907    58836.788   -12562.295    961.22728   -13523.522    101.83691 
   36350    253.41981   -561.63125    58836.788   -12561.865    983.52599   -13545.391    101.87063 
   36400    253.38114   -940.75274    58836.788   -12562.089    983.37594   -13545.465    102.08779 
   36450    257.70676   -1298.7429    58836.788   -12562.574    1000.1637   -13562.738    102.30011 
   36500    256.58898   -1742.1482    58836.788   -12563.559     995.8256   -13559.385    102.52137 
   36550    250.99006   -1241.9224    58836.788   -12561.422    974.09612   -13535.518    102.63435 
   36600    250.05561   -1209.3317    58836.788    -12562.03    970.46949   -13532.499    102.28166 
   36650    254.56126   -1595.6444    58836.788   -12562.136      987.956   -13550.092    102.30931 
   36700    253.39877   -1143.2466    58836.788   -12561.781    983.44433   -13545.225    102.38822 
   36750      250.258   -1223.2955    58836.788   -12561.773    971.25497   -13533.028    102.53521 
   36800    250.58371   -1518.5322    58836.788   -12561.807    972.51906   -13534.326    102.64563 
   36850    245.57916   -1498.1456    58836.788   -12561.946    953.09631   -13515.043    103.12297 
   36900    244.24518   -1719.7856    58836.788   -12561.358    947.91914   -13509.277    103.44297 
   36950    243.11953    -1138.948    58836.788   -12561.497    943.55048   -13505.047    103.61344 
[...]
  140850    253.69405   -861.98223    58387.129   -12462.121    984.59033   -13446.711    343.66193 
  140900    250.27919   -1526.3177    58493.888   -12467.165    971.33719   -13438.502    343.90602 
  140950    261.66231    -1509.068    58611.071   -12461.684    1015.5153   -13477.199    343.65665 
  141000    252.89164   -1258.0588    58694.181   -12462.826    981.47618   -13444.302    343.33848 
  141050    262.41602   -1461.5027    58719.799   -12459.056    1018.4404   -13477.496    344.15637 
  141100    260.09229   -1015.3677    58676.765   -12449.295     1009.422   -13458.717    343.88294 
  141150    270.52892   -1803.5745    58621.194   -12470.428    1049.9267   -13520.354    343.64054 
  141200    254.68926   -897.20803    58522.728    -12473.78    988.45277   -13462.233    344.20839 
  141250    263.75676   -2357.9584    58425.434   -12473.822    1023.6438   -13497.466    344.82259 
  141300     264.4393    93.318244    58322.542   -12474.289    1026.2928   -13500.582    344.94701 
  141350    255.55103   -392.96546    58275.335    -12492.62    991.79729   -13484.417    345.30552 
  141400    259.70612   -403.05355    58337.376   -12488.422    1007.9233   -13496.345     345.3573 
  141450    254.76983   -480.95761    58423.428   -12500.779    988.76547   -13489.544    345.82596 
  141500    256.21688   -181.81511    58532.979   -12502.566    994.38147   -13496.948    345.30126 
  141550    253.86433   -752.76199    58645.135   -12502.889    985.25121    -13488.14     345.2562 
  141600    248.57199   -662.33475    58749.083   -12523.119    964.71153   -13487.831    345.52342 
  141650    248.85318   -1029.0013    58829.863   -12535.812    965.80286   -13501.615    345.69065 
  141700    250.14786   -1780.4482    58858.038    -12527.52    970.82751   -13498.348    345.48055 
  141750    255.37515   -1582.1567    58808.308   -12522.877    991.11472   -13513.991    345.39969 
  141800    243.11604   -814.21907    58713.262   -12522.792    943.53694   -13466.329    345.69276 
  141850    246.25952   -1028.3616      58599.4   -12533.477     955.7368   -13489.214    345.80078 
  141900    251.37964   -129.53888     58523.49   -12541.001    975.60806   -13516.609    345.71563 
  141950    250.51939   -928.32396    58489.894   -12537.779    972.26942   -13510.049    346.95102 
  142000    244.94191   -993.47506    58460.051   -12549.698    950.62313   -13500.321    346.85423 
  142050    259.73072   -488.57162    58463.947   -12539.344    1008.0187   -13547.362    346.82546 
  142100    253.87635   -1351.7208    58497.737   -12525.603    985.29783   -13510.901    346.67689 
  142150    250.40651   -1477.3943    58539.255     -12527.8    971.83134   -13499.631    347.00967 
  142200    250.73988   -1343.8093    58555.019   -12522.207    973.12515   -13495.333    347.14794 
  142250    249.53478   -742.00765    58552.044   -12529.172    968.44816    -13497.62    347.38433 
  142300    252.42156   -1186.9651    58539.712    -12529.47    979.65177   -13509.122    347.02398 
  142350    253.00804   -1107.1384    58532.952   -12534.013    981.92793   -13515.941    347.10783 
  142400    252.15898   -745.03467    58533.754   -12521.615    978.63271   -13500.247    347.53868 
  142450    248.94994   -1195.7658    58525.016   -12539.904    966.17835   -13506.083    347.71587 
  142500    260.23364    -779.8687    58514.482   -12528.671    1009.9706   -13538.641    347.63607 
  142550    246.96772   -1137.9169    58497.628   -12543.326    958.48533   -13501.812    347.44977 
  142600    252.11305   -679.49292    58477.905   -12548.524    978.45445   -13526.979    347.79112 
  142650    249.35958   -489.79951    58474.248   -12532.285    967.76817   -13500.053    347.76435 
  142700    245.26161   -890.35476     58480.51   -12554.428    951.86393   -13506.292    348.05133 
  142750    243.51874   -1117.2578    58520.761   -12556.414    945.09981   -13501.514    348.03084 
  142800    245.65147    -242.2887    58583.267   -12543.849    953.37697   -13497.226    348.36741 
  142850    250.15452   -1045.2368    58663.245   -12555.809    970.85335   -13526.663    348.66439 
  142900    247.06669   -1283.8092     58747.17   -12550.771    958.86946    -13509.64    348.57205 
  142950    249.26382   -1173.7134    58797.122   -12544.293    967.39654   -13511.689    349.39742 
  143000    247.69073   -821.95154    58850.114   -12550.415    961.29137   -13511.707    348.86827 
  143050    254.79711   -773.64704    58927.025   -12540.846    988.87132   -13529.717      348.841 
  143100    252.05827   -670.36423    59004.303   -12549.528    978.24186   -13527.769    348.65562 
  143150    252.01022   -493.36131    59059.844   -12551.255    978.05538   -13529.311    349.11551 
  143200    256.48133   -1159.5681    59106.779   -12545.222    995.40781    -13540.63    348.76033 
  143250    257.72075   -870.96248    59168.485   -12545.951     1000.218   -13546.169    348.64759 
  143300    257.23854   -1164.0349     59256.01   -12551.276    998.34657   -13549.623     348.9464 
  143350    258.32583   -1717.3097    59301.782   -12560.783    1002.5663    -13563.35    349.09437 
  143400    258.14487   -1454.6959    59253.273   -12550.328     1001.864   -13552.192    349.00354 
  143450    246.74381   -343.74355    59133.662   -12566.621    957.61635   -13524.237    348.91926 
  143500    248.44685   -797.77129    58975.222   -12561.408    964.22589   -13525.634    349.22578 
  143550    263.15359   -758.38048    58807.051   -12543.892     1021.303   -13565.195    348.93426 
  143600    250.54894   -187.64186     58685.45    -12561.96    972.38413   -13534.344    349.39559 
  143650    257.52096   -565.82039    58646.835   -12548.785    999.44264   -13548.228     349.9936 
  143700     249.7395   -20.236583    58655.071   -12559.884    969.24265   -13529.126    349.78643 
  143750    253.64115   -1033.7695    58684.625    -12545.83    984.38503   -13530.215    349.62799 
  143800     251.3154   -1040.4664    58737.719   -12552.359    975.35875   -13527.718    349.70097 
  143850    243.15354    -1279.073    58754.548   -12557.518    943.68245   -13501.201    350.01425 
  143900    260.17561   -1042.1492    58724.121   -12553.892    1009.7454   -13563.637    350.18041 
  143950    252.31389   -772.92663    58694.004   -12549.652    979.23391   -13528.886    349.87908 
  144000    257.65117   -1192.6987    58671.645   -12548.186    999.94797   -13548.134      349.567 
  144050    256.86436   -1831.5582    58613.929    -12541.68    996.89435   -13538.574    350.02111 
  144100    247.36074   -1311.6344    58503.354   -12541.196    960.01068   -13501.207    350.02114 
  144150    259.88422   -968.92565    58416.688   -12525.887    1008.6145   -13534.501    350.07557 
  144200    254.76475   -402.72609    58359.671   -12529.744    988.74572   -13518.489     350.5321 
  144250    258.07385    -569.6575    58387.174   -12512.802    1001.5884    -13514.39    351.02765 
  144300    248.85614   -1102.9075    58443.481   -12512.424    965.81434   -13478.238    351.52331 
  144350     252.5189    -767.1511    58510.268   -12524.838    980.02954   -13504.867    352.13459 
  144400    247.99112   -1677.5416    58577.498   -12521.458    962.45717   -13483.915    352.20326 
  144450    251.20666   -1589.4969    58622.934   -12530.762    974.93674   -13505.698    352.00772 
  144500    252.63225   -1273.7296    58590.072   -12520.555    980.46949   -13501.024    351.87588 
  144550    258.22211   -1369.4351    58492.107   -12532.749    1002.1638   -13534.912    352.31287 
  144600    254.23468   -477.02526     58378.91   -12525.933    986.68852   -13512.621    352.45987 
  144650    253.31953   -631.47592    58330.629   -12524.335    983.13681   -13507.471    352.49442 
  144700    256.11564    78.023833    58315.846   -12531.145    993.98857   -13525.134    353.01869 
  144750    255.46577   -1091.9168    58366.526   -12532.842    991.46639   -13524.309    352.80849 
  144800    254.47507   -1218.7792    58430.213    -12546.36    987.62149   -13533.981    352.62035 
  144850    246.37175   -1520.9187    58468.716   -12542.027    956.17238   -13498.199    352.48855 
  144900    237.45203   -749.07303    58471.661   -12553.864    921.55483   -13475.419    352.49832 
  144950     250.9258   -646.24082    58476.668   -12563.951    973.84673   -13537.798    352.33377 
  145000    255.15483    72.338796    58459.498   -12554.502    990.25966   -13544.761    352.40056 
  145050    242.54007   -1256.7347    58500.309   -12545.567    941.30158   -13486.868     353.0184 
  145100    245.02318   -973.99156     58545.16   -12542.464    950.93854   -13493.402     353.3933 
  145150    250.43663    -1083.317    58526.657    -12550.65    971.94825   -13522.598    352.83826 
  145200    253.40272   -1518.8747     58487.79    -12555.12    983.45967    -13538.58    353.22439 
  145250    252.80058   -704.54654     58462.47   -12549.095    981.12278   -13530.218    353.17541 
  145300    246.57105   -1429.7435    58456.632   -12565.898    956.94586   -13522.844    353.80487 
  145350    257.76226   -1003.6154    58453.969   -12558.526    1000.3791   -13558.905    353.79991 
  145400    246.75484   -295.98013    58506.686   -12564.879    957.65915   -13522.538    354.06863 
  145450    244.53963    -1277.645    58600.466    -12559.62     949.0619   -13508.682    354.30233 
  145500    246.39437   -1207.1271    58678.713   -12568.453    956.26016   -13524.713    354.43166 
  145550    245.91572    -1997.852    58743.613   -12577.489    954.40253   -13531.891    355.09288 
  145600    253.05566   -992.72571    58762.291   -12567.827    982.11274    -13549.94    355.32022 
  145650    245.08465    59.300586     58784.49   -12569.907    951.17712   -13521.084     354.9585 
  145700    249.17601   -1608.5891    58866.523   -12572.965    967.05576   -13540.021    354.79258 
  145750    241.48123   -1539.8173    58928.804    -12558.96    937.19221   -13496.153    354.00469 
  145800    252.21714   -1302.1644    58926.893   -12564.788    978.85842   -13543.646    354.64157 
  145850    246.24993   -1921.4612    58834.757   -12562.072    955.69958   -13517.772    354.65556 
  145900    252.91843   -1133.8175    58666.571   -12553.919    981.58013   -13535.499    354.62213 
  145950    252.68048   -1080.1902    58508.084   -12565.008    980.65666   -13545.665    355.35998 
  146000    248.80638   -976.74767     58372.81   -12565.395     965.6212   -13531.017     355.1234 
  146050     253.8888   -560.84831     58272.38   -12544.593    985.34617   -13529.939     355.7354 
  146100    246.40598   -618.50843    58217.954    -12549.99    956.30523   -13506.296    356.14598 
  146150    253.92705   -587.31861    58194.409   -12539.245    985.49462    -13524.74    356.60726 
  146200    253.66913   -1457.1336    58190.732   -12532.836    984.49362    -13517.33    356.52883 
  146250    260.21125   -611.18437    58207.654    -12526.87    1009.8837   -13536.754    356.03539 
  146300    244.58136     -473.158    58223.913   -12533.902    949.22384   -13483.125    356.08642 
  146350    259.85453   -578.01712    58222.191   -12540.672    1008.4992   -13549.171    356.07273 
  146400    255.98342   -847.86577    58217.722   -12539.551     993.4754   -13533.026    355.87064 
  146450    248.21455   -704.54269    58193.035   -12524.515    963.32433   -13487.839    356.16967 
  146500    248.50821   -423.28508    58207.761   -12529.132      964.464   -13493.596     356.1609 
  146550    252.52654   -350.41721    58265.818   -12519.699    980.05923   -13499.758    357.15855 
  146600    248.97537    -137.1774    58359.134   -12525.466    966.27707   -13491.743    357.28625 
  146650    254.68639   -918.73222     58468.33   -12538.428    988.44161   -13526.869    357.33242 
  146700    251.39518   -924.17128    58520.707   -12538.449    975.66838   -13514.117    356.88805 
  146750    253.62192   -1820.5785    58521.016   -12536.607    984.31041   -13520.918    356.59828 
  146800    246.15511   -541.07156    58471.169   -12547.818    955.33161   -13503.149     356.1834 
  146850    258.35245    -519.9091    58432.357   -12543.435    1002.6697   -13546.105    356.81308 
  146900    252.86214   -966.43916    58441.554   -12531.061     981.3617   -13512.423    356.95332 
  146950    265.38531   -674.52758    58450.574   -12538.279    1029.9643   -13568.243    356.55725 
  147000    255.71523     -1580.25    58441.975   -12535.992    992.43457   -13528.427    356.52195 
  147050    253.99317   -1028.7023    58428.044   -12550.867    985.75121   -13536.619    356.61744 
  147100    246.97554   -1257.4164    58410.532   -12561.719    958.51569   -13520.235    356.92765 
  147150     250.0413   -720.94247    58404.091   -12553.149    970.41398   -13523.563    356.27118 
  147200    249.26819    -1400.408    58396.096   -12558.718    967.41351   -13526.131    356.49553 
  147250    251.37062   -736.00915    58380.931    -12554.32    975.57307   -13529.893    356.92128 
  147300     242.5458   -803.76568    58381.256   -12569.748    941.32382   -13511.072    356.98695 
  147350    251.11283   -916.22242    58330.603   -12569.257     974.5726    -13543.83     356.7414 
  147400    240.65493   -545.07555    58261.914   -12587.449    933.98534   -13521.434    357.40433 
  147450    247.83561   -42.154393    58263.567   -12585.776    961.85363   -13547.629     357.1552 
  147500    253.52727   -574.32957    58320.793   -12574.303    983.94304   -13558.246     357.4956 
  147550    248.54806   -1682.3314    58381.901   -12568.117    964.61866   -13532.735    357.36706 
  147600    244.98237   -1184.3715    58432.295   -12549.444    950.78019   -13500.224    357.81885 
  147650    254.92366   -1676.6087    58423.148   -12550.418    989.36246    -13539.78    357.38855 
  147700    250.61533    -539.4573    58370.044   -12547.714    972.64179   -13520.356    357.36047 
  147750     244.3542   -1453.2407     58311.66   -12558.802    948.34225   -13507.144    357.84828 
  147800    248.80987   -417.96232    58243.648   -12575.344    965.63477   -13540.979    357.77854 
  147850    254.72091   -614.97824    58235.758   -12583.045    988.57561   -13571.621     357.9418 
  147900    251.79686   -286.09235    58264.913   -12585.007    977.22732   -13562.234    358.41583 
  147950    243.16015   -929.83766    58287.996   -12580.354    943.70813   -13524.062    358.63894 
  148000    247.76312   -1336.7383    58287.811   -12588.741    961.57229   -13550.313    359.16018 
  148050    251.84151    -1351.041    58272.901   -12587.933     977.4006   -13565.334    359.34373 
  148100     257.7619   -553.41848    58243.167   -12593.075    1000.3777   -13593.452     359.3537 
  148150    249.98451   -258.67612    58256.259   -12598.329    970.19355   -13568.522    359.37131 
  148200    247.34604   -357.71243    58318.185   -12599.124    959.95363   -13559.078    359.31774 
  148250    245.44682    -776.7491    58410.891     -12600.6    952.58271   -13553.183    359.71534 
  148300     240.8203    -1342.241    58524.444   -12613.199    934.62713   -13547.826    359.62018 
  148350    253.29847   -1448.7242    58602.865   -12594.794    983.05509   -13577.849    358.87235 
  148400    252.72829   -1326.6178    58573.921   -12590.261     980.8422   -13571.103    359.42229 
  148450    242.13149   -1248.5829    58478.399   -12605.424    939.71587    -13545.14    359.50054 
  148500    254.16164   -807.53797    58368.775   -12599.777    986.40504   -13586.182    359.94987 
  148550    241.60493   -921.39156    58243.342   -12608.328    937.67229       -13546    359.29021 
  148600    253.30351   -609.08795    58065.238   -12618.497    983.07464   -13601.572    359.24673 
  148650    252.24727   -807.48285    57910.787   -12616.934    978.97535    -13595.91    359.52059 
  148700    247.06599   -544.76778    57844.112   -12613.171    958.86672   -13572.037    359.45245 
  148750    252.87095   -978.60197     57813.92   -12616.424    981.39588    -13597.82    360.04032 
  148800    252.46581   -1462.3825     57829.86   -12611.616    979.82353   -13591.439    360.44608 
  148850    254.03789   -266.95279    57866.905   -12605.355    985.92478    -13591.28    360.91049 
  148900    245.90729   -1109.6618    57940.887   -12598.979     954.3698   -13553.349    361.45954 
  148950    250.07169   -867.07149     58040.15   -12602.412    970.53191   -13572.944    361.27837 
  149000     252.8595   -1188.1847    58182.494   -12599.393    981.35142   -13580.744    361.52496 
  149050    243.16305   -1130.5638    58335.502   -12599.996    943.71936   -13543.716    361.59304 
  149100    245.21229   -1082.6839    58467.676   -12610.747    951.67249   -13562.419    361.52276 
  149150    247.73204   -672.74033    58540.253   -12616.186    961.45168   -13577.637    361.45062 
  149200    249.77408    -509.0801    58583.546   -12612.949    969.37687   -13582.325    362.09117 
  149250    237.83842   -223.05229    58619.304   -12623.099     923.0544   -13546.154    361.52839 
  149300    250.18209   -876.93872    58677.031   -12636.518    970.96037   -13607.478    361.76197 
  149350     237.5158   -1793.4448    58741.096    -12625.22    921.80231   -13547.022    362.73889 
  149400    237.73461   -1357.7635    58765.214   -12625.287    922.65152   -13547.939    362.78278 
  149450    241.43587   -1581.7526    58712.629   -12635.865    937.01614   -13572.881    362.71901 
  149500    242.07515   -1439.2459    58571.089   -12630.947    939.49722   -13570.445    362.71483 
  149550    246.72139   -1117.0718     58403.84    -12624.25    957.52933   -13581.779    362.82622 
  149600    244.16449   -733.89352    58262.322    -12632.05    947.60599   -13579.656    362.31863 
  149650    249.57631   -326.23101    58182.372   -12626.527    968.60931   -13595.136    362.68381 
  149700    242.68511   -542.63212    58200.976   -12628.441    941.86446   -13570.305    361.99385 
  149750    245.31674   -770.01877    58252.716   -12629.557    952.07788   -13581.635    362.12367 
  149800    238.27488   -552.49352    58312.588   -12625.334    924.74832   -13550.082    362.76631 
  149850    250.87091   -1218.2763    58408.343   -12630.558     973.6337   -13604.191    363.04816 
  149900    247.45247   -443.66172    58479.868   -12619.846    960.36666   -13580.212     362.5141 
  149950    242.89713   -683.11569    58529.477   -12607.576    942.68733   -13550.264    362.55586 
  150000    249.43302   -1241.3931    58598.323   -12597.661    968.05321   -13565.715    362.72966 
Loop time of 196.991 on 12 procs for 100000 steps with 4063 atoms

Performance: 438.599 ns/day, 0.055 hours/ns, 507.638 timesteps/s
96.0% CPU use with 12 MPI tasks x no OpenMP threads

MPI task timing breakdown:
Section |  min time  |  avg time  |  max time  |%varavg| %total
---------------------------------------------------------------
Pair    | 85.256     | 100.1      | 119.22     | 144.6 | 50.82
Neigh   | 5.5613     | 12.7       | 21.026     | 198.8 |  6.45
Comm    | 37.107     | 63.627     | 84.767     | 260.7 | 32.30
Output  | 0.59966    | 0.61523    | 0.75901    |   5.5 |  0.31
Modify  | 17.482     | 18.191     | 18.923     |  12.5 |  9.23
Other   |            | 1.756      |            |       |  0.89

Nlocal:        338.583 ave         542 max         169 min
Histogram: 6 0 0 0 0 0 0 0 3 3
Nghost:        1577.33 ave        1776 max        1367 min
Histogram: 2 2 2 0 0 0 0 0 4 2
Neighs:        0.00000 ave           0 max           0 min
Histogram: 12 0 0 0 0 0 0 0 0 0
FullNghs:      37250.5 ave       69657 max        9314 min
Histogram: 6 0 0 0 0 0 0 0 2 4

Total # of neighbors = 447006
Ave neighs/atom = 110.01871
Neighbor list builds = 11220
Dangerous builds = 0


# Create data file for import to other simulations
#
write_data data.${NAME}
write_data data.ML_graphite_m500atm_250K
System init for write_data ...


Total wall time: 0:05:00
