
# read in water data
read_data data.ML_m500atm_240K group water extra/atom/types 1
Reading data file ...
  orthogonal box = (0.0000000 0.0000000 -0.096009588) to (49.220000 49.019636 28.036010)
  3 by 2 by 2 MPI processor grid
  reading atoms ...
  2204 atoms
  reading velocities ...
  2204 velocities
  read_data CPU = 0.037 seconds

# remove area for graphite
region substrate block 0 ${XDIM} 0 ${YDIM} 0 ${Z_G}
region substrate block 0 49.22 0 ${YDIM} 0 ${Z_G}
region substrate block 0 49.22 0 49.019635930410494 0 ${Z_G}
region substrate block 0 49.22 0 49.019635930410494 0 10.062
delete_atoms region substrate
Deleted 794 atoms, new total = 1410

# Insert substrate
read_data data.graphite add append shift 0.0 0.0 0.0 group graphite offset 1 0 0 0 0
Reading data file ...
  orthogonal box = (0.0000000 0.0000000 -0.096009588) to (49.220000 49.019636 28.036010)
  3 by 2 by 2 MPI processor grid
  reading atoms ...
  2760 atoms
  reading velocities ...
  2760 velocities
  read_data CPU = 0.008 seconds


# Define potential
# CHECK ON THIS %%%%%%%%%%%%
#
pair_style sw
pair_coeff * * MLC_e.sw mW C


# Delete water and ice atoms that are overlapping
#
delete_atoms overlap 2.5 water graphite
System init for delete_atoms ...
Neighbor list info ...
  update every 1 steps, delay 10 steps, check yes
  max neighbors/atom: 2000, page size: 100000
  master list distance cutoff = 6.6747184
  ghost atom cutoff = 6.6747184
  binsize = 3.3373592, bins = 15 15 9
  2 neighbor lists, perpetual/occasional/extra = 1 1 0
  (1) command delete_atoms, occasional, copy from (2)
      attributes: full, newton on
      pair build: copy
      stencil: none
      bin: none
  (2) pair sw, perpetual
      attributes: full, newton on
      pair build: full/bin/atomonly
      stencil: full/bin/3d
      bin: standard
Deleted 115 atoms, new total = 4055

# set timestep
#
timestep 10.0

# Define output
#

compute 1 all msd
compute 2 water temp
compute        peratom water stress/atom NULL
compute        p water reduce sum c_peratom[1] c_peratom[2] c_peratom[3]
variable       water_press equal -(c_p[1]+c_p[2]+c_p[3])/(3*(vol-24277.055086535))

thermo 50
thermo_style custom step c_2 v_water_press vol etotal ke pe c_1[4]

# Neighbor lists
#
neigh_modify delay 0 every 1 check yes


# Fix graphite atoms in place
#
fix 1 graphite setforce 0.0 0.0 0.0
velocity graphite set 0.0 0.0 0.0


### Set fixes ###
#

# Run 0.25 ns equilibration of water in NPH ensemble
#
fix 2 water momentum 10 linear 1 1 1 rescale
fix 3 water nph z ${PRES} ${PRES} ${PCOUPL}
fix 3 water nph z -500 ${PRES} ${PCOUPL}
fix 3 water nph z -500 -500 ${PCOUPL}
fix 3 water nph z -500 -500 10000.0
fix 4 water temp/csvr ${TEMP} ${TEMP} ${TCOUPL} 837492
fix 4 water temp/csvr 240 ${TEMP} ${TCOUPL} 837492
fix 4 water temp/csvr 240 240 ${TCOUPL} 837492
fix 4 water temp/csvr 240 240 5000.0 837492

dump 	1 all atom 2000 nph.${NAME}.dump
dump 	1 all atom 2000 nph.ML_graphite_m500atm_240K.dump
run 	25000
Neighbor list info ...
  update every 1 steps, delay 0 steps, check yes
  max neighbors/atom: 2000, page size: 100000
  master list distance cutoff = 6.6747184
  ghost atom cutoff = 6.6747184
  binsize = 3.3373592, bins = 15 15 9
  1 neighbor lists, perpetual/occasional/extra = 1 0 0
  (1) pair sw, perpetual
      attributes: full, newton on
      pair build: full/bin/atomonly
      stencil: full/bin/3d
      bin: standard
Per MPI rank memory allocation (min/avg/max) = 5.323 | 5.325 | 5.329 Mbytes
Step c_2 v_water_press Volume TotEng KinEng PotEng c_1[4] 
       0    235.48625   -1359.7336     67875.43   -11726.508    908.31007   -12634.818            0 
      50    263.27125   -3822.8247    67559.687    -11758.55    1015.4815   -12774.032   0.39097801 
     100    270.79562   -3048.5131    66739.024   -11788.195    1044.5042   -12832.699   0.71634731 
     150    279.16686   -2832.4479    65989.768   -11805.683    1076.7936   -12882.477   0.99085727 
     200    274.55753    -2866.164    65362.616   -11873.093    1059.0146   -12932.108    1.2841841 
     250    264.08628   -1535.6472    64750.409   -11901.729    1018.6252   -12920.355    1.5486246 
     300    268.16932   -2348.3414    64218.984   -11901.961    1034.3742   -12936.335    1.8968707 
     350    279.16279   -2845.2652    63739.217   -11952.658    1076.7778   -13029.436    2.2423658 
     400    270.69939   -2513.1699     63317.21   -11976.882    1044.1331   -13021.015    2.5366152 
     450     275.2148   -2525.7592    62925.924   -11990.831    1061.5498    -13052.38    2.8407876 
     500     267.3647   -2407.4087    62524.341   -12030.235    1031.2706   -13061.506    3.1456774 
     550    263.61011   -1618.3224    62152.806   -12055.642    1016.7885   -13072.431    3.4321522 
     600    261.94274   -2037.7059      61830.5   -12079.199    1010.3572   -13089.556    3.7776401 
     650    271.48817   -2453.9882    61529.132   -12101.792    1047.1755   -13148.968     4.177577 
     700    271.03811    -3253.557    61213.888   -12120.676    1045.4396   -13166.115     4.390902 
     750    263.26904   -1812.6908    60877.211   -12143.529     1015.473   -13159.002    4.6640045 
     800    280.30215   -1695.2449    60585.902   -12156.699    1081.1725   -13237.871    5.0092173 
     850    269.64561   -1734.1848    60363.864    -12161.83    1040.0685   -13201.898    5.3131241 
     900    272.43275   -1690.3954    60197.706   -12180.169    1050.8189   -13230.988    5.6262847 
     950     273.8308   -2256.9468    59997.987   -12195.524    1056.2114   -13251.736    6.0741206 
    1000     267.1641   -1201.6912     59756.11   -12210.999    1030.4969   -13241.496    6.3545638 
    1050    263.41166   -1112.6778    59588.402   -12231.902    1016.0231   -13247.925    6.5021345 
    1100      265.782    -1468.937    59496.973   -12257.008    1025.1659   -13282.174    6.8203907 
    1150    262.14149   -1181.8708    59421.776   -12271.031    1011.1238   -13282.155    7.1853503 
    1200    263.21771   -1357.5423    59356.595   -12293.917     1015.275   -13309.192    7.4063188 
    1250    263.60339   -1774.5944    59264.475   -12306.395    1016.7626   -13323.158    7.6230515 
    1300     260.6587   -1776.2568    59116.276   -12321.068    1005.4044   -13326.473    7.9101001 
    1350     255.2491   -865.46174    58948.126   -12338.046    984.53872   -13322.585    8.0656222 
    1400    271.45806   -1172.4037     58813.57    -12335.41    1047.0594   -13382.469    8.1892259 
    1450    268.48072   -1331.7268    58680.854   -12344.712    1035.5753   -13380.288    8.4134757 
    1500    249.58215   -1370.5086    58578.059   -12366.339    962.68035   -13329.019     8.692037 
    1550    262.49963   -746.29713    58482.505   -12371.586    1012.5052   -13384.091    8.8981513 
    1600    266.38322   -26.788123    58400.535   -12384.192    1027.4849   -13411.676    9.2388221 
    1650    250.16377   -498.34976    58348.268   -12414.028    964.92373   -13378.951    9.4564598 
    1700    256.34876   -317.30346    58293.861   -12407.086     988.7803   -13395.866    9.6309935 
    1750    261.23639   -1004.0234    58261.887   -12417.696    1007.6327   -13425.329    9.8491282 
    1800     259.8819   -940.72829    58242.705   -12423.045    1002.4082   -13425.453    9.9281123 
    1850    259.48554   -842.59748    58227.631   -12422.949    1000.8794   -13423.828    10.085336 
    1900    255.78206   -682.55858    58230.921   -12409.454    986.59441   -13396.049    10.285271 
    1950    258.95735   -11.773336    58260.716    -12411.92    998.84205   -13410.762    10.367327 
    2000    253.69278   -837.22542    58322.802   -12411.462    978.53571   -13389.998    10.578226 
    2050    254.85987   -1282.5632    58393.583   -12428.753     983.0374    -13411.79    10.723912 
    2100     251.2905   -911.55928    58477.164    -12444.45    969.26971    -13413.72    10.753011 
    2150    245.64735    -1852.939    58542.087   -12439.331    947.50314   -13386.834    10.903084 
    2200    245.80841   -997.93187    58533.188   -12448.852    948.12438   -13396.976    11.101789 
    2250    253.76866    -1190.955    58475.244   -12450.702    978.82842    -13429.53    11.225925 
    2300    254.02278   -2235.4426     58368.69    -12427.39    979.80859   -13407.198    11.530414 
    2350    256.55381   -725.34862    58164.289   -12430.152    989.57119   -13419.723    11.699025 
    2400    253.67286   -410.70537    57986.611    -12436.16    978.45891   -13414.619     11.88307 
    2450    264.60166   -301.38945    57915.321   -12438.971    1020.6131   -13459.584    12.044646 
    2500    247.69458   -338.99679     57912.16   -12434.611    955.39966   -13390.011    12.240385 
    2550    248.53523   -685.62712    57941.589   -12433.929    958.64217   -13392.572    12.214553 
    2600    260.02055   -697.99203    57957.104   -12442.031     1002.943   -13444.974    12.560479 
    2650    257.44483   -269.93821    57961.931   -12432.214    993.00801   -13425.222    12.726202 
    2700    250.40152   -108.57167    57988.492   -12449.025    965.84078   -13414.866    12.818269 
    2750    250.95382     178.4373    58057.061   -12458.218     967.9711   -13426.189    12.780095 
    2800    256.12053   -304.85285    58190.825    -12463.32    987.89997   -13451.219    12.982411 
    2850     250.4198   -1081.0582    58368.465   -12476.929    965.91127    -13442.84    13.074102 
    2900    248.78427   -1067.8715     58519.33   -12488.593    959.60278   -13448.195    13.085935 
    2950      242.528   -953.01314    58608.964    -12493.84    935.47128   -13429.312    13.107973 
    3000    244.43945   -1981.7692    58643.541   -12484.505    942.84408   -13427.349    13.230858 
    3050    247.58508   -1598.4243    58602.329   -12485.921    954.97732   -13440.898    13.400323 
    3100    251.00059   -1452.6136    58490.006   -12499.017     968.1515   -13467.169    13.460761 
    3150    248.48088   -764.40633    58364.575   -12499.102    958.43256   -13457.535    13.620385 
    3200    243.38637   -1971.2908    58263.228   -12491.661    938.78218   -13430.443    13.959182 
    3250    248.46813   -1943.7467    58143.199   -12488.128    958.38336   -13446.511    14.221048 
    3300     258.4975   -552.62775    58025.737   -12477.791    997.06834    -13474.86    14.430856 
    3350    262.55628   -863.91031    57973.762   -12469.354    1012.7237   -13482.078    14.636735 
    3400    248.66681   -687.91666     57986.02     -12495.7    959.14972    -13454.85    14.781593 
    3450    250.62195   -611.59085    58032.959   -12500.956      966.691   -13467.647    14.902514 
    3500    255.21471    -1516.384    58099.814   -12505.857    984.40605   -13490.263     14.90274 
    3550    249.04709   -1548.2072    58127.459   -12500.372    960.61652   -13460.989     15.00276 
    3600    256.02074   -1774.0129    58113.278   -12513.343    987.51504   -13500.858    15.110545 
    3650    253.55131   -931.57346    58107.762   -12518.247    977.99004   -13496.237    15.336772 
    3700    246.57807   -1052.7637    58126.522   -12523.896    951.09311   -13474.989    15.478564 
    3750    253.18188   -360.57676    58155.483   -12526.587     976.5651   -13503.152    15.615393 
    3800    249.92496   -645.10379        58228   -12543.846    964.00261   -13507.848    15.548761 
    3850    248.77116    -469.4996     58338.84    -12549.55    959.55222   -13509.103     15.64031 
    3900    250.50468   -1076.7404    58442.394    -12550.51    966.23869   -13516.749    15.637545 
    3950    242.85642   -1750.4734    58524.726   -12546.317    936.73805   -13483.055    15.821688 
    4000    245.19588     -1072.76    58528.532   -12551.607    945.76174   -13497.369      16.0717 
    4050    250.63116   -1173.0479    58521.195   -12550.244    966.72655    -13516.97    16.080838 
    4100    247.52723   -918.40396    58496.781   -12548.166    954.75417    -13502.92    16.385319 
    4150    257.59837   -203.32259    58473.705   -12539.982    993.60025   -13533.583    16.559667 
    4200    241.32808    -596.5724    58482.572   -12550.782    930.84298   -13481.625    16.685497 
    4250     247.9248   -834.25311    58464.952   -12539.815    956.28767   -13496.102    16.858666 
    4300    246.43241   -1369.2561    58458.859    -12550.15    950.53124   -13500.681    17.093987 
    4350    250.70268   -1134.6639    58433.101   -12551.339    967.00242   -13518.342    17.098589 
    4400    252.66793   -1371.0477    58391.779   -12548.587    974.58271    -13523.17    17.097486 
    4450    247.38057   -1008.3691    58347.759   -12536.473    954.18845   -13490.662    17.252993 
    4500    252.24495   -868.87594    58278.877   -12520.069    972.95119    -13493.02    17.434442 
    4550    246.69833   -331.61719    58220.665   -12518.422    951.55695   -13469.979    17.625279 
    4600    245.47723   -837.10611    58238.253   -12521.006    946.84696   -13467.853    17.772839 
    4650     247.8294   -1166.3331     58269.86    -12508.22    955.91968    -13464.14    17.952696 
    4700    257.80267   -1266.1442    58244.728   -12496.619    994.38828   -13491.007    17.979057 
    4750    254.30717   -596.95919     58197.33   -12499.785    980.90553   -13480.691    18.401252 
    4800    251.24173   -397.87199    58198.938    -12508.04    969.08163   -13477.122    18.433577 
    4850    260.23877   -544.51448    58227.363   -12514.359    1003.7847   -13518.144    18.623274 
    4900    250.92479   -199.31413    58251.524   -12514.691    967.85914    -13482.55    18.808854 
    4950    244.84814    214.13296    58264.035    -12518.15    944.42045    -13462.57    18.905842 
    5000     244.4202   -803.06165    58308.435   -12531.078    942.76984   -13473.847    19.019556 
    5050    261.56627   -955.45298    58361.676   -12539.038    1008.9051   -13547.943    19.203617 
    5100    238.47388    86.233981    58398.893   -12544.584    919.83385   -13464.418    19.352933 
    5150    245.74348   -1333.6522     58385.75   -12557.877    947.87394   -13505.751    19.433926 
    5200    251.71601   -633.52368    58297.737   -12550.318    970.91099   -13521.229    19.503087 
    5250    248.94034   -1023.0271    58213.724   -12553.413    960.20477   -13513.617    19.703652 
    5300    239.25125    -403.3115    58162.041   -12552.791     922.8323   -13475.624    19.960668 
    5350    246.18929   -577.35814    58154.652   -12551.674    949.59351   -13501.267    20.053186 
    5400    246.20388   -1420.7972    58159.542   -12559.088    949.64977   -13508.737    20.229238 
    5450    241.38547   -1430.0673    58140.111    -12568.01    931.06437   -13499.075    20.322869 
    5500    244.82179   -1700.2165     58111.25   -12567.949    944.31883   -13512.268    20.572359 
    5550    245.85169   -552.11278    58054.671   -12585.178    948.29134   -13533.469    20.773622 
    5600    245.58324   -999.31181    58002.229   -12602.977    947.25585   -13550.233    20.907507 
    5650    237.60672   -870.13688    57946.913   -12625.935    916.48907   -13542.424    20.962479 
    5700    234.46357   -766.29487    57914.069   -12620.799    904.36541   -13525.165    21.237527 
    5750    243.91956   -1856.0367     57877.96   -12610.984    940.83878   -13551.822    21.313659 
    5800    242.22625   -1564.8634    57818.362   -12615.896     934.3074   -13550.203    21.494927 
    5850    244.26033    -1237.397    57769.858   -12600.048     942.1532   -13542.202    21.710859 
    5900    242.48796   -621.08389    57735.041   -12614.296    935.31685   -13549.612    21.753412 
    5950     235.7052    -216.7514    57749.642   -12614.707    909.15461   -13523.862    22.075034 
    6000    246.05709   -531.29167     57802.14   -12617.724     949.0836   -13566.807    22.219944 
    6050    248.12279   -1561.8723    57884.366    -12605.47    957.05133   -13562.521     22.27218 
    6100    240.56541   -693.48312    57964.188   -12598.362    927.90126   -13526.263    22.419248 
    6150    237.90385   -1069.3013    58045.127   -12598.748    917.63517   -13516.383    22.447347 
    6200    250.22144   -1483.0847     58112.62   -12600.605    965.14618   -13565.751     22.41983 
    6250    240.33278    -1382.605    58185.696   -12594.401    927.00396   -13521.404    22.405311 
    6300    236.27283    -2315.381    58219.066   -12583.808    911.34405   -13495.153    22.429127 
    6350    246.45789   -984.00638    58147.649   -12575.552    950.62955   -13526.181     22.70693 
    6400    247.17355    -561.0168    58077.363    -12602.25    953.38997    -13555.64    22.931438 
    6450    244.16929   -820.93903    58022.329   -12600.686    941.80203   -13542.488    22.996091 
    6500    235.96326   -1872.3093    57948.099    -12585.12    910.14997    -13495.27     23.18117 
    6550    241.63913    361.30303    57893.308   -12585.359    932.04278   -13517.402    23.211375 
    6600     238.6339   -533.76858    57889.277    -12590.66    920.45111   -13511.112    23.247177 
    6650     239.4614    -675.4724    57965.164   -12597.757    923.64289   -13521.399     23.20312 
    6700    231.20468   -1447.0185    58035.151    -12609.36    891.79533   -13501.156    23.341613 
    6750    237.96295   -1077.1343    58048.498   -12602.213    917.86311   -13520.077    23.567872 
    6800    239.85742   -849.00142    58003.923   -12593.389     925.1704    -13518.56    23.798655 
    6850    240.71925   -1317.2631    57903.178   -12592.344    928.49463   -13520.839    24.093327 
    6900    236.00282   -1052.6777    57783.452   -12582.181    910.30258   -13492.484    24.248758 
    6950     247.1095   -157.94981    57688.859   -12576.295    953.14292   -13529.438    24.240487 
    7000    232.77485   -381.36215    57689.746   -12572.227    897.85177   -13470.079    24.501896 
    7050    244.69167   -874.63311    57750.019   -12562.827    943.81692   -13506.643    24.475328 
    7100    244.94769   -1023.8586    57822.446    -12568.93    944.80443   -13513.735    24.737952 
    7150    243.17955   -590.64086    57904.412    -12585.77    937.98441   -13523.754    24.893497 
    7200    242.16812   -757.95218    57976.453   -12598.103    934.08315   -13532.186    24.916167 
    7250     245.2446   -494.59104    58056.275   -12578.792    945.94968   -13524.741    25.091282 
    7300    246.77916   -1035.3586     58140.93   -12571.494    951.86873   -13523.363    25.261042 
    7350    237.75095   -618.93662    58208.386   -12573.871    917.04541   -13490.916    25.131002 
    7400     246.3526   -914.87995    58255.116   -12563.192    950.22341   -13513.415    25.403951 
    7450    238.62928   -1276.9699    58250.828    -12555.96    920.43328   -13476.393    25.446256 
    7500    249.08518   -441.62368    58180.348   -12580.882    960.76343   -13541.645     25.56268 
    7550    236.48506   -795.22822    58124.642    -12595.06    912.16264   -13507.223    25.624181 
    7600    253.05076   -291.00659    58104.266   -12577.651    976.05936   -13553.711    25.924117 
    7650    246.04013   -887.32292    58118.127   -12584.463    949.01818   -13533.482    25.980573 
    7700    248.16566   -939.15282    58183.474   -12583.577    957.21671   -13540.793    26.123485 
    7750    247.55677   -514.95797    58237.966   -12587.192    954.86808   -13542.061    26.024924 
    7800    245.98299    -765.7138    58316.386   -12592.114    948.79776   -13540.912    26.039668 
    7850     248.2748    -268.1419    58403.602   -12588.225    957.63766   -13545.862     26.15117 
    7900    241.64169   -1350.3954    58497.227   -12605.459    932.05265   -13537.512    26.116297 
    7950    237.23256   -1555.5601     58586.35   -12617.015    915.04589   -13532.061    26.099108 
    8000    241.99345   -1096.5741    58630.689   -12616.153    933.40946   -13549.563    26.272641 
    8050    244.12245   -1575.2903    58649.429    -12602.23    941.62136   -13543.851    26.284985 
    8100    244.97283   -1374.0667    58601.924   -12615.602    944.90141   -13560.504    26.254065 
    8150    240.49305   -857.46237    58495.421   -12600.487    927.62214   -13528.109    26.378359 
    8200    240.06106   -1044.3682    58378.766   -12605.667     925.9559   -13531.623    26.614822 
    8250    239.96323   -878.16517     58284.59    -12606.28    925.57856   -13531.858    26.871381 
    8300    237.89319     46.08426    58228.191    -12604.98    917.59405   -13522.574     27.03543 
    8350    239.14551   -751.80905    58238.479   -12624.016    922.42445   -13546.441     27.20073 
    8400    242.62412   -826.25605     58280.86   -12634.161    935.84203   -13570.003    27.329418 
    8450    234.10061   -1020.3639    58356.194    -12635.75    902.96541   -13538.716    27.347804 
    8500     236.0614    -1064.561     58394.89   -12638.619    910.52854   -13549.148     27.41313 
    8550     228.0375   -1014.5799    58365.394   -12638.776    879.57901   -13518.355    27.564467 
    8600    235.92464   -687.57437    58307.425   -12631.605    910.00101   -13541.606    27.541948 
    8650    238.50779   -1245.2611     58249.77   -12637.043    919.96468   -13557.008    27.712477 
    8700    233.68987   -428.00364    58171.985   -12631.936    901.38114   -13533.317    27.906185 
    8750    234.96351   -673.93179    58127.881     -12619.7    906.29378   -13525.994    27.994599 
    8800    236.06424   -661.76132    58097.033   -12625.972    910.53949   -13536.511    27.976364 
    8850    236.79533   -253.73396    58108.774    -12639.36    913.35941   -13552.719    28.095907 
    8900    238.85438    -1245.215    58154.837    -12645.45    921.30151   -13566.751    28.191188 
    8950    235.40476   -841.44806    58142.993   -12640.677    907.99575   -13548.673    28.316487 
    9000    237.55571   -831.01792    58091.901   -12635.319    916.29235   -13551.611    28.679796 
    9050    235.60938   -1537.5423    58062.935   -12634.325    908.78502    -13543.11    28.751612 
    9100    242.05261   -759.25113     58052.61   -12654.081    933.63762   -13587.719    29.208716 
    9150    237.06929   -1191.8376    58061.943   -12643.069    914.41614   -13557.485    29.334293 
    9200    232.65802   -1230.5013    58090.868   -12653.387    897.40111   -13550.788    29.322635 
    9250    233.95309   -1490.5654    58103.473   -12661.297    902.39644   -13563.694    29.291939 
    9300    240.66219   -1056.0731    58064.827   -12668.645    928.27453   -13596.919    29.233758 
    9350     238.6843   -514.37883    58007.697   -12665.918    920.64549   -13586.564    29.579505 
    9400    236.38441   -1153.9911    57990.216   -12655.283    911.77444   -13567.058    29.714686 
    9450    241.59412   -457.75829    57998.037   -12653.985    931.86915   -13585.854    29.571913 
    9500     234.4917   -1451.7216    58021.318   -12656.777    904.47391   -13561.251    29.606125 
    9550    239.76926   -948.20293    58030.671   -12651.145    924.83038   -13575.975    29.718147 
    9600    247.33058   -610.85839    58062.072   -12638.849    953.99565   -13592.845    29.700811 
    9650    244.77951    -884.0344     58086.74   -12654.075    944.15573   -13598.231    29.625183 
    9700    241.26852   -1041.6682     58095.78    -12659.32    930.61325   -13589.933    29.812975 
    9750     236.8303   -1447.3209    58052.528   -12657.156     913.4943    -13570.65    30.090197 
    9800    234.82626   -619.80495    57990.135   -12666.054     905.7644   -13571.819    30.328108 
    9850    238.82713   -953.11368    57997.315   -12656.099    921.19643   -13577.296    30.389135 
    9900    245.30975   -1463.0236    58055.124   -12658.694    946.20096   -13604.895    30.425199 
    9950      240.084   -910.97747    58089.718   -12655.741    926.04438   -13581.785    30.423546 
   10000    240.50475   -1464.0616    58079.723   -12651.051    927.66728   -13578.718    30.425475 
   10050    231.97312    -1012.319    58034.282   -12655.009    894.75933   -13549.768    30.599035 
   10100    242.48028   -369.38222    58021.437    -12638.83    935.28724   -13574.118    30.794711 
   10150    236.77266   -1383.1113    58086.529   -12629.994    913.27198   -13543.266    31.000391 
   10200    242.56111   -1278.4897    58184.624   -12627.375      935.599   -13562.974     31.20328 
   10250    246.78854   -1145.1427    58268.581   -12624.317     951.9049   -13576.222     31.18964 
   10300    232.34477    -934.1967    58373.526   -12625.774    896.19285   -13521.967    31.396408 
   10350    236.59369   -1212.0267    58510.754   -12628.606    912.58165   -13541.187    31.472486 
   10400    235.38381   -1232.4427    58612.388    -12642.52    907.91496   -13550.435    31.238138 
   10450    231.01487   -731.37137    58640.964   -12635.233    891.06322   -13526.296    31.327934 
   10500    235.08698   -1816.1217    58636.393   -12634.539    906.77002   -13541.309    31.424903 
   10550     234.1184   -1261.6987    58560.688   -12630.122    903.03404   -13533.156    31.720876 
   10600    239.97522   -1517.8634    58447.591   -12635.491    925.62479   -13561.116    31.713134 
   10650    237.54541   -1080.1734    58326.158   -12623.925    916.25262   -13540.178    31.818721 
   10700     247.1817    -672.1663    58243.507   -12633.005     953.4214   -13586.427    31.744681 
   10750    235.89725   -1027.2095    58219.188   -12628.258    909.89536   -13538.153    31.920142 
   10800    241.17677   -1091.3958    58245.675    -12629.14    930.25935   -13559.399    31.995028 
   10850    243.24114   -809.06491    58272.132   -12619.413    938.22198   -13557.634    31.948049 
   10900     238.1782   -1242.0372    58270.121   -12615.659    918.69338   -13534.353    32.007761 
   10950    236.82707   -752.08208    58240.082   -12619.258    913.48185    -13532.74    32.338352 
   11000    245.54138   -746.31465    58231.956    -12629.05     947.0944   -13576.145    32.368423 
   11050    239.10126   -1177.5267    58199.287   -12645.717    922.25376   -13567.971    32.540347 
   11100    234.37101   -945.44207    58146.987   -12635.933    904.00842   -13539.941    32.523178 
   11150    240.37324   -1420.1781    58094.328   -12635.398    927.16001   -13562.558    32.644935 
   11200    236.90967    -180.4813    58056.922   -12641.403    913.80043   -13555.204    32.701886 
   11250    236.45901   -743.70073    58057.099   -12644.828    912.06216    -13556.89     32.91037 
   11300    240.29818   -1405.6317    58029.218   -12641.412    926.87051   -13568.282    32.958209 
   11350    238.51914   -794.88527    58027.979   -12653.941    920.00845    -13573.95    33.155703 
   11400    236.66853   -543.10426    58080.622   -12654.064    912.87033   -13566.935    33.359175 
   11450    231.67218   -728.88126    58143.005   -12668.228    893.59858   -13561.826    33.552979 
   11500    242.88916    -444.1171    58156.094   -12674.491    936.86434   -13611.355    33.562405 
   11550    236.17625   -374.15867    58189.025   -12670.716    910.97154   -13581.688    33.593457 
   11600    235.08091   -755.19932    58246.641   -12673.398     906.7466   -13580.144    33.736554 
   11650    244.04861   -1372.4959    58275.981     -12646.5    941.33653   -13587.836    33.741289 
   11700    241.54695   -955.26406     58282.76   -12642.151     931.6872   -13573.838    34.014118 
   11750    238.41805   -172.08572    58284.023   -12645.975    919.61851   -13565.593    34.052325 
   11800    237.78643   -427.88997    58280.426   -12658.664    917.18226   -13575.847      34.1608 
   11850    245.87468   -532.62469    58255.604   -12643.251       948.38   -13591.631    34.515727 
   11900    242.49265   -1397.7024    58203.566   -12669.225    935.33495    -13604.56    34.678668 
   11950    237.12151    -877.3669    58094.007   -12663.025    914.61755   -13577.642    34.682515 
   12000    236.97097   -637.28902    57951.352   -12663.877    914.03688   -13577.914    34.775892 
   12050    236.38001   -447.22718    57791.234     -12661.6    911.75745   -13573.358    34.776938 
   12100    238.19953   -75.812873    57673.129   -12646.752    918.77565   -13565.527    35.273149 
   12150    240.76553   -660.84873     57618.93   -12645.743    928.67313   -13574.416     35.64385 
   12200    240.27718   -764.08747    57597.383    -12640.68    926.78951    -13567.47    35.980901 
   12250    238.72148    -649.8981    57620.815   -12630.329     920.7889   -13551.118    35.951561 
   12300    235.76159   -497.62301    57686.329   -12632.934    909.37211   -13542.306    36.116626 
   12350    236.38439    -453.9696    57798.916   -12643.576    911.77437    -13555.35    35.927702 
   12400    234.24374   -627.61858    57881.664   -12656.849    903.51749   -13560.367    36.065463 
   12450    238.19294   -1466.6333    57919.742   -12652.512    918.75022   -13571.263     35.94647 
   12500    238.52217   -922.27213    57940.926   -12639.308    920.02012   -13559.328    36.110772 
   12550    232.52797   -1021.6966    57968.285   -12645.141    896.89949   -13542.041    36.011288 
   12600    244.47237   -1165.7173    58002.499   -12640.565    942.97105   -13583.536    36.165178 
   12650    237.29108   -322.39165    58057.239   -12634.016    915.27163   -13549.288    36.357922 
   12700    244.91835   -1436.0234    58133.484   -12631.105    944.69128   -13575.797    36.519528 
   12750    237.59763   -1453.9721    58194.516   -12641.478    916.45404   -13557.932    36.543479 
   12800    231.28628   -581.00455    58233.912   -12653.031    892.11007   -13545.141    36.644866 
   12850    236.36008   -1105.0867    58290.647   -12651.266    911.68057   -13562.946    36.789649 
   12900    237.87107   -467.68064    58324.408   -12639.216    917.50873   -13556.725    36.617378 
   12950    240.24757   -1410.4897     58349.87   -12646.766    926.67528   -13573.441    36.790949 
   13000    244.29187   -1006.5236    58319.488   -12633.346    942.27483    -13575.62     36.86819 
   13050    236.79787   -863.73254    58232.794   -12631.294    913.36921   -13544.664    37.035503 
   13100    245.80366   -1110.7528    58105.302   -12628.046    948.10606   -13576.152    37.267407 
   13150    240.82678   -888.95105    57998.291   -12637.704    928.90939   -13566.614    37.424773 
   13200    243.58023    -425.9771    57912.216   -12644.006    939.52994   -13583.536    37.869911 
   13250    240.65561     356.8055    57881.041   -12664.734    928.24917   -13592.983    37.837722 
   13300     236.6138   -808.02979    57935.855   -12660.697    912.65923   -13573.356    38.015579 
   13350    242.22419   -550.27731    58034.534   -12652.809    934.29943   -13587.109    37.925247 
   13400      235.215   -659.49779    58150.099   -12661.113    907.26384   -13568.377     38.30623 
   13450    237.83516   -950.29319    58264.538   -12669.757    917.37023   -13587.127    38.468177 
   13500    230.75821   -911.65267    58312.657   -12666.345    890.07324   -13556.418    38.695428 
   13550     235.7414   -1244.7225    58318.933   -12685.974    909.29422   -13595.268    38.612598 
   13600    234.46258   -1131.5194    58282.293   -12689.156    904.36163   -13593.517    38.742191 
   13650    241.72742   -951.17984     58246.89   -12692.922    932.38332   -13625.305    39.063376 
   13700     236.4832   -1022.2553    58205.234   -12689.847    912.15547   -13602.003    39.244065 
   13750    237.21011   -1101.2892    58159.343   -12684.379    914.95928   -13599.338    39.252128 
   13800    237.64941   -951.55883    58127.947   -12700.904    916.65375   -13617.557     39.38667 
   13850    241.25473   -735.67569    58119.443   -12696.558    930.56007   -13627.118    39.711114 
   13900     225.6155   -930.14186    58078.933   -12688.261    870.23695   -13558.498    39.918185 
   13950     234.2168   -1354.7713    58021.557   -12698.419    903.41359   -13601.832    39.897198 
   14000    244.15656   -246.90588    57983.147   -12682.343    941.75291   -13624.096    40.061407 
   14050    233.77983     -1408.19    57989.838   -12678.816    901.72812   -13580.544    40.093335 
   14100    235.94033   -505.20003    58012.351   -12676.447    910.06153   -13586.509    39.974793 
   14150    241.81129    -409.4557    58057.927   -12678.156    932.70682   -13610.863    39.906634 
   14200    240.24485   -1093.8322    58123.989   -12674.755    926.66481   -13601.419    40.218495 
   14250    251.31586   -380.45416      58232.4   -12652.301    969.36754   -13621.668    40.191081 
   14300    237.67573   -1427.3756    58352.792   -12659.392    916.75526   -13576.148     40.18634 
   14350    239.12917   -569.15207    58417.224    -12662.53    922.36144   -13584.892    40.461938 
   14400       236.65   -1142.5603    58455.255   -12648.124    912.79884   -13560.923    40.562483 
   14450     242.0803   -1411.1569    58448.202   -12666.621    933.74445   -13600.366    40.697352 
   14500    236.04173   -682.25335    58422.547   -12666.441    910.45264   -13576.893    40.788118 
   14550    233.79814   -585.27231    58393.296   -12681.569    901.79877   -13583.368     40.83915 
   14600    228.79937   -1588.2765    58381.301   -12678.565    882.51764   -13561.082    40.996371 
   14650    235.89356   -1399.6121    58383.535   -12681.752    909.88113   -13591.633    41.159906 
   14700    235.93055   -1294.9339    58378.424   -12675.742    910.02383   -13585.766    41.373072 
   14750    240.17093    -1175.212    58354.192   -12673.618    926.37969   -13599.997    41.396033 
   14800    237.31746   -435.83391     58326.85   -12692.609    915.37338   -13607.982    41.562184 
   14850    237.39522   -593.39544    58268.922   -12696.252    915.67329   -13611.925    41.726181 
   14900    234.91575   -540.25022    58230.295   -12699.849    906.10955   -13605.958    41.597595 
   14950    231.76643   -1194.6773     58219.24   -12719.791    893.96211   -13613.753    41.810529 
   15000    234.98747   -1201.0598    58201.603   -12721.807    906.38618   -13628.193    41.961589 
   15050    226.64125   -1492.7092    58172.402   -12726.725    874.19344   -13600.918    42.383349 
   15100    226.46586    -1230.183    58131.498     -12711.6    873.51691   -13585.117    42.652545 
   15150    230.43058   -753.89877    58089.832   -12715.823    888.80951   -13604.633    42.931287 
   15200    236.37716    -908.4308     58040.37   -12710.632    911.74648   -13622.379    43.313006 
   15250    230.60048   -672.89899    57990.682   -12717.064    889.46483   -13606.529    43.212594 
   15300    229.41708   -1330.0818    57966.939   -12706.634    884.90028   -13591.535    43.114102 
   15350    238.49317   -1037.9895    57976.461   -12703.235    919.90826   -13623.143    43.186697 
   15400    234.52325   -1123.2596    57994.607   -12692.961    904.59564   -13597.556    43.355409 
   15450    232.54672    -1275.952    58025.786   -12696.133     896.9718   -13593.105    43.498177 
   15500    237.28199   -921.10884    58031.326   -12691.275    915.23656   -13606.512    43.548253 
   15550    231.86449   -860.71445    58039.807   -12692.973    894.34034   -13587.313    43.247209 
   15600    229.83958   -644.84761    58095.614   -12690.849    886.52992   -13577.379     43.42027 
   15650    236.89871   -825.41957     58146.76   -12695.764    913.75817   -13609.522    43.509591 
   15700    249.48787   -1288.4115    58199.137    -12687.52    962.31666   -13649.837    43.516729 
   15750    236.34388   -945.37957    58280.772   -12687.559     911.6181   -13599.177    43.649612 
   15800    239.16455   -1206.9156    58422.512   -12682.061    922.49791   -13604.559    43.490174 
   15850    239.40606   -508.35261    58559.748   -12677.037    923.42944   -13600.467    43.467412 
   15900    228.48559   -1239.4028    58654.856   -12680.137    881.30736   -13561.444    43.485956 
   15950    239.59061   -1088.2016    58677.182   -12667.999     924.1413    -13592.14    43.663442 
   16000    236.94529   -909.51809    58648.238    -12659.88    913.93784   -13573.818    43.784865 
   16050     238.1282    -745.3313    58617.814   -12648.905    918.50053   -13567.405    43.782088 
   16100    238.75445   -1199.0612    58622.384   -12645.591    920.91609   -13566.507    43.980939 
   16150    241.16079   -1253.4087    58642.256   -12646.567    930.19774   -13576.765    44.038231 
   16200    241.96792   -985.01089    58703.894   -12630.138    933.31098   -13563.449    44.098252 
   16250    244.53243   -1168.2158    58775.142   -12625.718    943.20272   -13568.921    44.297566 
   16300    243.74867   -1307.5535    58861.652   -12636.121    940.17963   -13576.301    44.369918 
   16350    232.71619   -1802.3183    58896.236   -12639.305    897.62551    -13536.93    44.452247 
   16400    250.30958   -757.80873    58869.644   -12635.012    965.48613   -13600.499    44.667999 
   16450     237.9044   -1271.9482    58848.406   -12647.964    917.63728   -13565.601    44.693474 
   16500    235.18247   -760.24466    58839.773   -12638.701    907.13835    -13545.84    44.833129 
   16550    247.49458   -958.51906    58855.034   -12627.544    954.62824   -13582.173    44.941549 
   16600    249.53423   -1344.8998    58840.291   -12621.905    962.49549     -13584.4    44.891685 
   16650    242.92422   -646.02127    58789.604   -12608.544     936.9996   -13545.544    44.978696 
   16700    241.22309   -719.79857    58780.119    -12637.71    930.43804   -13568.148     45.02615 
   16750    241.35513   -832.87839    58759.259   -12640.541    930.94735   -13571.489    45.251463 
   16800     238.5541   -180.26704    58735.409   -12645.382    920.14328   -13565.525    45.458382 
   16850    236.00381   -453.03185    58732.762   -12659.892    910.30637   -13570.198    45.600118 
   16900    235.97935   -1085.9279    58755.179   -12655.461    910.21204   -13565.673    45.467724 
   16950    242.16231   -645.25647    58723.386   -12646.494    934.06077   -13580.555     45.27914 
   17000     245.5871   -345.13399    58679.209   -12651.696    947.27075   -13598.967    45.284291 
   17050    244.50129   -812.79328    58667.913   -12639.337    943.08262    -13582.42    45.425066 
   17100    237.59389   -1000.5389    58664.563   -12648.991    916.43961    -13565.43    45.488287 
   17150    242.81776   -1495.9206    58617.728   -12627.054    936.58894   -13563.643    45.560594 
   17200    238.09348   -521.06871    58508.402   -12610.849    918.36659   -13529.216    45.637726 
   17250     243.7835   -861.14814    58432.055   -12612.958    940.31396   -13553.272    45.739717 
   17300    236.62069   -422.45114    58384.614   -12595.109    912.68579   -13507.795     46.09905 
   17350    234.52642   -1005.3532    58361.485   -12603.016    904.60784   -13507.624     46.11936 
   17400    241.01084   -699.93513    58326.284   -12610.899    929.61934   -13540.519    46.125271 
   17450    245.38082   -609.60757    58281.889   -12599.348    946.47511   -13545.823    46.373786 
   17500    248.83251   -834.26832     58274.35   -12619.762    959.78885   -13579.551    46.703036 
   17550    246.28824    -942.1279    58343.564   -12635.623    949.97517   -13585.599    46.657198 
   17600    245.50491   -870.39731    58411.951   -12626.941    946.95374   -13573.895    46.683736 
   17650    254.09169   -577.95133    58473.532   -12613.809    980.07441   -13593.883    46.448717 
   17700    247.16011   -81.882141    58575.965   -12602.384    953.33813   -13555.722    46.260627 
   17750    243.52942   -956.17736    58730.438   -12602.643    939.33392   -13541.977    46.167919 
   17800    244.20821   -689.41802    58866.557   -12599.891    941.95216   -13541.844    46.291728 
   17850    253.29745   -929.26858    58964.852   -12611.844    977.01089   -13588.855    46.265139 
   17900    237.75739   -1165.3424     59017.56   -12615.945    917.07026   -13533.015    46.459015 
   17950    239.63252   -1620.5536    59015.782   -12624.708    924.30295   -13549.011    46.465802 
   18000    241.80835   -1270.0511     58951.83   -12632.856     932.6955   -13565.552    46.582588 
   18050    242.71659   -161.78268    58880.338   -12653.937    936.19872   -13590.136    46.770693 
   18100    244.91224   -1260.7361    58839.433   -12663.256     944.6677   -13607.924    46.981668 
   18150    244.31084   -746.50581    58822.581   -12674.708    942.34801   -13617.056     47.09663 
   18200    240.81319   -488.41165    58825.947   -12660.828    928.85698   -13589.685    47.379328 
   18250    240.96811   -928.95035    58862.286    -12646.35    929.45452   -13575.805    47.530177 
   18300    248.92224    -1099.525    58897.081   -12637.257    960.13494   -13597.392    47.659004 
   18350    240.10291   -440.17854    58925.949   -12626.125    926.11732   -13552.243    47.760584 
   18400    238.53578    -971.2727    58974.511   -12637.176    920.07263   -13557.249    47.929291 
   18450     237.9106   -1272.3432    59027.941   -12641.953     917.6612   -13559.615    48.055281 
   18500    246.19129     -980.893    59028.719   -12631.908    949.60121   -13581.509    48.185199 
   18550    239.72887   -903.69436     58980.84   -12625.783    924.67458   -13550.457     48.26952 
   18600    244.83078   -1321.8347    58895.528   -12617.792     944.3535   -13562.146    48.360601 
   18650    241.72988   -1295.3888    58780.291   -12621.187    932.39282    -13553.58    48.310024 
   18700    239.93481   -618.65639    58705.969   -12625.837     925.4689   -13551.305     48.22852 
   18750    248.69263   -1017.5667    58689.597    -12607.42     959.2493   -13566.669    48.274324 
   18800    245.06917   -573.59601    58709.867   -12611.084    945.27303   -13556.358    48.243903 
   18850    248.47205   -1132.0486    58715.933     -12622.5     958.3985   -13580.898    48.332551 
   18900    245.79338   -1164.3277    58731.924   -12626.333    948.06641     -13574.4    48.548666 
   18950     245.3035   -1335.1014    58730.417   -12636.779    946.17686   -13582.956    48.501992 
   19000    238.01113    -1344.302    58725.325   -12624.949    918.04895   -13542.998    48.500867 
   19050    242.48802    -1593.746    58701.561   -12618.231    935.31707   -13553.548    48.699597 
   19100    244.20683   -260.02908    58650.232   -12626.983    941.94682    -13568.93    49.067365 
   19150    244.66062   -81.960812    58569.983   -12616.184    943.69715   -13559.881    49.135314 
   19200    241.05214   -882.37364    58490.422    -12620.99    929.77864   -13550.768    49.219935 
   19250    241.63001   -677.57371    58426.899   -12617.774    932.00761   -13549.781    49.401855 
   19300    244.63366   -789.21316    58399.036   -12628.019    943.59319   -13571.612    49.536486 
   19350    239.73772   -537.40549    58406.461   -12642.855    924.70872   -13567.563    49.524764 
   19400    244.26901   -520.12059    58457.723    -12640.37    942.18666   -13582.557    49.758073 
   19450    250.09287   -883.97625    58513.858   -12646.294    964.65028   -13610.945     49.79625 
   19500     235.6114   -742.78089     58574.85   -12667.282    908.79282   -13576.075    49.658761 
   19550    235.46106   -1395.8133    58628.442   -12647.349     908.2129   -13555.562    49.725277 
   19600    239.53495   -999.19836    58602.955   -12646.075     923.9266   -13570.002    49.711255 
   19650    245.10976   -1221.9274    58546.008   -12631.336    945.42959   -13576.766    49.757675 
   19700    238.87441   -423.26009    58487.755   -12614.202    921.37877   -13535.581     49.60654 
   19750    240.04096   -1061.1937    58493.226   -12621.419    925.87836   -13547.297    49.879149 
   19800    236.30584   -720.55767    58517.035   -12620.963    911.47138   -13532.435    49.973501 
   19850    241.87898   -564.67546    58587.277   -12613.934    932.96791   -13546.902    50.102492 
   19900     243.8341   -354.89791    58703.307   -12594.834    940.50915   -13535.343    50.008624 
   19950    245.53202    -1258.163    58800.579   -12601.627     947.0583   -13548.685    50.042954 
   20000    250.61536   -1735.8507    58844.487   -12590.646     966.6656   -13557.311    50.172923 
   20050    235.79465   -1472.0246    58809.539   -12602.771    909.49962    -13512.27    50.167744 
   20100    240.34877   -1337.6127    58710.325   -12611.286    927.06564   -13538.351    50.201283 
   20150     247.4454   -952.31905    58580.413   -12620.359    954.43854   -13574.798     50.34906 
   20200      242.515   -1328.5033    58472.124   -12623.064    935.42114   -13558.485    50.610539 
   20250    244.41279   -276.65864    58412.386   -12627.198    942.74124   -13569.939    50.478577 
   20300    242.89933   -613.94598    58441.503   -12623.944    936.90356   -13560.848    50.304287 
   20350    252.10766    -519.1226     58502.23   -12619.241    972.42166   -13591.662    50.180519 
   20400    246.93993   -457.88775    58539.642   -12612.734    952.48883   -13565.223    50.342972 
   20450    242.30335   -625.38686    58583.977   -12593.854    934.60478   -13528.459    50.246261 
   20500    249.33785   -460.12183    58601.898   -12590.003    961.73803   -13551.741    50.330866 
   20550    243.78622     -1040.75    58602.449   -12580.582    940.32446   -13520.907    50.511928 
   20600    250.91344   -972.23847    58567.733   -12582.257    967.81533   -13550.072    50.681877 
   20650     247.2858   -1179.8423    58520.307   -12573.103    953.82291   -13526.926     50.87205 
   20700     243.4296    -1112.401    58411.943   -12592.261    938.94892    -13531.21    51.023197 
   20750     234.8118   -579.33611    58277.288   -12590.816    905.70861   -13496.525    51.027862 
   20800    245.29551   -1303.3964    58170.956   -12590.058    946.14603   -13536.204    51.162447 
   20850    239.77016    -983.7833    58079.036   -12586.945    924.83383   -13511.779    51.390949 
   20900    246.69858   -800.77295    58025.025   -12561.113    951.55793   -13512.671    51.800064 
   20950    244.76999   -1027.2583     58048.22   -12567.836    944.11901   -13511.955    52.030677 
   21000    248.74196   -729.73618    58069.478   -12581.229    959.43957   -13540.669    52.225449 
   21050    234.12653   -924.59888    58106.874   -12576.443    903.06541   -13479.508    52.161499 
   21100    240.98446   -1304.2249    58140.067   -12576.539    929.51761   -13506.057    52.266016 
   21150    243.09018   -1188.0735    58081.971   -12577.407    937.63971   -13515.047    52.433275 
   21200    244.19461   -1189.4405    57961.611   -12591.677     941.8997   -13533.577     52.42129 
   21250    244.31035   -782.53511    57869.521   -12605.145    942.34611   -13547.491    52.895898 
   21300    245.95849   -1129.1123    57815.065   -12601.567    948.70326   -13550.271    52.879247 
   21350     233.7204    -630.2485    57809.127   -12615.791     901.4989    -13517.29    52.861234 
   21400    240.66613   -915.64717    57822.213   -12619.206    928.28976   -13547.496    52.752645 
   21450    245.39693   -603.22152    57849.706   -12614.504    946.53724   -13561.041    52.861665 
   21500    245.48857   -667.03206    57903.532   -12609.359    946.89072    -13556.25    53.155148 
   21550    245.87934   -740.71735    58032.345   -12614.363    948.39797   -13562.761    53.003844 
   21600    235.06924   -900.30629    58153.596   -12622.863    906.70161   -13529.565    53.099179 
   21650    235.49138   -528.58901    58205.676   -12623.127    908.32985   -13531.457    53.108721 
   21700     242.9585   -1554.5724    58222.902   -12617.926    937.13182   -13555.057    53.038073 
   21750    239.18866   -1262.8404    58214.612   -12622.461    922.59091   -13545.052    53.062808 
   21800    241.04611   -916.18465    58161.426   -12619.197    929.75541   -13548.952    53.142656 
   21850    247.62515   -316.70481    58094.094   -12617.317    955.13185   -13572.449    53.356692 
   21900    246.38962   -618.79714    58118.456   -12614.417     950.3662   -13564.783    53.421406 
   21950    242.69841   -1981.5307    58211.039   -12608.668     936.1286   -13544.797    53.338385 
   22000    245.27931   -1514.3125    58235.222   -12605.501    946.08356   -13551.584    53.655769 
   22050    241.85687   -1065.6574    58200.078   -12608.368    932.88264   -13541.251    53.721084 
   22100    254.43244   -1485.3681    58178.465   -12587.492    981.38873   -13568.881     53.93003 
   22150    247.29853   -761.55963    58209.362    -12586.75    953.87202   -13540.622    54.116602 
   22200    238.30853   -1302.9244    58282.546   -12577.335    919.19609   -13496.531    54.424816 
   22250    245.83144   -1024.0519    58354.976     -12584.5    948.21321   -13532.713    54.481392 
   22300    242.26073   -1300.7007    58421.904   -12585.866    934.44039   -13520.306    54.512263 
   22350    246.37255   -973.97752     58436.76   -12593.531    950.30037   -13543.832    54.603262 
   22400    243.42157    -1028.376      58436.2   -12601.649    938.91795   -13540.567    54.463298 
   22450    240.19564   -673.59129    58411.974    -12591.25    926.47499   -13517.725    54.584747 
   22500    245.02213   -745.59943    58381.157    -12564.16    945.09157   -13509.252    54.838978 
   22550    237.69135   -1785.1631    58333.022   -12573.618    916.81553   -13490.434    55.076408 
   22600    239.77921   -164.48574    58246.248    -12590.69    924.86874   -13515.559    55.335109 
   22650    249.52459   -716.23641     58195.86   -12584.628     962.4583   -13547.086    55.331605 
   22700    245.96503   -1068.6507    58176.817   -12586.124    948.72851   -13534.853    55.558342 
   22750    249.21295   -860.25727    58144.256   -12581.608    961.25627   -13542.864    55.693114 
   22800    248.98889   -399.47633    58058.483   -12588.085    960.39204   -13548.477    55.732687 
   22850    239.53718   -581.57049     57992.84   -12587.249    923.93521   -13511.185     55.66151 
   22900    247.04739    78.567528    57974.438    -12568.24    952.90333   -13521.144    55.816403 
   22950     250.5847   -1110.2654    58033.112   -12571.669    966.54734   -13538.216    55.667307 
   23000    240.01797   -1065.4154    58103.746   -12597.073    925.78967   -13522.862    55.820973 
   23050    243.28254   -230.38897    58175.412   -12579.238    938.38167    -13517.62    56.124546 
   23100    238.94664   -986.16246    58297.519   -12602.237    921.65738   -13523.894    56.453461 
   23150    246.70562   -874.46345    58407.777   -12602.517    951.58509   -13554.102    56.458862 
   23200      243.348   -1531.1187    58471.736   -12595.757    938.63416   -13534.391    56.427204 
   23250    248.20689   -1212.5013    58512.691   -12589.086    957.37574   -13546.462    56.201938 
   23300    250.06369   -999.72703    58550.007   -12592.211    964.53771   -13556.748    56.464963 
   23350     245.9839   -634.77358    58591.351   -12594.889    948.80129    -13543.69    56.424943 
   23400    240.61414   -1076.5797    58670.926   -12588.315     928.0892   -13516.404    56.645095 
   23450    242.51737   -1701.1963    58740.664   -12595.575    935.43028   -13531.005    56.669617 
   23500    242.41466   -1079.5642      58746.8   -12598.405    935.03414   -13533.439    56.930596 
   23550    240.93216   -674.92292    58714.755   -12601.734    929.31585    -13531.05    56.795893 
   23600    245.15059    -1059.601    58671.177   -12608.919    945.58707   -13554.506    56.981041 
   23650     246.6888    -1398.734    58617.607   -12622.927    951.52018   -13574.447    56.967635 
   23700    240.33017   -660.12079    58556.329   -12623.407    926.99389   -13550.401    57.239056 
   23750    234.59818   -1470.7819    58527.935   -12618.889    904.88463   -13523.774    57.351608 
   23800    245.37215    -790.9058    58506.199   -12612.321    946.44166   -13558.763    57.618521 
   23850     237.8739   -989.73742    58551.547   -12607.949    917.51962   -13525.468    57.538241 
   23900    246.56669   -1967.7073    58598.084   -12607.105    951.04918   -13558.154    57.650225 
   23950    237.32514   -1281.9356    58585.007   -12619.428    915.40297   -13534.831    57.853678 
   24000    239.42775   -1343.7599    58508.857   -12620.453    923.51311   -13543.966    57.868876 
   24050    236.33197    -798.2191     58394.83   -12608.513    911.57216   -13520.085    58.254589 
   24100    243.25263   -522.69611    58319.199   -12616.345    938.26632   -13554.611    58.354618 
   24150    240.81165   -431.86811    58280.971    -12607.64    928.85102   -13536.491    58.294212 
   24200    239.27413   -453.23241    58293.429   -12615.808    922.92057   -13538.728    58.412481 
   24250     241.2802   -637.02473    58345.386   -12594.069    930.65831   -13524.728    58.597471 
   24300    241.59256   -91.715689    58404.661   -12601.832    931.86313   -13533.695    58.721253 
   24350    244.71711    -542.5548    58440.925   -12608.663    943.91506   -13552.578    58.982936 
   24400    244.10386   -484.26475    58452.888   -12616.266    941.54966   -13557.816    59.046441 
   24450    237.39986   -905.48625     58499.27   -12616.401    915.69118   -13532.092     59.19095 
   24500    243.32896   -1516.3208    58550.363   -12614.443    938.56074   -13553.004    59.520156 
   24550    238.28302   -1326.7823    58560.903   -12621.213    919.09769   -13540.311    59.782596 
   24600    244.07824   -1491.4497    58572.166   -12631.494    941.45083   -13572.945    59.821873 
   24650    240.73559    -969.4539    58553.932   -12620.951    928.55765   -13549.509    60.130861 
   24700    244.84587   -289.69055    58577.044   -12622.891     944.4117   -13567.302    60.312832 
   24750    239.11514   -1496.5639    58654.987   -12616.977    922.30733   -13539.284    60.443731 
   24800     236.5402   -1028.3565    58725.959   -12622.888    912.37534   -13535.263    60.563272 
   24850    235.41362   -1189.6457    58750.769   -12619.366    908.02994   -13527.396    60.530223 
   24900    231.96946   -1901.6919    58718.096   -12629.457    894.74523   -13524.202    60.741675 
   24950    231.52512   -1502.4203    58644.642   -12627.889    893.03134   -13520.921    60.738127 
   25000    241.47873   -1125.4156    58531.231   -12622.259    931.42409   -13553.683    60.760141 
Loop time of 40.1658 on 12 procs for 25000 steps with 4055 atoms

Performance: 537.770 ns/day, 0.045 hours/ns, 622.419 timesteps/s
98.0% CPU use with 12 MPI tasks x no OpenMP threads

MPI task timing breakdown:
Section |  min time  |  avg time  |  max time  |%varavg| %total
---------------------------------------------------------------
Pair    | 20.44      | 24.384     | 28.851     |  75.2 | 60.71
Neigh   | 1.3121     | 3.042      | 4.9694     |  98.2 |  7.57
Comm    | 4.5041     | 10.582     | 16.004     | 160.8 | 26.35
Output  | 0.12903    | 0.1319     | 0.16067    |   2.4 |  0.33
Modify  | 1.4975     | 1.6659     | 1.8476     |  10.3 |  4.15
Other   |            | 0.36       |            |       |  0.90

Nlocal:        337.917 ave         537 max         167 min
Histogram: 6 0 0 0 0 0 0 0 2 4
Nghost:        1575.92 ave        1770 max        1367 min
Histogram: 2 2 2 0 0 0 0 0 4 2
Neighs:        0.00000 ave           0 max           0 min
Histogram: 12 0 0 0 0 0 0 0 0 0
FullNghs:      37227.3 ave       69410 max        9129 min
Histogram: 6 0 0 0 0 0 0 0 2 4

Total # of neighbors = 446728
Ave neighs/atom = 110.16720
Neighbor list builds = 2741
Dangerous builds = 0

unfix           3
unfix           4
undump          1


# Run 0.25 ns equilibration of water in NVE ensemble
#
fix            3 water nve
dump		1 all atom 2000 nve.${NAME}.dump
dump		1 all atom 2000 nve.ML_graphite_m500atm_240K.dump
run	        25000
Per MPI rank memory allocation (min/avg/max) = 5.053 | 5.055 | 5.059 Mbytes
Step c_2 v_water_press Volume TotEng KinEng PotEng c_1[4] 
   25000    241.47873   -1125.4156    58531.231   -12622.259    931.42409   -13553.683    60.760141 
   25050    238.49073   -860.11345    58531.231   -12621.219    919.89887   -13541.118    60.674269 
   25100    239.04305   -2077.9988    58531.231   -12621.298    922.02926   -13543.327    60.882586 
   25150    237.67168   -2135.7864    58531.231   -12621.049    916.73964   -13537.789    61.161708 
   25200    236.95922   -1720.8668    58531.231   -12621.841    913.99156   -13535.833    61.025008 
   25250    236.41687   -1383.5658    58531.231    -12621.58    911.89965   -13533.479     61.20287 
   25300     239.5737   -1248.5819    58531.231   -12621.401    924.07605   -13545.477    61.350144 
   25350    240.39607   -937.60902    58531.231   -12621.922    927.24806    -13549.17    61.320675 
   25400    237.84326   -1671.4785    58531.231    -12621.69    917.40147   -13539.092    61.560873 
   25450    245.04201   -1813.9322    58531.231   -12621.741    945.16827   -13566.909    61.324475 
   25500    239.53602   -1774.4143    58531.231   -12621.464    923.93072   -13545.395    61.400167 
   25550    240.05304   -2045.1162    58531.231   -12621.982    925.92497   -13547.907     61.68945 
   25600    237.19444   -2177.6566    58531.231   -12621.021    914.89887    -13535.92    61.718533 
   25650    234.52266   -1131.4669    58531.231   -12621.216    904.59333    -13525.81    61.673109 
   25700    240.29374   -987.62689    58531.231   -12621.462    926.85337   -13548.315    61.742484 
   25750    243.60885   -1071.5339    58531.231   -12621.936    939.64031   -13561.576    61.853564 
   25800    236.84354   -1004.2573    58531.231    -12621.05    913.54536   -13534.595    61.962947 
   25850    241.35607   -788.09548    58531.231   -12621.519    930.95095    -13552.47    62.113106 
   25900    241.01755   -433.04309    58531.231   -12622.026    929.64522   -13551.672     62.08231 
   25950    241.17671   -938.95655    58531.231   -12622.001    930.25912    -13552.26    62.090628 
   26000    247.15291   -743.07251    58531.231   -12622.129    953.31034    -13575.44    62.217118 
   26050    245.05667   -446.70269    58531.231   -12622.537    945.22481   -13567.762    62.305887 
   26100      246.899   -515.48353    58531.231   -12622.321    952.33099   -13574.652    62.377449 
   26150    236.14426    -241.0381    58531.231   -12621.123    910.84814   -13531.972    62.476575 
   26200    239.79767   -831.62977    58531.231   -12621.815    924.93993   -13546.755    62.730793 
   26250    235.80244   -1838.8737    58531.231   -12621.012    909.52968   -13530.541    62.861387 
   26300    248.07489   -1070.8943    58531.231   -12622.189    956.86659   -13579.056    63.020922 
   26350    241.59634   -1357.6237    58531.231   -12621.544    931.87771   -13553.421    63.051378 
   26400    241.42934   -927.95293    58531.231   -12620.981    931.23357   -13552.215    63.228937 
   26450     247.7781   -1068.9385    58531.231   -12621.654     955.7218   -13577.376    63.298942 
   26500    240.49158   -845.62432    58531.231   -12621.554    927.61646   -13549.171    63.756175 
   26550    239.90592   -1003.2435    58531.231   -12622.418    925.35749   -13547.775    63.716082 
   26600    245.69559   -1322.2756    58531.231   -12622.312     947.6892   -13570.002    63.954618 
   26650    246.10845   -1586.5985    58531.231   -12621.866    949.28168   -13571.147    63.969147 
   26700    243.07536   -2523.9253    58531.231   -12621.876    937.58253   -13559.458    64.328524 
   26750    233.25292   -1174.0529    58531.231   -12621.523    899.69574   -13521.219    64.507732 
   26800     243.5923   -1082.2806    58531.231   -12622.232    939.57646   -13561.808    64.544419 
   26850    238.71259   -920.24425    58531.231   -12621.872    920.75461   -13542.627    64.526368 
   26900    240.69998   -1227.1942    58531.231   -12621.845    928.42033   -13550.265    64.928242 
   26950    231.91491   -1230.9343    58531.231   -12621.371     894.5348   -13515.906    65.145426 
   27000    234.74659   -576.16375    58531.231   -12621.237    905.45706   -13526.694    65.066039 
   27050    243.18169   -197.24485    58531.231   -12621.837    937.99267    -13559.83    65.053715 
   27100    242.27933   -398.28533    58531.231   -12621.746    934.51213   -13556.258    64.867286 
   27150    241.41552   -1055.0037    58531.231   -12621.881    931.18027   -13553.061    65.155439 
   27200    251.07859   -1376.0781    58531.231   -12622.803    968.45237   -13591.255    65.318396 
   27250     238.4553   -1285.0834    58531.231    -12622.15     919.7622   -13541.912    65.757872 
   27300    237.59391   -1129.2881    58531.231   -12621.884    916.43966   -13538.323    65.828659 
   27350    238.22494    -1150.541    58531.231   -12621.254    918.87365   -13540.128    65.651219 
   27400    242.27097   -1492.2075    58531.231   -12622.118    934.47988   -13556.598    65.766875 
   27450    238.14574   -1311.7408    58531.231   -12621.512    918.56817   -13540.081    65.733414 
   27500    237.76056   -1397.2645    58531.231   -12621.596    917.08248   -13538.679    65.904599 
   27550    236.38755   -1784.2325    58531.231   -12622.669    911.78654   -13534.456     65.95804 
   27600    245.56946    -1098.484    58531.231    -12622.64     947.2027   -13569.843     65.91284 
   27650    242.29295   -921.89178    58531.231   -12621.843    934.56467   -13556.408    65.993807 
   27700    244.99063   -67.857715    58531.231    -12621.96    944.97009    -13566.93    65.903671 
   27750    239.02636   -1108.0558    58531.231   -12622.088    921.96487   -13544.053     65.99812 
   27800    241.76757    264.11801    58531.231   -12622.317    932.53817   -13554.856    65.984734 
   27850    238.58496   -1020.3337    58531.231   -12621.836    920.26232   -13542.098    66.028935 
   27900    243.38409   -1004.6766    58531.231   -12622.295    938.77336   -13561.068    66.318309 
   27950    239.79411   -524.63267    58531.231   -12621.829    924.92623   -13546.755     66.30233 
   28000    247.12412   -1036.6478    58531.231    -12622.62    953.19928   -13575.819    66.277782 
   28050    247.41528   -600.75649    58531.231    -12622.52    954.32235   -13576.843    66.421918 
   28100    245.67713   -1767.7142    58531.231   -12622.542    947.61803    -13570.16    66.298702 
   28150    236.10028   -1236.7773    58531.231   -12621.189    910.67849   -13531.868     66.13667 
   28200    242.30966    -1101.461    58531.231    -12622.07    934.62911   -13556.699    66.548307 
   28250     238.5712   -959.56525    58531.231   -12620.952    920.20923   -13541.161    66.305476 
   28300     238.0499   -1507.1616    58531.231   -12622.706    918.19849   -13540.904    66.503421 
   28350    240.29777   -1145.6357    58531.231   -12622.173    926.86891   -13549.042    66.510635 
   28400    245.92195   -1403.0662    58531.231   -12622.704    948.56233   -13571.266    66.541964 
   28450    239.83639   -1419.2538    58531.231   -12622.241     925.0893    -13547.33    66.722705 
   28500    242.88777   -816.71915    58531.231   -12622.765    936.85897   -13559.624      66.9117 
   28550    238.90278   -1176.3349    58531.231   -12621.768    921.48819   -13543.256    67.230858 
   28600    236.73542   -1319.0203    58531.231    -12621.34    913.12834   -13534.468     67.34845 
   28650    248.53807   -1697.0935    58531.231   -12621.853    958.65315   -13580.506    67.089035 
   28700    247.11761   -1113.7215    58531.231   -12622.409    953.17419   -13575.583    67.137692 
   28750     243.0387   -1094.3762    58531.231   -12621.987    937.44113   -13559.429    67.285816 
   28800    246.53992   -1070.2742    58531.231   -12622.493    950.94592   -13573.439    67.287936 
   28850     246.0599   -799.76885    58531.231   -12621.379    949.09443   -13570.474    67.261279 
   28900    246.87197   -1036.7929    58531.231   -12621.836    952.22671   -13574.063    67.475696 
   28950    245.69665   -696.75427    58531.231   -12622.261    947.69332   -13569.954    67.491212 
   29000    242.87482   -655.46953    58531.231       -12622    936.80903   -13558.809    67.637947 
   29050     236.9418    -873.1566    58531.231   -12621.509    913.92437   -13535.433     67.41903 
   29100    236.98816   -891.43167    58531.231   -12621.735    914.10319   -13535.838    67.427913 
   29150    251.22659   -1563.4091    58531.231   -12622.696    969.02323   -13591.719    67.595882 
   29200      244.798   -1543.5307    58531.231   -12622.833    944.22705    -13567.06    67.644088 
   29250    240.01648   -1142.9441    58531.231   -12621.603    925.78395   -13547.387     67.33333 
   29300    242.05995   -1180.1495    58531.231   -12622.098    933.66594   -13555.764     67.53378 
   29350    240.79324   -940.17969    58531.231    -12622.33    928.78004    -13551.11    67.625904 
   29400    239.49378   -982.76603    58531.231   -12622.471    923.76781   -13546.238     67.94196 
   29450    243.74977   -1126.6878    58531.231   -12621.565    940.18387   -13561.749    68.253458 
   29500     243.0243   -627.92296    58531.231   -12622.597    937.38559   -13559.982    68.528438 
   29550    235.46668   -637.87055    58531.231   -12622.601    908.23459   -13530.835    68.705406 
   29600     240.4349   -712.98535    58531.231   -12622.551    927.39785   -13549.949    68.830575 
   29650    249.94006   -827.85616    58531.231   -12622.357    964.06085   -13586.418    68.590736 
   29700    235.12909   -629.05139    58531.231   -12621.387    906.93245    -13528.32    69.092315 
   29750    243.32677   -625.51937    58531.231   -12622.142    938.55228   -13560.694    68.998036 
   29800    256.01731   -1063.7627    58531.231   -12622.141    987.50184   -13609.643    69.023293 
   29850    241.84114   -1551.9442    58531.231   -12622.023    932.82194   -13554.845    69.035111 
   29900    242.81026   -1495.8816    58531.231   -12622.138    936.56003   -13558.698    69.221901 
   29950    247.98859   -904.66359    58531.231   -12621.898    956.53369   -13578.432    69.562741 
   30000    246.81334   -1408.6521    58531.231   -12621.992    952.00057   -13573.993    69.710202 
   30050    244.98075   -1066.8288    58531.231    -12622.63    944.93196   -13567.562    69.693883 
   30100    243.24677   -1061.9513    58531.231   -12621.979    938.24371   -13560.222    69.546191 
   30150     233.6328   -544.33755    58531.231   -12620.924    901.16103   -13522.085    69.444095 
   30200    245.69664   -1086.6668    58531.231   -12621.795    947.69325   -13569.488    69.454396 
   30250    243.17222   -1261.6893    58531.231   -12622.262    937.95615   -13560.218    69.337001 
   30300    240.01624   -2297.2658    58531.231   -12622.029    925.78301   -13547.812    69.625157 
   30350    246.60034   -1884.0268    58531.231   -12622.266      951.179   -13573.445    70.060354 
   30400    245.93008   -1746.1442    58531.231   -12622.385     948.5937   -13570.979    70.072435 
   30450      245.575   -1089.8525    58531.231   -12622.916     947.2241   -13570.141     70.31257 
   30500    239.11642   -1709.6128    58531.231     -12622.1    922.31225   -13544.413    70.463665 
   30550    240.50627   -1074.4934    58531.231   -12621.477    927.67315    -13549.15    70.727199 
   30600    234.34127   -1692.0363    58531.231   -12620.902    903.89371   -13524.795    70.557756 
   30650    236.37396   -765.75636    58531.231    -12621.49    911.73412   -13533.224    70.775924 
   30700    247.20972   -1486.4977    58531.231   -12621.532    953.52949   -13575.062    70.881471 
   30750    241.46371   -1811.6671    58531.231   -12621.395    931.36616   -13552.761    71.036533 
   30800    240.19344    -1696.781    58531.231   -12621.416    926.46649   -13547.882    71.195959 
   30850    246.92157   -1786.3986    58531.231   -12622.314    952.41804   -13574.732    71.306307 
   30900    247.13856   -592.45571    58531.231   -12622.445      953.255     -13575.7    71.069544 
   30950    246.08769   -1119.3258    58531.231   -12622.187    949.20162   -13571.389     71.33527 
   31000    249.37792   -1031.5639    58531.231   -12622.188     961.8926   -13584.081    71.160353 
   31050    245.13383   -1244.5365    58531.231   -12622.051    945.52242   -13567.574    71.060923 
   31100    239.37361   -554.32517    58531.231   -12621.885    923.30427   -13545.189    71.393683 
   31150    244.92204   -614.09056    58531.231   -12622.626    944.70549   -13567.332    71.470538 
   31200    242.63844   -1340.3024    58531.231   -12621.983    935.89727    -13557.88    71.718238 
   31250    239.37223   -758.23337    58531.231   -12621.752    923.29896   -13545.051    71.991008 
   31300    245.35648   -185.99109    58531.231   -12622.118    946.38122   -13568.499     72.19632 
   31350    243.44146   -860.15847    58531.231   -12622.402    938.99468   -13561.396    72.425096 
   31400    241.61197   -1855.7932    58531.231   -12622.008    931.93802   -13553.946    72.796445 
   31450    247.06713   -1181.1947    58531.231   -12621.955    952.97949   -13574.934    72.957149 
   31500    236.73683   -752.71547    58531.231   -12620.895    913.13378   -13534.029    72.923357 
   31550    242.79779   -714.93608    58531.231   -12621.793    936.51192   -13558.305    73.298495 
   31600    244.08609   -1619.2061    58531.231   -12622.181     941.4811   -13563.662    73.189696 
   31650    238.95478   -395.63002    58531.231   -12622.421    921.68879   -13544.109    73.134715 
   31700      240.373   -360.10054    58531.231   -12622.152    927.15911   -13549.311     73.57918 
   31750    248.32966    -1005.793    58531.231   -12621.815    957.84928   -13579.664    73.355128 
   31800    240.34542   -942.68971    58531.231   -12621.583    927.05272   -13548.636    73.445623 
   31850    246.13563   -706.61249    58531.231    -12622.72    949.38651   -13572.106    73.662064 
   31900    247.88108   -1337.1857    58531.231   -12622.295    956.11903   -13578.414    73.649265 
   31950    239.55944   -1104.8475    58531.231   -12622.011    924.02104   -13546.032    73.867681 
   32000    245.38261   -500.40302    58531.231   -12622.491    946.48199   -13568.973    74.342596 
   32050    236.50608    -590.4134    58531.231   -12621.272    912.24372   -13533.516    74.416445 
   32100    246.32586   -442.84305    58531.231   -12621.062    950.12027   -13571.182    74.412908 
   32150    242.31309   -491.65576    58531.231   -12622.258    934.64234   -13556.901    74.724609 
   32200    238.39958   -1298.8554    58531.231   -12621.545    919.54727   -13541.092    74.714932 
   32250     240.2852    -1391.309    58531.231   -12621.801    926.82044   -13548.622    74.885783 
   32300    241.55642   -1495.0475    58531.231   -12621.637    931.72375   -13553.361    74.976239 
   32350    240.83792   -777.65389    58531.231    -12621.86    928.95236   -13550.812    74.866312 
   32400     245.5073   -1576.8038    58531.231   -12622.358    946.96296   -13569.321    74.953787 
   32450    244.41088   -40.520688    58531.231   -12622.196    942.73386    -13564.93    75.302099 
   32500     237.0079    -921.9897    58531.231   -12621.563    914.17933   -13535.743    75.121302 
   32550    235.19894   -1323.5652    58531.231   -12621.992    907.20187   -13529.193    74.971872 
   32600    241.66487   -1452.3776    58531.231   -12621.479    932.14207   -13553.621     75.18774 
   32650    240.30175    -1289.643    58531.231   -12621.813    926.88426   -13548.697    75.466913 
   32700    247.76427   -1445.7306    58531.231   -12622.416    955.66848   -13578.084    75.353304 
   32750    244.28746   -1402.2216    58531.231   -12621.942    942.25782   -13564.199    75.443877 
   32800    245.48502   -955.89419    58531.231   -12621.935    946.87701   -13568.812    75.481665 
   32850    251.40245   -957.90248    58531.231   -12622.425    969.70153   -13592.127     75.54092 
   32900    241.18296   -1397.3329    58531.231   -12621.547    930.28323    -13551.83    75.839209 
   32950    249.72042   -937.55302    58531.231   -12622.263    963.21367   -13585.477    76.027786 
   33000    247.01173   -945.68098    58531.231   -12622.768    952.76581   -13575.533    76.052623 
   33050    252.67705   -1030.2831    58531.231   -12622.334    974.61788   -13596.952    76.251477 
   33100    245.74971   -1515.0369    58531.231   -12622.571    947.89798   -13570.469    76.421309 
   33150    244.08208   -1599.8642    58531.231   -12621.221    941.46565   -13562.687     76.36058 
   33200     238.4559   -711.41686    58531.231    -12621.88    919.76453   -13541.645    76.247408 
   33250    242.96934    51.069661    58531.231   -12621.842     937.1736   -13559.015    76.413396 
   33300    241.64319   -653.28759    58531.231   -12621.769    932.05844   -13553.827    76.569757 
   33350     240.5314   -1354.0614    58531.231   -12621.928    927.77008   -13549.698    76.634762 
   33400    244.56868   -837.79017    58531.231   -12621.712    943.34252   -13565.054    76.831286 
   33450    239.01292   -1086.5012    58531.231   -12621.755    921.91304   -13543.668    76.806235 
   33500    240.00218    -1195.218    58531.231   -12621.238    925.72878   -13546.966    77.009142 
   33550    240.22267   -1315.2806    58531.231   -12621.131    926.57923    -13547.71    77.059766 
   33600    240.04524   -1314.9151    58531.231   -12621.384    925.89486   -13547.279    76.791422 
   33650    243.82864   -1175.2338    58531.231   -12622.139    940.48808   -13562.627    77.036581 
   33700    247.62799   -1880.5831    58531.231    -12622.09    955.14281   -13577.233    76.972108 
   33750    248.56699   -1259.6065    58531.231   -12622.446     958.7647   -13581.211    77.432995 
   33800    245.08325    -1351.451    58531.231   -12622.039    945.32732   -13567.367    77.382073 
   33850    244.41094   -1810.9141    58531.231   -12621.693    942.73411   -13564.427    77.676901 
   33900    239.19269   -518.30858    58531.231   -12621.931    922.60645   -13544.537    77.852561 
   33950    243.17795   -715.14798    58531.231   -12622.204    937.97824   -13560.182    77.954813 
   34000    240.11861   -1282.4256    58531.231   -12621.462    926.17785    -13547.64    78.259346 
   34050    245.61209   -1892.5458    58531.231   -12622.327    947.36715   -13569.694    78.174525 
   34100     235.9116   -1406.8297    58531.231   -12620.904    909.95072   -13530.855    78.425616 
   34150    239.48882   -1817.1223    58531.231   -12621.297    923.74866   -13545.046    78.538631 
   34200    235.35843   -1571.1499    58531.231   -12621.298    907.81706   -13529.115    78.970326 
   34250    236.86439   -1047.4979    58531.231   -12621.595    913.62581    -13535.22    78.900318 
   34300    243.13801   -1128.8553    58531.231    -12621.71     937.8242   -13559.534    78.771836 
   34350    239.18134   -1347.3292    58531.231    -12622.37    922.56267   -13544.932     79.08367 
   34400    242.41423    -1570.937    58531.231   -12621.854    935.03245   -13556.886    79.426949 
   34450    241.45953   -1634.0718    58531.231    -12621.44    931.35003    -13552.79    79.371418 
   34500    243.79488   -1964.3592    58531.231   -12622.547    940.35786   -13562.905    79.129803 
   34550    244.43441   -1727.2188    58531.231   -12621.678    942.82464   -13564.502     79.51482 
   34600    241.01553   -1351.4033    58531.231   -12621.937    929.63745   -13551.575    79.801614 
   34650    248.04946   -1144.2305    58531.231   -12622.139    956.76848   -13578.907    79.593267 
   34700    235.77523   -1696.8341    58531.231    -12620.97    909.42471   -13530.395    79.822957 
   34750    236.22347   -1448.5221    58531.231   -12621.282    911.15367   -13532.436    80.085974 
   34800    243.75314   -1088.6522    58531.231   -12622.122    940.19685   -13562.319    80.096869 
   34850    244.52384   -1122.2507    58531.231    -12621.72     943.1696   -13564.889    80.213348 
   34900    247.74879   -1364.7913    58531.231   -12621.949    955.60876   -13577.558    80.300134 
   34950     242.2103   -394.89806    58531.231   -12622.064    934.24585    -13556.31    80.445999 
   35000    245.92777    -455.4469    58531.231   -12622.076    948.58479   -13570.661    80.711981 
   35050     242.1768   -883.54882    58531.231   -12621.909    934.11664   -13556.026    80.834136 
   35100    244.63237   -1204.3736    58531.231   -12621.786    943.58821   -13565.374    80.783503 
   35150    241.26173   -889.56004    58531.231   -12621.442    930.58706   -13552.029    80.681313 
   35200    240.32658   -1250.9915    58531.231   -12621.064    926.98004   -13548.044    80.882787 
   35250     241.1883   -849.72668    58531.231   -12620.887    930.30386   -13551.191    80.956561 
   35300    241.96386   -694.75717    58531.231   -12621.653     933.2953   -13554.948    80.898431 
   35350    240.71262   -989.96308    58531.231   -12621.263    928.46907   -13549.732    81.133741 
   35400    247.33161   -659.57867    58531.231   -12622.228    953.99962   -13576.228    81.016272 
   35450    238.47899   -879.60439    58531.231   -12621.163    919.85359   -13541.016    81.271895 
   35500    250.10427   -808.20124    58531.231   -12622.554    964.69426   -13587.248    81.382198 
   35550    245.75214   -1495.4169    58531.231   -12621.804    947.90734   -13569.711    81.408653 
   35600    246.11984   -1631.6408    58531.231   -12621.945    949.32562   -13571.271    81.620445 
   35650    242.39648   -1327.6468    58531.231   -12621.781      934.964   -13556.745    81.523335 
   35700    241.39355   -900.58722    58531.231   -12621.294    931.09551    -13552.39    81.750256 
   35750    242.50692   -1137.2985    58531.231   -12621.985    935.38998   -13557.375    81.776063 
   35800     237.7914   -1531.0399    58531.231   -12621.339    917.20144   -13538.541    81.734649 
   35850    240.41527   -1100.9662    58531.231   -12621.218    927.32215    -13548.54    81.593903 
   35900    236.64062   -1066.9903    58531.231   -12620.992    912.76266   -13533.754    81.668299 
   35950    237.81564   -798.42317    58531.231   -12621.562    917.29494   -13538.856    81.773261 
   36000    236.58924   -957.16256    58531.231   -12620.641     912.5645   -13533.206    81.930427 
   36050    238.13824   -360.92883    58531.231   -12621.174    918.53925   -13539.713    81.944167 
   36100    245.61158   -1161.6728    58531.231     -12621.9    947.36519   -13569.265    82.383865 
   36150    240.76979   -616.54905    58531.231   -12621.474    928.68959   -13550.163    82.369398 
   36200    240.24147   -1877.3956    58531.231   -12620.588    926.65177    -13547.24    82.251161 
   36250    246.77559   -1496.5615    58531.231   -12622.208    951.85496   -13574.063    82.250707 
   36300    239.62955   -1412.6353    58531.231   -12621.281    924.29148   -13545.572    82.046591 
   36350    244.51096   -1424.0892    58531.231   -12621.861     943.1199   -13564.981    82.624197 
   36400    238.91414    -1163.465    58531.231   -12621.441    921.53202   -13542.973    82.785954 
   36450    238.17179   -1502.4788    58531.231   -12620.856    918.66865   -13539.524    82.772392 
   36500    246.20946   -227.46124    58531.231    -12622.33    949.67129   -13572.002    82.864807 
   36550    236.03192   -331.07718    58531.231   -12620.922     910.4148   -13531.337    82.808732 
   36600    237.43693   -1028.8768    58531.231   -12620.973    915.83419   -13536.807    82.990541 
   36650    248.61159   -1009.1271    58531.231   -12622.151    958.93672   -13581.087    83.238201 
   36700    234.11096   -729.40207    58531.231   -12620.071    903.00535   -13523.076    83.212694 
   36750    245.56218   -932.39523    58531.231   -12621.829    947.17465   -13569.004    83.522656 
   36800     239.8952   -1288.1148    58531.231    -12620.88    925.31613   -13546.196    83.804454 
   36850    251.12648    -921.1122    58531.231   -12621.919    968.63706   -13590.556    84.143586 
   36900    245.54487    -765.5558    58531.231   -12621.518    947.10785   -13568.625    84.260122 
   36950    246.73217    52.399338    58531.231   -12622.282     951.6875    -13573.97    84.302272 
[...]
  140850    247.61622   -957.72975    58447.807   -12521.983    955.09739    -13477.08    260.75483 
  140900    245.59634   -1155.3225    58456.118   -12532.204    947.30641   -13479.511    260.03566 
  140950    246.09163   -1428.9055    58447.927   -12522.215     949.2168   -13471.432    260.47076 
  141000     242.5129   -1382.8854    58449.366   -12525.278    935.41305   -13460.691    260.83936 
  141050    246.16333   -930.09617    58444.586    -12521.98    949.49338   -13471.473    260.83895 
  141100    247.02766   -528.53672    58453.361   -12514.203    952.82725    -13467.03    260.55848 
  141150    240.91588   -1230.4328    58483.522   -12532.761    929.25309   -13462.014    261.14685 
  141200    247.10823   -1719.6634    58489.957   -12530.691      953.138   -13483.829    261.01759 
  141250     248.2483   -996.55722    58462.798    -12530.85    957.53547   -13488.386    261.24751 
  141300    249.65767   -1098.5915    58420.003   -12532.148    962.97163   -13495.119    261.34573 
  141350    241.42711   -1927.0209    58354.602   -12547.822    931.22496   -13479.047    261.90343 
  141400    242.35366   -1653.2686    58236.307   -12545.811    934.79882    -13480.61    261.98433 
  141450    240.02301   -419.74967    58093.011   -12559.424    925.80911   -13485.233    261.81862 
  141500    244.40881   -611.59317    58020.263   -12559.412    942.72588   -13502.138    261.66295 
  141550     239.8035   -790.62323    57999.971   -12562.185    924.96244   -13487.147    262.22648 
  141600    240.29886   -1190.4951    58032.542   -12579.319     926.8731   -13506.192    262.38678 
  141650    233.58706   -1248.6175    58096.658   -12592.865    900.98458   -13493.849    262.44581 
  141700    239.82132   -1061.3746    58162.502   -12586.583    925.03117   -13511.614    262.28636 
  141750    235.62449   -368.64005    58220.246    -12584.34    908.84329   -13493.184    262.31972 
  141800    246.89438   -442.73085    58291.967   -12586.301    952.31314   -13538.614    262.49149 
  141850    245.47778   -1569.5528    58323.779   -12592.885    946.84908   -13539.735     262.2872 
  141900    237.83998   -1077.1943    58308.729   -12602.218    917.38882   -13519.607    262.07703 
  141950    245.89773   -278.80471    58232.292    -12599.54     948.4689   -13548.008    262.25787 
  142000    241.17155   -256.63469    58168.813   -12612.822    930.23924   -13543.061     262.4882 
  142050    245.29873   -586.91842    58182.581   -12608.424    946.15847   -13554.582     262.9937 
  142100    240.92846   -1592.4753    58201.993   -12593.435    929.30161   -13522.736    263.00604 
  142150    239.68029   -1746.0686    58191.521   -12595.562    924.48719   -13520.049     263.1287 
  142200    239.90723   -883.81933    58143.017   -12590.933    925.36254   -13516.295    263.16039 
  142250    250.81391   -874.79281    58117.316   -12600.329    967.43143   -13567.761    263.24466 
  142300    239.73618   -1327.1155    58081.543   -12600.879    924.70276   -13525.581    263.50438 
  142350    237.67721    -864.9099    58041.329    -12605.15    916.76096   -13521.911    263.31791 
  142400    237.01323   -1292.4726    58007.723   -12595.446     914.1999   -13509.646     263.2109 
  142450    235.53595   -431.14522    57983.302   -12612.383    908.50179   -13520.884    263.45505 
  142500    244.83163   -1175.9568    57960.351   -12600.581    944.35677   -13544.938    263.74154 
  142550    250.18268   -1180.7371    57938.717    -12615.13    964.99667   -13580.127    263.30501 
  142600    234.92149   -1105.9009    57915.062   -12622.135    906.13171   -13528.267    263.75494 
  142650    252.45062   -176.13637    57879.507   -12606.786    973.74451    -13580.53     264.3216 
  142700    245.34924   -292.54796    57909.649   -12631.584    946.35327   -13577.937    264.29964 
  142750    235.34313   -70.645939    58002.293   -12634.436    907.75804   -13542.194    264.29398 
  142800    238.43891   -1086.7741    58126.289   -12620.619    919.69899   -13540.318    264.29066 
  142850     244.6924   -1032.3305    58216.898   -12632.556    943.81976   -13576.376     264.3467 
  142900    249.59754   -1507.4929    58239.183   -12629.359    962.73968   -13592.099    264.59566 
  142950    246.50468   -1322.0878    58213.266   -12626.477       950.81   -13577.287    264.45317 
  143000    246.26626   -421.19231    58180.877   -12631.035    949.89039   -13580.925     264.2926 
  143050     247.9425   -1357.0384    58227.297   -12623.878    956.35592   -13580.234     264.1711 
  143100    239.85606     62.53985    58318.253   -12630.935    925.16517     -13556.1    264.49881 
  143150    246.08947   -549.73075     58389.57   -12630.437    949.20849   -13579.646    264.20605 
  143200    237.14391   -345.12171    58467.388   -12623.806    914.70394    -13538.51    264.73041 
  143250      235.776   -1111.2112    58575.588   -12618.157    909.42768   -13527.585    264.69513 
  143300    239.31901   -1054.2614    58645.232   -12622.388    923.09368   -13545.482    264.37682 
  143350    243.31386   -708.59011    58684.407   -12632.098    938.50248     -13570.6    264.88019 
  143400    245.60067   -1118.2225    58726.196   -12621.587    947.32309    -13568.91    265.01277 
  143450    242.35204   -1136.3613    58774.067   -12637.065     934.7926   -13571.857    264.83887 
  143500    246.02844   -524.57982    58811.767   -12628.194    948.97309   -13577.167    264.79762 
  143550    242.97346   -1487.4074    58870.756   -12608.014    937.18949   -13545.204    264.94797 
  143600    241.13751   -1634.6893    58856.019   -12623.643    930.10792    -13553.75    265.05079 
  143650      241.348   -999.25371    58748.536   -12614.919    930.91985   -13545.838    265.32943 
  143700    235.19327   -1012.8209    58637.322    -12623.13    907.18001    -13530.31    265.32201 
  143750    249.96987   -3.2494885    58539.652   -12611.628    964.17582   -13575.804    265.71556 
  143800    251.50577    -216.7588    58493.013   -12620.404    970.10005   -13590.504    265.61367 
  143850    242.72589   -1058.1076     58496.19    -12626.14    936.23457   -13562.375    265.98585 
  143900    240.83356   -268.66577    58534.086   -12619.392    928.93554   -13548.328     265.7338 
  143950    251.02444   -1114.1743    58636.272   -12618.241     968.2435   -13586.484    265.56826 
  144000    252.60021    -1093.372    58727.306   -12613.367    974.32149   -13587.688    265.56813 
  144050    246.22762   -1029.0655    58731.079    -12605.32    949.74136   -13555.061    265.84268 
  144100    242.01644   -1979.4828    58644.027   -12605.615    933.49813   -13539.113    266.04462 
  144150    250.79173   -913.36311    58499.495   -12596.033    967.34588   -13563.379    266.43221 
  144200    244.35257    -706.9151    58378.006   -12600.746    942.50896   -13543.255    266.55763 
  144250    239.69596   -1019.8232    58353.442    -12585.07    924.54762   -13509.618    266.39854 
  144300    245.60768   -1133.1147    58382.137   -12585.447    947.35012   -13532.797    266.43682 
  144350    244.12309   -800.58676     58438.72   -12598.657    941.62382   -13540.281    266.82231 
  144400    254.96979    -1131.602    58526.486    -12597.22    983.46138   -13580.682    266.85574 
  144450     244.9544   -978.70857    58623.144   -12604.309    944.83031   -13549.139    266.71004 
  144500     252.2755   -752.73721    58677.494   -12597.099    973.06904   -13570.168    266.34859 
  144550    236.58749   -864.97953    58693.628   -12606.818    912.55776   -13519.375    266.81305 
  144600    243.19426   -1046.1175    58699.869   -12600.322    938.04117   -13538.363    267.44861 
  144650    250.00965   -1933.2191    58726.762   -12599.753    964.32928   -13564.082    267.20244 
  144700    246.51084   -1415.5706    58712.838   -12606.106    950.83378   -13556.939    267.50531 
  144750    240.63131    -1111.136    58683.914   -12606.546    928.15543   -13534.701    267.21272 
  144800    243.66214   -967.50022    58682.189   -12622.587    939.84585   -13562.433     267.2298 
  144850    237.91857   -1478.1658    58685.997   -12620.034    917.69196   -13537.726    267.19381 
  144900    235.73663   -674.08778    58679.272   -12631.799    909.27585   -13541.074    267.36823 
  144950    238.36207   -1945.6223    58657.103   -12641.744    919.40262   -13561.146    267.47431 
  145000    241.11418   -1047.2793    58562.525   -12632.858    930.01795   -13562.876     268.1578 
  145050    240.93782   -817.57059    58437.796   -12626.604     929.3377   -13555.942    267.47632 
  145100    240.21848   -587.62364    58287.861   -12626.144    926.56309   -13552.708    267.92653 
  145150    252.67448    240.65307    58177.838   -12635.411    974.60797   -13610.019    268.00728 
  145200    238.40498   -412.88403    58143.412   -12639.923    919.56813   -13559.491    267.89249 
  145250    239.92953     42.00527    58194.119   -12634.017    925.44857   -13559.466    267.93306 
  145300    244.21928   -475.85773    58314.925   -12647.245    941.99486    -13589.24    268.62715 
  145350    236.67074   -665.16891    58426.587    -12640.97    912.87887   -13553.849    268.32054 
  145400    239.10964   -772.19972    58477.803   -12646.345    922.28609   -13568.631    268.32832 
  145450    246.66421   -717.94338    58496.002   -12642.887    951.42535   -13594.312    268.38661 
  145500    238.12623   -1017.4037     58533.73   -12649.609    918.49294   -13568.102    268.18781 
  145550    244.10713   -1142.4055     58574.23    -12661.75    941.56225   -13603.312    268.27417 
  145600    234.94566   -915.23359    58626.799   -12650.075    906.22493     -13556.3    268.74926 
  145650    244.22476   -554.78805    58666.914       -12651    942.01599   -13593.016    269.25198 
  145700    232.44193   -971.16223    58685.768   -12653.423    896.56762   -13549.991    269.33249 
  145750    237.21578   -752.48147    58650.284    -12643.46    914.98116   -13558.441    269.43329 
  145800     235.2057    -586.3388    58581.219   -12649.906    907.22794   -13557.134    269.47301 
  145850    238.34793   -884.11927    58517.401   -12646.818    919.34805   -13566.166    269.68972 
  145900     238.7487   -1231.7687    58478.034   -12638.335    920.89388   -13559.229    269.45509 
  145950    245.83047   -42.085655    58489.902   -12646.333    948.20948   -13594.542    270.28825 
  146000    244.82339   -584.36738    58544.211   -12649.165      944.325    -13593.49     270.4349 
  146050    248.52597   -1051.5086    58582.784   -12628.585    958.60647   -13587.192    270.13455 
  146100    247.81205   -524.91951    58626.069   -12631.284    955.85274   -13587.137    270.24994 
  146150    247.62212   -578.57603    58685.388   -12619.065    955.12016   -13574.185    270.95478 
  146200    246.85048   -983.32146    58753.118   -12615.333    952.14384   -13567.477    270.60267 
  146250    245.19491   -559.97281    58857.506    -12609.38      945.758   -13555.138    270.71546 
  146300    243.46044     -1456.67    58973.289    -12614.55    939.06787   -13553.618    270.26938 
  146350    240.34233   -962.37639    59007.853    -12613.72    927.04081   -13540.761    270.95229 
  146400    240.92853   -1158.1489    58960.749   -12614.072    929.30187   -13543.374    270.75356 
  146450    246.99615   -652.46677    58811.086   -12597.999    952.70571   -13550.705    270.72449 
  146500    246.38219   -394.75744    58645.891   -12604.364    950.33754   -13554.702    270.79327 
  146550    235.85341   -205.07059    58512.012   -12595.858    909.72626   -13505.584    270.94674 
  146600    242.91635   -253.00759    58488.858   -12602.101    936.96923    -13539.07    270.96789 
  146650    238.26461   -1037.1736    58559.739   -12613.909    919.02667   -13532.935    271.33423 
  146700    243.56435    -588.5405    58677.882   -12616.334    939.46866   -13555.803     270.8607 
  146750    249.52368   -756.28112    58787.756    -12616.35    962.45481   -13578.805    271.25123 
  146800    236.59226   -1734.5763     58900.07   -12622.985    912.57615   -13535.561     271.4079 
  146850    243.85455    -1434.943    58985.766   -12617.399      940.588   -13557.987    271.17908 
  146900    246.62359   -1189.7927    59037.242   -12605.489    951.26866   -13556.758    271.40232 
  146950    245.63592   -1671.2837    59056.436   -12612.926    947.45906   -13560.385    271.45742 
  147000    248.97794   -1393.8774    59012.166   -12610.272    960.34979   -13570.621     271.4926 
  147050    242.04441   -1114.7472    58920.686   -12625.289    933.60599   -13558.895    271.30569 
  147100    236.49272   -605.15903    58793.283   -12633.367    912.19218   -13545.559    271.51859 
  147150    248.78341    -1359.062    58672.006   -12625.027    959.59948   -13584.626    271.23827 
  147200     240.6219   -616.92641    58577.485   -12633.713    928.11914   -13561.832    271.59368 
  147250    245.58409   -1069.1595    58546.614   -12631.295    947.25916   -13578.554    271.75487 
  147300    244.27234   -1104.5837    58568.064   -12645.955    942.19951   -13588.155    270.89397 
  147350    242.95024   -1214.6126    58617.299   -12645.623    937.09993   -13582.722    271.44979 
  147400    233.46074   -1299.9494    58678.889   -12661.428    900.49734   -13561.925    271.20394 
  147450    231.78961   -1090.6101    58725.637    -12659.29    894.05151   -13553.342    271.15892 
  147500    240.03441   -1348.9729     58762.24   -12650.295    925.85311   -13576.148    271.09887 
  147550     242.3048   -1181.2719    58752.183   -12648.025    934.61035   -13582.635    271.25136 
  147600    235.22922   -1371.2577    58666.471   -12631.569    907.31865   -13538.888    271.53382 
  147650     237.3908   -505.91864    58529.552     -12632.8    915.65626   -13548.457    271.78796 
  147700    241.73845   -735.10316    58434.639   -12630.155    932.42587   -13562.581    272.03826 
  147750     239.7219    -987.6735    58424.807   -12642.816    924.64769   -13567.464    271.96131 
  147800    241.94163   -1111.2066    58483.805   -12656.624    933.20957   -13589.834    271.72984 
  147850    230.07596   -909.66269    58561.266   -12664.617    887.44169   -13552.058    271.66742 
  147900    233.20163   -774.81441    58568.396   -12665.552    899.49791    -13565.05    271.84162 
  147950    235.91504   -979.38181    58532.085     -12656.8    909.96401   -13566.764    271.99864 
  148000    243.23506   -469.07806    58482.996   -12669.119    938.19855   -13607.317    272.16167 
  148050    243.33939   -924.61416    58438.051   -12668.072    938.60096   -13606.673    272.21082 
  148100    236.94009   -1274.0345    58418.809     -12672.7    913.91777   -13586.618    271.76644 
  148150    233.47552   -1236.4927     58418.09   -12677.659    900.55435   -13578.213    272.32374 
  148200    233.19035   -403.67701    58405.452   -12678.299     899.4544   -13577.753    273.04742 
  148250    234.61303    -691.9268    58423.742   -12678.212    904.94193   -13583.154    273.28992 
  148300    232.29405   -628.91896    58494.159   -12692.019    895.99722   -13588.016    273.56421 
  148350    231.54579   -579.74409    58595.789   -12671.027    893.11106   -13564.138    273.33359 
  148400    238.05351   -976.09091    58702.367   -12665.835    918.21242   -13584.048    273.23133 
  148450    241.42684   -2113.6562    58773.149   -12680.719    931.22395   -13611.943    273.21467 
  148500    233.26531   -843.87936    58759.975   -12671.037    899.74353   -13570.781    273.29239 
  148550    235.88194   -1905.0889    58698.838   -12678.989    909.83633   -13588.825    273.97402 
  148600    235.47769   -1546.3174    58575.983   -12686.808    908.27706   -13595.085    274.16271 
  148650    233.50466   -1188.7108    58443.427   -12681.199    900.66677   -13581.866    273.79287 
  148700     231.2604   -167.06422    58329.684   -12678.404    892.01027   -13570.414    273.83515 
  148750    234.52852   -250.92922    58252.944   -12682.094    904.61595    -13586.71    273.85493 
  148800    236.71335   -1114.1332    58256.149   -12674.412    913.04321   -13587.455    274.20373 
  148850    231.22357   -1387.6773    58310.221   -12668.085     891.8682   -13559.953    274.06268 
  148900    240.10417   -1157.2385    58320.938   -12661.163    926.12217   -13587.286    273.94659 
  148950    232.97997   -1301.3445    58274.219    -12664.79    898.64294   -13563.433    274.07051 
  149000     236.1169   -431.79695    58224.314   -12659.215    910.74258   -13569.958    274.47932 
  149050    240.02019    -1096.379    58195.614   -12664.664    925.79826   -13590.462    274.53936 
  149100    240.14935   -999.13019    58169.607   -12676.059    926.29645   -13602.355    274.65021 
  149150    241.32713   -713.54477     58163.39   -12681.671    930.83932    -13612.51     274.6866 
  149200    241.07979    -683.3757    58209.887   -12682.887    929.88532   -13612.773    275.41086 
  149250     240.5925   -1299.2399    58282.827    -12693.25    928.00573   -13621.255    275.27727 
  149300    238.27336   -724.46132    58307.661   -12704.195    919.06042   -13623.256    275.68017 
  149350    234.07967   -1046.2024    58300.341   -12697.914    902.88465   -13600.799    275.42328 
  149400    237.81476   -484.79424    58293.762   -12698.372    917.29153   -13615.663    275.18217 
  149450    238.30175   -649.33859    58256.687   -12708.061    919.16993   -13627.231    275.81982 
  149500    232.66622   -562.64178    58205.001   -12705.897    897.43275    -13603.33    275.68013 
  149550    236.58654     120.9156    58173.325   -12695.317    912.55407   -13607.871    276.18519 
  149600     232.8021   -654.41812      58204.6   -12701.076    897.95687   -13599.033    276.17424 
  149650      231.212   -1791.6264    58288.719   -12695.968    891.82358   -13587.792    275.69603 
  149700    235.93058   -758.61581    58359.273   -12697.676    910.02392     -13607.7    275.50774 
  149750    227.94057   -1102.9099    58421.684   -12697.219    879.20513   -13576.424    275.38296 
  149800    239.11043   -964.81245    58435.626   -12694.309    922.28916   -13616.598    275.11089 
  149850    227.49575    -634.3737     58422.86    -12696.43    877.48938   -13573.919    275.22573 
  149900    235.48031   -850.94675    58412.021   -12687.269    908.28716   -13595.556    275.17359 
  149950    239.25534   -381.41125    58423.037   -12674.706     922.8481   -13597.554    275.82287 
  150000    237.93362   -1177.3684    58500.543   -12666.089    917.74998   -13583.839    275.51481 
Loop time of 185.054 on 12 procs for 100000 steps with 4055 atoms

Performance: 466.891 ns/day, 0.051 hours/ns, 540.384 timesteps/s
96.5% CPU use with 12 MPI tasks x no OpenMP threads

MPI task timing breakdown:
Section |  min time  |  avg time  |  max time  |%varavg| %total
---------------------------------------------------------------
Pair    | 82.647     | 98.518     | 120.13     | 153.0 | 53.24
Neigh   | 5.2885     | 12.2       | 20.556     | 197.6 |  6.59
Comm    | 27.053     | 56.141     | 77.984     | 281.5 | 30.34
Output  | 0.59658    | 0.61083    | 0.74267    |   5.1 |  0.33
Modify  | 14.705     | 15.645     | 16.553     |  19.7 |  8.45
Other   |            | 1.939      |            |       |  1.05

Nlocal:        337.917 ave         540 max         169 min
Histogram: 6 0 0 0 0 0 0 0 3 3
Nghost:        1582.92 ave        1784 max        1391 min
Histogram: 4 0 2 0 0 0 0 1 3 2
Neighs:        0.00000 ave           0 max           0 min
Histogram: 12 0 0 0 0 0 0 0 0 0
FullNghs:      37192.5 ave       69679 max        9328 min
Histogram: 6 0 0 0 0 0 0 0 2 4

Total # of neighbors = 446310
Ave neighs/atom = 110.06412
Neighbor list builds = 10836
Dangerous builds = 0


# Create data file for import to other simulations
#
write_data data.${NAME}
write_data data.ML_graphite_m500atm_240K
System init for write_data ...


Total wall time: 0:04:38
