LAMMPS data file via write_data, version 29 Oct 2020, timestep = 150000

6328 atoms
2 atom types

0.0 49.22 xlo xhi
0.0 49.019635930410494 ylo yhi
3.542021609830151 56.51997839016873 zlo zhi

Masses

1 18.015
2 12.01

Atoms # atomic

1429 1 4.733378740497191 2.0202368575245853 5.4050946085191365 1 1 1
2014 1 10.278493512801933 1.132911627303455 4.365059917480987 0 1 0
2873 1 12.323952159927542 2.606309837565008 3.7975211834765163 1 0 1
294 1 16.926305788641837 2.05531674847078 6.098636037976924 2 0 0
1386 1 14.768487868353585 1.466931876388067 4.776275397459023 0 1 1
96 1 18.43177693814285 2.7513399389393594 3.6370863071057946 -1 0 1
1913 1 24.058786122524282 1.4395694122436118 5.7762228879424535 0 1 1
4591 1 21.201894094994614 3.2391195347596518 3.574720593447884 0 0 1
387 1 2.221646885875243 6.764119688916017 5.076370368710461 1 1 0
3657 1 1.3071193371677035 4.351191878556335 5.607298656240761 0 0 0
6242 1 4.449168070141346 6.025306147510404 3.700424386127908 1 0 1
2002 1 6.486163633979611 4.356599131230188 5.049870125208277 0 1 0
3711 1 8.176898558163122 6.613917200952764 6.077476280134895 0 0 1
3203 1 13.247177581279274 4.698619928833122 6.3617064814347 0 0 0
6230 1 12.757746163591644 5.343974224039194 3.5607743441146353 1 0 1
3697 1 16.128380910238384 4.844729018063017 6.655680611432097 0 1 1
1786 1 17.974685228572486 5.954149838674051 4.9795323094588095 1 1 1
1712 1 21.008812256759267 5.9832236185640015 4.909777862807074 0 2 0
5989 1 1.0010451633240312 8.752468876690395 3.648787013363865 1 0 1
1813 1 9.132242454015344 7.629846283712293 3.650338618804254 0 0 1
3452 1 7.504316942609084 9.957013430120172 4.3643183546587485 1 0 1
4492 1 12.15588715474187 8.111715467137813 4.39112633040375 0 0 1
2882 1 17.013035820174437 10.47759206749734 4.097111677162653 1 0 1
34 1 18.402086789324645 8.723566529747451 5.802764560163364 1 0 1
6038 1 21.096440975932993 8.808928372711424 6.139381315474845 0 -1 1
4871 1 22.96202434255772 9.594588461460816 3.8193235465412956 -1 0 1
4722 1 1.1398664659751285 12.876255756578677 6.523684144220484 0 0 1
1815 1 3.6299572913206477 13.000312627445672 5.03347377842601 1 1 0
6159 1 7.694859964139461 12.424310537423448 5.509181269520831 0 0 1
79 1 10.281174990778052 13.597617411860318 6.396645936978569 0 0 1
414 1 11.480372621810304 11.173408822947607 7.00272629602355 0 0 0
1240 1 12.370162858172003 11.176355612358211 4.265644985257602 -1 1 0
229 1 16.02831189909284 12.42814472378401 6.327404472554438 0 0 0
4447 1 20.934560972986674 11.867835022043481 6.603682308298135 0 -1 1
3166 1 22.180304410295864 12.216355631642994 4.071152943021292 1 1 0
1575 1 0.1266243061666869 15.139955331405547 3.969925353732172 0 0 0
1316 1 3.0865280071508105 15.178201479250403 3.692514284836078 1 0 1
4496 1 9.510710217210566 17.167564878608417 4.702095661870456 0 -1 1
6092 1 12.044887991341193 14.035932564120207 4.340875564597615 1 -1 1
1643 1 11.385600184897443 16.530607832910754 6.6300815863375915 -1 0 1
1317 1 17.382411376146838 14.731813470636588 5.190148927003612 0 0 1
3238 1 14.460141800110334 17.26863624991055 6.683736032925573 0 0 0
6237 1 17.36557622364341 17.49929982686878 6.179031212036456 0 1 0
1873 1 14.663706984771197 15.5200112236658 4.187393486286808 0 1 0
1883 1 20.015083371528654 16.66306428935934 4.934850779395461 -1 1 0
4545 1 22.509057573747597 14.888905811868185 4.699003786441984 -1 0 1
2073 1 1.065545511069534 18.551469731287447 5.304832219923686 0 1 0
5019 1 6.038448346125692 19.565528209808054 3.7232566039186152 0 0 0
4942 1 3.7275168056901125 17.715627692059268 4.7187405798998485 0 0 0
1598 1 7.6554996539750055 19.935571079428637 5.877737020887267 0 0 1
4527 1 13.117725483946133 19.325291587967005 5.416273185854132 -1 1 1
3599 1 11.016371484564065 19.189810377586397 3.555595559550497 0 0 1
1656 1 17.57947734956832 19.56557366696182 4.185868132313005 -1 0 1
126 1 22.81286421354918 18.900691005435785 5.033065240237169 0 -1 0
409 1 0.2686471836047979 23.94059359576977 3.623799251674877 0 1 0
2112 1 0.27153707744985583 24.09423701130524 6.548766793220065 1 1 0
6025 1 4.686622842878638 22.491079455606116 6.540583651165685 -1 0 1
4958 1 4.434144459902912 22.138499728954976 3.7083032614875613 1 0 1
4706 1 8.637783913748182 24.112257815948194 3.9490539554626016 -1 -1 1
432 1 9.745895624708739 21.500939706829374 4.926769068221649 0 1 0
6264 1 11.837005605787134 22.092850233756927 6.765182136702618 0 1 1
4697 1 11.913381701904727 24.18995146641722 4.787600370752796 0 0 1
2075 1 17.232593263553053 21.376153611210057 6.263809966315789 1 0 1
285 1 16.82455979427503 23.97630860436348 5.196144839109845 0 -1 0
3267 1 14.484188183019016 21.729675296020865 5.943025655193127 0 1 1
1366 1 20.532078038865695 22.748890535697704 6.784640020266449 0 0 0
4882 1 22.247422516908617 21.545462725723482 4.008702348236725 0 0 0
3233 1 3.2004424028716567 3.3168555810815037 7.400280062819624 0 0 1
1961 1 3.2074782465381673 1.6545439251518528 10.521225266865855 0 1 0
6285 1 1.9328649560443778 0.7376779098785723 7.724400041018957 1 0 1
1785 1 8.160522269293823 0.8944642082190115 8.07973259173978 0 1 0
1960 1 10.608643835694314 1.0517518653739149 7.159348921572915 0 2 0
5090 1 12.635973084527574 3.1800496187588734 10.402120993473105 -1 1 0
4907 1 18.87217664780725 3.1208245954179397 10.220172032327454 1 1 1
4967 1 19.121706425196212 0.2277648216869358 10.501476104393921 -1 1 0
350 1 21.534975543851907 3.2898578987402276 9.296316320220289 0 1 0
1625 1 22.47211952751955 1.2092728539914461 8.186700739532457 0 0 1
1917 1 2.2050281032492176 4.358327571875439 10.502803494097813 0 0 0
278 1 5.631926093090106 4.77864585031566 7.91961023058363 0 0 0
337 1 3.6433280348331794 6.391211204828681 9.18019650373504 0 0 0
1898 1 8.093617156572082 3.747337398464345 8.86370537378767 0 0 0
3463 1 10.071639372740647 6.182221159099226 8.305065989377148 1 0 0
4648 1 11.354780167953106 3.6416643906283004 8.184437539817004 0 1 1
2983 1 16.891275662819023 4.942035469168598 9.209959497729912 0 0 1
6099 1 22.138766967259844 5.722751013917914 7.797802396634761 -1 0 1
3411 1 2.319195597288937 8.25088382637756 7.477593060413792 1 -1 0
1765 1 0.2530052071593964 10.32143653524959 7.747770826143244 0 1 0
1282 1 4.724687090579153 9.97119450952318 7.330302152497665 1 -1 1
3589 1 3.752121377724065 9.706111830226648 10.165797849303823 1 0 0
6173 1 7.500830538975471 8.957500129967038 7.142116652629641 0 1 1
1615 1 9.42293518793994 10.317588878605761 8.74739732834306 0 0 0
3568 1 9.606248840837559 7.739328412749623 10.552762054692739 1 0 1
5231 1 12.207388520821466 7.400037996958961 7.112472876037984 0 1 1
4450 1 14.637608390477158 8.58936531591021 8.09293744023136 -1 1 1
24 1 17.44027009614956 8.700682016786683 8.21125277442718 0 -1 1
3525 1 18.85343485534786 7.1027224798658075 9.85984689048298 0 1 0
5277 1 21.494920256286946 8.053630674219777 9.048606518253699 1 1 0
3204 1 23.67984783902945 9.167902874003982 10.554050469596618 0 0 0
419 1 5.897355304692041 12.309898465112436 7.597246349293467 1 0 0
1297 1 6.379628527690697 12.195064375337294 10.217116724380453 1 0 1
2925 1 9.094958403440629 12.696706647778973 10.291106300515473 1 0 1
406 1 14.051612051170183 11.43265412233818 8.046672660935416 1 1 0
1535 1 16.961974644773647 13.249301661730394 8.72086884569117 1 0 0
3530 1 18.68367132793642 11.119187350185927 8.768335230825913 0 -1 0
4653 1 22.92475009170934 13.085587754022166 8.341994709725359 1 0 0
3053 1 2.3315750530933976 14.351146881294383 9.436040353272983 1 -1 1
1298 1 4.926372552885369 17.062267545792412 7.113905942620077 1 0 0
6183 1 4.102708488930238 14.34332938667205 7.426545132176834 1 1 1
6317 1 9.491744080440503 15.301835857578414 8.885344325784594 0 0 1
4475 1 7.745234887186035 17.25809649140727 7.166609651890218 0 1 1
1604 1 7.267204683988513 16.440676255696243 10.016674858111013 0 0 1
4516 1 11.483317769995013 16.044490844879512 10.391173893459461 0 0 1
3601 1 16.44796369963119 16.032428617572936 10.521278444701839 0 1 0
15 1 19.307419955864415 14.088280400607589 7.170099817821133 0 -1 1
6061 1 20.83389682603739 15.40491275629184 9.024270445100727 1 0 0
5161 1 24.596763757910875 17.123192631792083 10.253880639195984 0 0 0
4582 1 22.797159448176085 16.099761388016248 7.313330599261175 0 0 1
1492 1 1.6910355927919996 19.761360500461382 7.961899578899015 1 -1 1
6245 1 3.3148893192390694 17.949627642158067 9.405200474155276 0 -1 0
6040 1 5.7739958325095335 18.864092279559493 10.101097074634524 1 0 0
2071 1 9.094602588896796 19.018054201339844 9.009000157965296 0 0 1
207 1 11.894254016675772 19.12018624939304 8.164929881102937 1 1 1
3269 1 15.746116351871974 18.25223846007658 9.304768292556592 0 -1 0
2058 1 14.071145783129085 20.946181701663 9.143263039310925 2 0 1
2128 1 17.972062539321005 19.664403729621498 8.531124219600322 0 1 0
67 1 20.648894906979745 18.295380738338277 7.279440812121161 0 0 1
6087 1 22.344834652345806 20.887209319184805 7.8369934045897764 -1 1 1
3410 1 22.47645240539585 19.242411403647164 10.137135784773987 1 1 0
2921 1 0.9434380249003373 22.79376407312319 10.537499159187654 0 0 1
232 1 2.183268829396598 22.466520433464922 7.8297317057253535 -1 0 1
4716 1 6.3408844684789 21.037036545142694 8.14531223330497 0 -1 1
3481 1 7.8305408346495495 23.058221684971723 9.39677406430226 1 1 0
3382 1 10.512040885848393 23.62707420797986 8.786070955676951 1 1 0
489 1 15.174035983157278 23.392557931617663 9.967130711624826 1 0 1
270 1 17.8362771523777 22.31279010039039 9.739591847769786 1 1 1
1853 1 1.2518931323145168 3.256588443437983 13.670177887931034 1 0 1
3179 1 2.6094913539995286 0.43165670447206705 13.354825251088803 1 0 0
249 1 5.887955094590483 2.791467586425791 11.319245492200203 1 0 0
6062 1 7.1612061239834075 0.6204255222958527 13.075152849610747 1 0 0
4843 1 9.844934096370336 0.49887089861709116 13.419689768189533 1 1 0
4699 1 10.496618371102196 2.953094279287156 12.377171458180884 0 1 1
5013 1 16.880606500875466 1.643648448542984 12.220897837459464 0 0 0
3229 1 14.266085351273219 0.8158908991418204 11.067110681997757 1 1 1
5001 1 23.26406051058772 3.0767530998438573 11.139348154886676 0 0 1
5986 1 23.46049214173299 0.4843995238898372 12.369516063848613 0 1 1
2106 1 0.1647649846138961 6.660695511019077 11.059954750989045 0 1 0
3244 1 3.9017952736119432 4.309245555527665 12.951148648372968 1 0 0
6151 1 8.290388939590809 4.607629664526841 11.894874881196156 0 0 1
1846 1 14.610267336495985 5.157687061508986 10.844934975427897 1 1 0
420 1 15.10909670355097 5.078588336114186 13.56102552112432 0 0 0
5053 1 19.55111597602893 4.464802048707829 12.689852808591061 2 0 0
1982 1 21.883167919290052 3.623577426153411 13.251113865101683 0 1 0
1599 1 0.8610296516611993 9.580445798202827 10.620579682865495 0 0 0
4703 1 2.410899058718946 8.837493768548699 13.184749558261009 1 0 1
109 1 5.205523506408937 10.16390433380903 13.09705722149834 1 0 1
1336 1 4.523174310207929 7.2280124056078705 11.789769882842338 0 0 0
5267 1 7.19218855553077 7.214216300907819 12.621710058526597 0 1 1
4625 1 7.549676269875426 10.200521019202451 11.74510669996056 -1 0 1
5174 1 11.611967702695884 8.844739839528241 12.299519443300236 -1 1 0
3224 1 14.197227220754705 8.09091673813343 10.713420025932978 0 -1 0
125 1 16.689584833452923 8.679997914246686 12.089061399387397 -1 1 0
1836 1 19.081303719390306 7.1855340443145845 12.925286987672877 1 1 0
4642 1 20.975033757047083 9.27220263314041 13.244682202251328 1 1 1
3110 1 23.38261399499794 8.082498249840626 13.33126213311893 0 -1 0
3321 1 0.6755566396590987 12.734748367645203 13.414356744367579 0 0 1
2929 1 2.5544855642956534 12.303051390304686 11.523987761467986 0 1 1
2798 1 4.256223458406283 13.059618852750527 14.00054775748353 0 0 1
4490 1 9.088107921197004 12.12564289185134 13.189365943395327 1 0 1
4971 1 11.774810032883613 11.451255955494576 13.190682333019968 0 1 0
5168 1 13.265803830845776 13.65095977009229 13.656920443765195 1 0 1
1915 1 14.820224237410796 11.900078622256961 10.776841032589523 0 0 0
3196 1 17.47761284645169 11.436859402853715 12.374410156715202 1 1 0
1621 1 20.220306340616336 11.274640456594284 11.36984683199962 -1 0 0
1914 1 24.110500414740304 12.616905451077175 13.824086324787606 -1 -1 1
2081 1 22.961209503543618 12.140392627344664 11.237363241765191 0 0 0
3416 1 3.144471629836139 16.301766206457913 11.457813983530103 1 1 0
182 1 0.7063274171517061 15.362435677203477 12.526805725378287 1 0 1
3033 1 5.410814939750029 14.509522984870662 11.56344591815644 0 1 0
4807 1 4.8927384945107635 17.04705296532442 13.755056448496699 0 0 -1
1711 1 10.088234263312744 14.857568975494944 12.739104033308294 -1 1 1
5089 1 8.554568357441864 17.082946174673975 12.534453455866526 1 -1 0
3266 1 13.821683448142075 14.630171728485664 11.0358891428714 -1 0 1
3369 1 15.550991703105055 16.051644450819314 13.164042598353854 1 0 0
4707 1 19.321814835206183 15.907638081778355 11.533830536602148 1 0 1
5313 1 22.746744727171148 14.996063034968921 11.936284838394258 0 1 0
399 1 2.4403736781429504 20.85705173626247 12.322119626081754 0 -1 0
5153 1 0.33086225330020885 20.695683268345093 13.972637265723918 0 0 0
1945 1 4.951346089630812 19.581449307170818 13.203951652676759 0 0 0
3287 1 9.558669095244328 20.830246640881672 11.200133411232136 0 0 0
26 1 10.501490869324368 18.877208351200576 12.875883540992527 0 0 0
1393 1 13.039030348329486 18.755821911231745 10.899747588649177 0 0 1
3335 1 15.457675533333061 19.328883203800547 12.690836628268192 1 0 0
144 1 17.836845357019563 18.177353740008257 13.307522186379115 0 0 1
1587 1 19.722269609605448 18.64087472031436 10.637761078207465 1 1 0
4493 1 19.727905081275374 20.437564332710686 13.348871605659625 0 1 1
6055 1 22.523191356641902 20.73789846783995 12.314617934890595 0 1 0
4620 1 23.69197124774194 18.892127043666854 13.998107472220857 1 -1 0
4947 1 3.254916946945723 23.102464003947667 13.93483683895842 1 0 0
340 1 8.073947832029768 22.498531616804005 13.041017341465198 0 0 0
4979 1 12.097056983767851 21.986813951551163 10.745064442858052 0 1 0
1301 1 16.74309041329825 24.286094580762047 12.703686873126626 1 -1 1
3309 1 14.300026652703847 22.7957849890374 12.628664574126615 1 1 0
3273 1 18.983213520914983 22.6990893120401 12.08465534575925 1 0 1
5169 1 21.689787576277332 23.5291341182013 12.44784515206994 -1 1 0
1839 1 24.56667972192997 22.85588649722255 11.934492666614595 0 1 0
289 1 1.5909721916343276 2.646068891021722 17.14005128082737 1 0 1
50 1 4.7970953341450535 1.7972341136894636 14.53275053659484 1 0 0
5116 1 4.877766509058002 0.8435160144393764 17.317412110936047 0 1 0
354 1 13.49760323553043 0.33085070559070057 15.93498241114423 1 0 0
5007 1 13.968981762196947 3.034395525102602 15.189287793850042 1 1 0
3365 1 10.864084374425303 1.640381325792282 15.607660669281723 1 0 1
308 1 16.603088128419177 0.21625467154320108 15.964450436912834 0 1 1
4495 1 17.37346791454541 3.3942604131913816 14.471726758845051 1 1 1
3551 1 18.952728622820334 2.0023562796099057 16.359533749843983 0 2 0
5146 1 23.476657227536826 1.230776819674366 16.949571365694506 0 1 0
2845 1 21.25183263957288 1.1857510762039745 14.846928878477948 0 0 1
5176 1 1.1049172302631753 5.435525700041564 15.745658280831288 0 1 0
1265 1 3.2212018093201515 6.966892449414068 14.989454645539462 0 0 1
417 1 5.502424993191709 5.153670453322988 15.59137900492042 1 2 0
3323 1 9.474781707952598 4.815036227342476 16.020064465407366 0 1 0
492 1 7.433468827291782 3.6159977617739836 14.369987333893926 0 1 0
1680 1 7.797667123951709 6.971256253388064 15.697607870111982 1 1 1
3565 1 11.75240436881632 4.5313668943710965 14.43089789917453 1 1 0
3640 1 17.317241931355944 6.255660920962054 15.291890429813655 0 1 1
6187 1 20.200140965375343 6.67111393820906 15.848729874841895 1 1 0
3331 1 24.418895137641886 5.048243922163442 17.095483525845808 0 0 0
212 1 22.7941000782772 5.637359537920593 14.85219412208416 0 0 0
1415 1 3.8444893908225986 8.81550145423933 17.28787629913581 0 0 1
5276 1 9.50057311386056 9.027033479311251 14.439940620658088 0 1 1
4739 1 12.639424164542346 7.293059963937011 14.526371652984272 1 0 1
1872 1 12.754616844540186 10.331292563784249 15.927056012339891 0 0 0
4666 1 10.960155110856329 7.849698356959237 16.79619255563634 -1 0 1
4701 1 15.13244301448522 8.12245997972935 14.586485734067479 1 0 1
3506 1 15.496980220501761 9.106035304822738 17.099054906306023 1 0 0
1979 1 21.234475992401165 10.054545715358174 16.192402467307602 -1 1 1
3111 1 2.174036846226255 11.029040191351971 15.180647108762418 2 1 1
4977 1 5.460362056671252 10.5082197716699 15.996744515927416 0 0 0
3288 1 3.5945805219594096 13.224610623837071 16.834397602381614 1 0 0
1330 1 7.2381392714514865 13.443267740495555 14.883153143842385 0 0 1
252 1 8.632784709794734 11.022947757189373 16.20193648807875 0 -1 0
309 1 12.626975866370989 13.49931002028911 16.788603998775493 0 0 0
4573 1 15.8949383895646 13.091671763503511 14.241295487132161 -1 0 1
3652 1 15.291113958733352 12.18794322189388 16.80937468444218 -1 1 0
66 1 19.6720069032094 12.407290804111627 14.342812450441041 0 0 1
3005 1 18.88542607039886 11.753590555389685 17.110058477290117 1 1 1
1561 1 23.30828798081099 12.228981679505388 16.436897190132143 1 0 1
1673 1 1.3372083364093517 15.184757290123404 15.59992904624883 1 1 0
1892 1 7.91861546285312 14.27485574721227 17.604920212348937 0 0 0
403 1 10.077788993573863 16.50152622602549 17.42705995438361 -1 1 -1
112 1 7.869022788879903 16.430617882367596 15.249626144877507 0 2 1
4964 1 11.3586557039888 15.53624986875989 15.099736460499928 -1 1 1
1344 1 14.672421621147734 17.487986766180178 17.140230137959172 1 0 1
1678 1 17.6500696985399 15.684680284729597 15.08535767222387 0 1 0
173 1 20.121611775273013 15.048325950148136 14.160642068872017 0 1 0
3443 1 22.265800309377035 15.805863517668874 15.796931244611768 0 0 0
1702 1 3.26603422367016 17.57386150439746 15.888521862460493 0 0 0
3375 1 0.6382316461372527 18.790072676613594 15.964759373516127 1 0 1
4811 1 6.731116874341237 20.83511214725513 15.074411640257809 0 0 0
4448 1 3.831234015798717 19.834633908536766 17.277739964466726 0 1 1
3236 1 8.167270077954964 19.21166164470983 16.790783991839085 1 0 0
6034 1 13.448011978197771 17.62489563361489 14.53263057375197 1 1 1
6067 1 11.747609111311158 20.05759907481549 14.831142704562188 0 0 1
44 1 14.400658705678277 20.761306332502468 14.789906977102827 -1 0 0
2968 1 17.038142986992767 19.062378021412645 16.23818136666194 -1 1 1
3479 1 19.834293296445463 20.320241509721416 15.837171115357933 0 0 0
3371 1 21.90312567758735 18.570418472486537 16.165117713657445 -1 0 1
1280 1 1.4928546614262146 24.31824745024248 15.36373162753971 0 0 1
4974 1 4.701183859559738 22.12732207635606 16.098724324432375 1 0 0
1582 1 9.251812044463893 24.26731770213273 16.992308422688623 1 -1 0
1801 1 10.530215771909607 22.911275640687382 14.771322584341608 0 0 0
3619 1 10.514221125115718 21.063517603404048 17.476994570832304 0 1 1
3441 1 14.298752451744846 22.12221684303239 17.247636975826193 -1 1 0
4922 1 17.918422544892255 24.19357587586552 17.390858480078805 -1 0 0
303 1 20.43727391810111 22.940246454789595 16.820690825979444 0 0 0
1833 1 0.7208620618259103 1.1909503569655115 19.759453234489662 1 0 0
5040 1 3.3938082264317533 0.4697037765116047 21.083508401654417 1 0 1
1573 1 9.704380461739865 0.5530482632353373 17.86424984595711 0 1 0
133 1 9.818391463963614 2.3801863399512504 19.987695635081003 0 0 1
195 1 13.945785777979093 1.8865805092676864 19.725929115662957 -1 0 0
1645 1 16.37608968743566 1.6515657537387125 20.811158033864615 0 0 1
4924 1 18.379817841818923 2.9453504575921405 18.9699584899833 0 1 1
4724 1 21.163379517038653 0.8769371562883486 18.572553795295285 0 0 1
5296 1 23.933539385390027 1.7345825922043892 21.196600594903448 -1 0 1
5318 1 0.4010691790111866 4.352406621128955 19.662582307861747 0 1 0
3630 1 4.425607910994457 4.786342932959659 20.406652675582112 1 1 0
1760 1 4.438864869554517 3.5424729881721095 17.802599683147818 -1 2 0
2025 1 6.503711167489278 6.6135406749681644 20.984474768672722 1 1 0
3186 1 9.473474540632376 5.055051558836766 19.002959417287833 0 1 0
3510 1 14.056318114190093 4.067397032654943 17.710814317352828 0 1 0
1876 1 12.195015135907976 5.915282784540083 18.86529459394663 0 1 0
9 1 16.21064395689487 6.5953261838702035 20.002738606938024 0 1 1
6158 1 16.76100851512766 4.844663961449907 17.753276169977184 0 1 1
5095 1 20.672357274313573 4.845532362550714 18.91362455175485 -1 1 0
1511 1 23.3039928278573 3.5780704133082466 18.879506345230357 0 0 1
5286 1 1.2377603426566872 9.008067345097293 18.191953078976105 1 0 1
4898 1 1.2204892310949635 8.170642649214722 20.793759129426196 0 1 0
3492 1 5.018832567459411 8.564052527053727 19.973471732251518 1 0 0
4785 1 9.359814033310734 8.916900402672544 19.490233686089137 0 0 0
4479 1 7.2325862623431965 8.842365371801655 17.756711937761573 1 -1 1
547 1 13.938945093032933 7.28640074761597 21.15594272141316 1 0 0
1737 1 11.642081470549956 9.996661484195915 18.833567566511245 0 1 1
5045 1 13.307880885997392 9.913018159623048 21.110884351752325 0 1 0
2015 1 16.372699210246136 10.347644735750146 21.1484430223998 0 1 0
4603 1 20.24071863548718 7.734853719430293 18.54558599874133 0 -1 1
5130 1 17.75782289830859 9.421382486354807 18.75911316896127 0 1 0
1482 1 22.5073206638273 9.356069230781939 18.827030731626287 1 0 0
5127 1 1.4520918476403222 11.773289692118242 18.269915196548112 0 0 0
11 1 5.943711845314509 12.222810855377388 18.309226565040966 2 1 1
276 1 5.9689149052097195 11.200191190583062 21.12378827539124 0 -1 0
1817 1 10.005034033227087 13.27283310651254 20.817288676770392 0 1 1
1245 1 10.390460431899822 12.511234806029297 18.09348553969753 0 2 1
1718 1 16.64084812068543 13.829442462931329 18.567345720923022 -1 1 1
1565 1 19.5246080403395 13.056092170036282 19.392743460387067 0 0 0
3504 1 23.86911232761753 12.95334544763843 20.721545323585556 0 0 0
1308 1 2.8082113499274812 16.95869022446062 19.991733345946503 0 -1 1
2068 1 6.796040897275255 16.022812010832418 19.915276051773205 0 0 1
4919 1 3.928404795332409 16.04765150147534 17.915510848479457 1 0 1
3320 1 9.625990159182775 15.950320067047988 20.182134438679796 0 0 0
3062 1 13.729481335247199 16.00218224774335 20.88206420967976 1 1 1
5229 1 14.128494938863994 15.109076748145473 18.54517164961658 0 0 0
4899 1 20.92103369943614 16.955436610069114 18.650300185150975 0 1 0
4885 1 18.019107652872314 16.19804565990283 18.100222234971135 -1 1 1
1827 1 21.980515270131395 14.132764831545403 18.315447385624125 0 0 0
1457 1 23.817477601074266 16.0547438902931 19.54861293542985 1 0 1
437 1 1.816086617080105 20.318835236417893 19.241652209371363 0 0 0
2048 1 0.1886202330421768 18.089402459379023 19.762233064695902 0 0 1
4870 1 5.914191338419884 18.21105771023031 18.429005659979723 0 0 0
304 1 8.089841150979321 20.88952969368549 19.41041288395379 1 0 0
5966 1 12.092321952423092 18.244731904189706 20.388722545219732 1 0 1
3 1 12.185179891060788 18.476361801967872 17.683564296582276 0 1 0
4991 1 16.427382293128748 18.951618998546113 20.489166724159453 0 1 0
3120 1 18.47291717380621 19.446838088545537 18.468515539448955 0 0 0
1921 1 19.874395305236973 20.92012510500914 20.28181001130587 0 1 0
3608 1 23.706871815869896 18.54572627859564 21.116772738310694 0 0 0
4731 1 23.31625715285499 19.80250984525157 18.318115424743198 0 0 0
5178 1 1.6486288152893611 23.566854113972404 18.15991329818199 1 0 0
1641 1 3.0212192516686036 22.148481929363985 21.15171100569408 1 0 1
1863 1 7.030902644724027 23.315357216485868 18.63491276949397 1 0 1
4508 1 12.128751456370264 24.339811674900886 20.187693680609687 1 -1 0
4826 1 12.411898443491246 21.701842364723426 19.55584502776924 1 -1 1
6120 1 16.80849108313576 21.66484839333459 18.57028115051262 0 0 1
2057 1 16.30076435304173 22.859253102556302 21.07472902387504 0 0 1
185 1 21.77066161010892 21.953527046818806 18.96332838532473 0 1 0
6162 1 22.64904619853948 23.90917943430266 20.67179621811908 0 0 1
3533 1 0.3535492199658599 0.0022802186440053634 24.442036594369746 0 0 0
3560 1 3.193258849852286 0.11331759942746518 24.157195909072364 2 1 1
3367 1 3.5396078823444452 2.8511526087698593 24.53819107881831 2 1 0
3718 1 5.148488211637169 2.455562100740645 21.915261816663673 0 0 0
1659 1 8.484980270034802 1.5300327465083114 24.23831057435307 2 1 0
1538 1 7.950751331213209 1.2787789973535215 21.50277483765424 -1 0 1
4923 1 11.156397467397227 2.258884142993209 24.454013042106045 0 1 0
1936 1 13.142897855294525 0.6637050881619245 23.71814091383158 0 1 0
200 1 12.046879746460695 2.732190827996775 21.526655309330174 0 0 0
6238 1 15.824330459128019 1.545645985915679 23.810805545443813 0 0 1
3324 1 18.48007059183469 0.5775683509487063 24.66260730399988 0 1 0
4755 1 21.181200813158153 1.4468550411753995 24.3240936934414 -1 1 0
3401 1 24.005110211445444 1.5474826979070555 24.17135799710451 0 1 1
1856 1 21.126330447299857 1.6711389320578478 21.4468799762129 0 0 1
3262 1 0.8579623366570746 4.497015389613771 24.306916253358597 0 0 0
5057 1 3.4503176233237993 6.214477601448742 24.16089721338062 -1 1 0
1351 1 1.9403573029835905 5.511048421108626 21.729062011905246 0 0 0
2070 1 6.576079309791803 3.7869496506489018 24.44042537798945 0 1 0
3571 1 6.096121882900714 6.657262861660014 23.69622063960599 0 0 0
4938 1 8.71084195098963 6.319790442109758 24.31124597944029 1 1 0
4963 1 9.406161160676831 6.780924462447734 21.36899537393474 0 1 0
6220 1 11.560141572464323 5.4687672479279055 24.564820081857903 1 0 1
3275 1 11.846277762716461 5.471096975395723 21.86825097998125 1 1 1
4602 1 14.91860674229555 4.407705282978567 24.51841584300124 0 -1 1
1929 1 16.78998839717103 4.267449320894922 21.950020260413456 -1 1 0
3252 1 20.583967598416386 4.190756229567375 24.460782202667605 0 1 1
1772 1 19.693022761534333 4.237602505711937 21.737948284766798 0 1 0
5315 1 17.685779541451655 5.035102448209637 24.560265999169573 2 0 0
5093 1 22.974548498897725 5.739704730180495 23.978864593889938 1 0 1
3431 1 22.698289446727973 5.649995409434552 21.26519075443261 0 0 1
2091 1 2.686660812293742 8.708607579372798 24.487420616801092 1 -1 1
4613 1 3.10809707295565 9.586978455816876 21.943920374843437 0 0 1
3087 1 6.453877303129436 9.50472201935483 24.128340709821263 0 0 0
3024 1 10.929144765335014 8.49965033327234 24.216342492045136 1 1 0
2024 1 13.385085133701878 10.008018128910418 24.142199361037093 1 0 0
344 1 14.373313917453263 7.2161742209079645 23.894598527040525 2 1 1
6228 1 17.4196289027529 7.761168804468803 24.33098960530843 1 1 1
1766 1 18.12861658930891 7.900779239318127 21.678953637163804 -1 0 0
305 1 20.149403011577295 8.899056371911195 24.297622739889622 0 1 0
5023 1 21.082399821248014 7.914591073786944 21.736886267104712 0 1 0
4595 1 23.1789544029374 8.460089080587704 24.197199226918485 0 0 0
5999 1 1.6489014507569144 12.283369811722142 24.177973560193415 0 0 1
469 1 1.783439044152578 12.015004449935383 21.306454953381902 0 0 0
4646 1 4.5089340465708725 11.548888225322646 24.39111723038842 0 -1 0
1524 1 6.7820475510271265 13.353140114869156 24.284305054133398 1 0 1
1613 1 8.777449735817134 10.822289724659301 23.98568146848603 1 0 1
5092 1 9.98192808155505 13.556494443878602 23.911469935400973 0 1 -1
279 1 8.687622941933393 10.965525847660688 21.32990782227441 0 1 1
3128 1 12.601317191268778 12.65201992767991 24.352059096230718 1 1 1
6046 1 12.871831483886105 12.622400559154704 21.557364740833084 2 0 0
339 1 16.412974271312443 10.85605123350063 24.292774586299142 -1 0 0
1665 1 16.341537915985967 13.795134325833503 24.06175000556287 0 0 0
3316 1 15.730331511220463 13.380143274506965 21.44817927980834 0 1 0
1497 1 19.312146420015928 11.612496392930394 24.018257688339496 1 0 1
1581 1 19.515080622997996 10.998804833847712 21.24102285036668 0 2 0
2 1 21.539410625040343 13.27856035162866 24.14999733912654 0 -1 0
1428 1 23.329946171939117 11.295929459119552 24.275466673300997 -1 0 1
5087 1 22.330416572900766 10.78163464146924 21.47150246158304 0 1 0
2027 1 2.0343047271004124 15.00324640741467 24.33073770022708 0 0 1
2848 1 2.694183395777793 14.654596553558005 21.53291841313067 0 0 1
4566 1 4.685966303804062 15.79379629020392 24.156418610721072 0 0 1
6115 1 5.46900444542194 14.094643683429469 21.70163020196107 0 0 0
5192 1 7.567566812151461 16.865892541912274 24.37822980729598 1 0 0
2834 1 11.248640274579612 16.23690192531212 24.26310453182935 0 -1 0
1554 1 16.48242379490638 16.490653418738837 21.82892846539098 2 0 1
4939 1 18.784472845485322 14.965185046035367 24.135069639989883 0 0 1
4763 1 19.16882208008138 15.604875887405688 21.234920524737042 0 1 0
3374 1 22.50445797159551 14.882651354386962 21.955557205445057 0 0 0
1937 1 1.5420089875044671 19.6029420089001 24.333281444456418 1 0 0
55 1 4.1305148631007125 18.26066946125448 23.985490269891756 0 1 1
68 1 6.893433485342826 19.047889818927793 21.43277455050641 1 0 0
451 1 3.9738965351187074 19.068820862883637 21.205940319100385 1 0 1
5100 1 10.436064877403217 20.62345829283321 24.108986151597406 1 1 0
3000 1 7.796226298663417 19.68490579648641 24.48613114871916 0 0 1
6009 1 9.387158056922065 17.6109530531615 22.34583843727367 1 0 0
1285 1 10.364781433775802 20.39608613927024 21.44394443209995 2 0 1
10 1 12.780869304214729 18.90367851423911 23.59974547821073 0 0 0
1959 1 15.29367212608987 17.801099159958536 24.241824445222367 0 1 0
4950 1 15.858687757357213 20.91244994526502 24.17744988580439 0 1 0
170 1 14.330613752845453 20.60760653107512 21.520923441671236 1 0 0
3473 1 17.93543704910911 19.869892047387882 22.582192306499124 0 -1 0
3113 1 18.286682080521377 17.878718179059817 24.16515658909146 0 0 1
3390 1 21.00951652421293 18.93255087427982 24.423289031493937 0 0 1
5064 1 20.643559484253082 18.17534211510134 21.502732913998965 0 0 0
1694 1 23.55311982307347 17.84915951864695 23.74842286931529 0 0 0
3651 1 2.472009458295259 22.511178354090323 24.096526511108856 0 1 1
1522 1 5.773639133631516 21.924968040004046 21.459278545994277 0 0 1
6091 1 6.8827835021271255 23.631876508056784 24.63983387114047 0 0 0
3717 1 5.385648960693426 21.218406776805203 24.24334852109735 0 0 1
3485 1 9.584981264608304 23.27072839181993 24.426705264455823 0 1 0