LAMMPS data file via write_data, version 29 Sep 2021, timestep = 8000000

4065 atoms
2 atom types

0 49.22 xlo xhi
0 49.019635930410494 ylo yhi
1.0773018889166845 26.763530357363898 zlo zhi

Masses

1 18.015
2 12.01

Atoms # atomic

83 2 0 2.8417180249513345 2.6245187522817472 0 0 0
85 2 0 0 2.6245187522817472 0 0 0
87 2 1.2305000000000001 0.7104295062378347 2.6245187522817472 0 0 0
94 2 1.2305000000000001 2.1312885187135 2.6245187522817472 0 0 0
96 2 2.4610000000000003 2.8417180249513345 2.6245187522817472 0 0 0
98 2 2.4610000000000003 0 2.6245187522817472 0 0 0
100 2 3.6915000000000004 0.7104295062378347 2.6245187522817472 0 0 0
115 2 3.6914999999999996 2.1312885187135 2.6245187522817472 0 0 0
117 2 4.922000000000001 2.841718024951333 2.6245187522817472 0 0 0
119 2 4.922000000000001 0 2.6245187522817472 0 0 0
90 2 0 4.262577037427 2.6245187522817472 0 0 0
111 2 2.4610000000000003 4.262577037427 2.6245187522817472 0 0 0
140 2 4.922000000000001 4.262577037426998 2.6245187522817472 0 0 0
92 2 1.2305000000000001 4.973006543664834 2.6245187522817472 0 0 0
107 2 1.2305000000000001 6.393865556140498 2.6245187522817472 0 0 0
113 2 3.6914999999999996 4.973006543664834 2.6245187522817472 0 0 0
136 2 3.6914999999999996 6.393865556140498 2.6245187522817472 0 0 0
88 2 0 7.104295062378334 2.6245187522817472 0 0 0
103 2 0 8.525154074854 2.6245187522817472 0 0 0
105 2 1.2305000000000001 9.235583581091834 2.6245187522817472 0 0 0
109 2 2.4610000000000003 7.104295062378334 2.6245187522817472 0 0 0
132 2 2.4610000000000003 8.525154074854 2.6245187522817472 0 0 0
134 2 3.6915000000000004 9.235583581091834 2.6245187522817472 0 0 0
138 2 4.922000000000001 7.104295062378334 2.6245187522817472 0 0 0
169 2 4.922000000000001 8.525154074854 2.6245187522817472 0 0 0
84 2 0 1.420859012475665 5.718952479011925 0 0 0
86 2 0 0 5.718952479011925 0 0 0
95 2 1.2305000000000001 2.1312885187135 5.718952479011925 0 0 0
97 2 2.4610000000000003 1.420859012475665 5.718952479011925 0 0 0
99 2 2.4610000000000003 0 5.718952479011925 0 0 0
412 2 0 2.8417180249513345 8.813386205746557 0 0 0
413 2 0 0 8.813386205746557 0 0 0
414 2 1.2305000000000001 0.7104295062378347 8.813386205746557 0 0 0
418 2 1.2305000000000001 2.1312885187135 8.813386205746557 0 0 0
419 2 2.4610000000000003 2.8417180249513345 8.813386205746557 0 0 0
420 2 2.4610000000000003 0 8.813386205746557 0 0 0
116 2 3.6914999999999996 2.1312885187135 5.718952479011925 0 0 0
118 2 4.922000000000001 1.420859012475665 5.718952479011925 0 0 0
120 2 4.922000000000001 0 5.718952479011925 0 0 0
421 2 3.6915000000000004 0.7104295062378347 8.813386205746557 0 0 0
429 2 3.6914999999999996 2.1312885187135 8.813386205746557 0 0 0
430 2 4.922000000000001 2.841718024951333 8.813386205746557 0 0 0
431 2 4.922000000000001 0 8.813386205746557 0 0 0
91 2 0 4.262577037427 5.718952479011925 0 0 0
93 2 1.2305000000000001 3.5521475311891644 5.718952479011925 0 0 0
112 2 2.4610000000000003 4.262577037427 5.718952479011925 0 0 0
416 2 0 4.262577037427 8.813386205746557 0 0 0
427 2 2.4610000000000003 4.262577037427 8.813386205746557 0 0 0
114 2 3.6914999999999996 3.5521475311891644 5.718952479011925 0 0 0
141 2 4.922000000000001 4.262577037426998 5.718952479011925 0 0 0
442 2 4.922000000000001 4.262577037426998 8.813386205746557 0 0 0
89 2 0 5.683436049902664 5.718952479011925 0 0 0
108 2 1.2305000000000001 6.393865556140498 5.718952479011925 0 0 0
110 2 2.4610000000000003 5.683436049902664 5.718952479011925 0 0 0
417 2 1.2305000000000001 4.973006543664834 8.813386205746557 0 0 0
425 2 1.2305000000000001 6.393865556140498 8.813386205746557 0 0 0
137 2 3.6914999999999996 6.393865556140498 5.718952479011925 0 0 0
139 2 4.922000000000001 5.683436049902664 5.718952479011925 0 0 0
428 2 3.6914999999999996 4.973006543664834 8.813386205746557 0 0 0
440 2 3.6914999999999996 6.393865556140498 8.813386205746557 0 0 0
104 2 0 8.525154074854 5.718952479011925 0 0 0
106 2 1.2305000000000001 7.814724568616164 5.718952479011925 0 0 0
133 2 2.4610000000000003 8.525154074854 5.718952479011925 0 0 0
415 2 0 7.104295062378334 8.813386205746557 0 0 0
423 2 0 8.525154074854 8.813386205746557 0 0 0
424 2 1.2305000000000001 9.235583581091834 8.813386205746557 0 0 0
426 2 2.4610000000000003 7.104295062378334 8.813386205746557 0 0 0
438 2 2.4610000000000003 8.525154074854 8.813386205746557 0 0 0
135 2 3.6914999999999996 7.814724568616164 5.718952479011925 0 0 0
170 2 4.922000000000001 8.525154074854 5.718952479011925 0 0 0
439 2 3.6915000000000004 9.235583581091834 8.813386205746557 0 0 0
441 2 4.922000000000001 7.104295062378334 8.813386205746557 0 0 0
457 2 4.922000000000001 8.525154074854 8.813386205746557 0 0 0
2005 1 2.643245023369427 1.4265587975873388 11.75482804106678 0 0 0
956 1 2.556712402262036 3.9774800086075968 11.288628258362094 -1 1 0
3014 1 2.5826611129582955 9.522578787964143 12.273479529764261 0 -1 1
1795 1 0.5171074718761465 7.676031568168928 11.139434339708012 0 4 1
3133 1 4.970503704714043 8.26893126768659 11.24639831654898 2 4 0
1900 1 4.992406141060942 5.567860197316239 11.683084087095615 3 1 0
3003 1 0.16743810043043186 5.309995661081827 12.046020891863684 -1 -1 0
3004 1 2.8814814121386947 4.189845773976145 15.565181885841216 2 1 1
840 1 2.7562189841866584 1.4176819760173656 14.585725285145118 -2 -1 1
950 1 2.917423691359764 3.686084144131333 18.219973959918633 1 1 0
794 1 2.7974950469782103 9.444294217343147 25.18445001481478 1 2 0
1953 1 5.030379152671395 5.45709421140823 14.343712322639092 4 -2 2
3811 1 5.073408502385223 7.894028672454811 15.491993424314561 -2 -2 0
3069 1 0.5505766265507507 8.138287445683961 15.804981263769893 2 -1 0
1026 1 0.45871832955684055 5.586906754849229 14.793349947125472 2 4 0
924 1 4.998618738150626 2.297628562412946 19.200845410144773 1 2 0
2950 1 5.168300216831323 2.5191609265639894 21.908283300165103 2 2 1
1013 1 2.875173890892481 8.974813978909777 22.628658778998386 0 -1 -1
1084 1 0.42667140411482674 5.401461974885246 25.430438752858343 1 -1 0
2064 1 2.714948032874461 1.3038011494466073 22.51559952136332 -1 1 0
8 1 4.864556442302518 7.853117208436482 18.166978648658926 3 1 0
1917 1 0.4084732366637583 2.728781016381926 25.862065343353088 1 0 -1
1812 1 2.640750792954305 6.573837279870877 21.686457588443155 0 0 -1
1999 1 2.4238763268179078 6.537265566545883 18.90733853954577 2 -4 0
1041 1 0.5992528289094111 4.9862706011754545 22.761484442933487 3 0 0
2115 1 0.45215450197606155 8.107350787465736 18.503667261605457 -1 -1 1
2021 1 2.647028939490841 1.0279931309962127 25.267228114833593 0 2 -1
2859 1 4.844707261252481 2.804281962939751 25.49243130583914 4 2 -1
4015 1 5.01419636214268 5.437611585577372 25.02928265516985 -1 0 0
1012 1 2.639730669898563 6.694414438532522 25.914368971625464 0 1 0
2070 1 4.7657280943822204 5.14310264111634 22.2933843657689 1 0 -1
1973 1 0.3660843186863632 2.5055740162407876 18.957870728886142 0 -2 -1
2090 1 2.823049071776773 9.359261803436027 15.026548114127598 5 -1 0
3801 1 0.5145714685034937 2.5709335370437154 21.80796615134293 1 0 0
1078 1 5.029084819821981 0.02318941356025118 15.344559713896087 2 0 -1
101 2 0 11.366872099805333 2.6245187522817472 0 0 0
124 2 0 12.787731112280996 2.6245187522817472 0 0 0
126 2 1.2305000000000001 13.49816061851883 2.6245187522817472 0 0 0
128 2 1.2305000000000001 10.656442593567498 2.6245187522817472 0 0 0
130 2 2.4610000000000003 11.366872099805333 2.6245187522817472 0 0 0
161 2 2.4610000000000003 12.787731112280996 2.6245187522817472 0 0 0
163 2 3.6915000000000004 13.49816061851883 2.6245187522817472 0 0 0
165 2 3.6914999999999996 10.6564425935675 2.6245187522817472 0 0 0
167 2 4.922000000000001 11.366872099805333 2.6245187522817472 0 0 0
206 2 4.922000000000001 12.787731112280996 2.6245187522817472 0 0 0
208 2 6.152499999999999 13.49816061851883 2.6245187522817472 0 0 0
122 2 0 15.629449137232333 2.6245187522817472 0 0 0
153 2 0 17.050308149708 2.6245187522817472 0 0 0
157 2 1.2305000000000001 14.919019630994494 2.6245187522817472 0 0 0
159 2 2.4610000000000003 15.629449137232328 2.6245187522817472 0 0 0
198 2 2.4610000000000003 17.050308149708 2.6245187522817472 0 0 0
202 2 3.6915000000000004 14.919019630994494 2.6245187522817472 0 0 0
204 2 4.922000000000001 15.629449137232333 2.6245187522817472 0 0 0
245 2 4.922000000000001 17.050308149708 2.6245187522817472 0 0 0
249 2 6.152499999999999 14.919019630994494 2.6245187522817472 0 0 0
155 2 1.2305000000000001 17.76073765594583 2.6245187522817472 0 0 0
194 2 1.2305000000000001 19.181596668421495 2.6245187522817472 0 0 0
200 2 3.6914999999999996 17.76073765594583 2.6245187522817472 0 0 0
241 2 3.6914999999999996 19.181596668421495 2.6245187522817472 0 0 0
102 2 0 9.946013087329664 5.718952479011925 0 0 0
131 2 2.4610000000000003 9.946013087329664 5.718952479011925 0 0 0
168 2 4.922000000000001 9.946013087329664 5.718952479011925 0 0 0
125 2 0 12.787731112280996 5.718952479011925 0 0 0
127 2 1.2305000000000001 12.077301606043163 5.718952479011925 0 0 0
129 2 1.2305000000000001 10.656442593567498 5.718952479011925 0 0 0
162 2 2.4610000000000003 12.787731112280996 5.718952479011925 0 0 0
422 2 0 11.366872099805333 8.813386205746557 0 0 0
434 2 0 12.787731112280996 8.813386205746557 0 0 0
435 2 1.2305000000000001 13.49816061851883 8.813386205746557 0 0 0
436 2 1.2305000000000001 10.656442593567498 8.813386205746557 0 0 0
437 2 2.4610000000000003 11.366872099805333 8.813386205746557 0 0 0
453 2 2.4610000000000003 12.787731112280996 8.813386205746557 0 0 0
164 2 3.6914999999999996 12.077301606043163 5.718952479011925 0 0 0
166 2 3.6914999999999996 10.6564425935675 5.718952479011925 0 0 0
207 2 4.922000000000001 12.787731112280996 5.718952479011925 0 0 0
454 2 3.6915000000000004 13.49816061851883 8.813386205746557 0 0 0
455 2 3.6914999999999996 10.6564425935675 8.813386205746557 0 0 0
456 2 4.922000000000001 11.366872099805333 8.813386205746557 0 0 0
476 2 4.922000000000001 12.787731112280996 8.813386205746557 0 0 0
477 2 6.152499999999999 13.49816061851883 8.813386205746557 0 0 0
123 2 0 14.208590124756663 5.718952479011925 0 0 0
160 2 2.4610000000000003 14.208590124756663 5.718952479011925 0 0 0
205 2 4.922000000000001 14.208590124756663 5.718952479011925 0 0 0
154 2 0 17.050308149708 5.718952479011925 0 0 0
156 2 1.2305000000000001 16.339878643470165 5.718952479011925 0 0 0
158 2 1.2305000000000001 14.919019630994494 5.718952479011925 0 0 0
199 2 2.4610000000000003 17.050308149708 5.718952479011925 0 0 0
433 2 0 15.629449137232333 8.813386205746557 0 0 0
449 2 0 17.050308149708 8.813386205746557 0 0 0
451 2 1.2305000000000001 14.919019630994494 8.813386205746557 0 0 0
452 2 2.4610000000000003 15.629449137232328 8.813386205746557 0 0 0
472 2 2.4610000000000003 17.050308149708 8.813386205746557 0 0 0
201 2 3.6915000000000004 16.339878643470165 5.718952479011925 0 0 0
203 2 3.6915000000000004 14.919019630994494 5.718952479011925 0 0 0
246 2 4.922000000000001 17.050308149708 5.718952479011925 0 0 0
250 2 6.152499999999999 14.919019630994494 5.718952479011925 0 0 0
474 2 3.6915000000000004 14.919019630994494 8.813386205746557 0 0 0
475 2 4.922000000000001 15.629449137232333 8.813386205746557 0 0 0
496 2 4.922000000000001 17.050308149708 8.813386205746557 0 0 0
498 2 6.152499999999999 14.919019630994494 8.813386205746557 0 0 0
152 2 0 18.471167162183658 5.718952479011925 0 0 0
195 2 1.2305000000000001 19.181596668421495 5.718952479011925 0 0 0
197 2 2.4610000000000003 18.471167162183658 5.718952479011925 0 0 0
450 2 1.2305000000000001 17.76073765594583 8.813386205746557 0 0 0
470 2 1.2305000000000001 19.181596668421495 8.813386205746557 0 0 0
242 2 3.6914999999999996 19.181596668421495 5.718952479011925 0 0 0
244 2 4.922000000000001 18.471167162183658 5.718952479011925 0 0 0
473 2 3.6914999999999996 17.76073765594583 8.813386205746557 0 0 0
494 2 3.6914999999999996 19.181596668421495 8.813386205746557 0 0 0
3864 1 5.016379245836652 13.234271895757235 11.8367178893207 2 0 0
3907 1 2.7291742406180055 11.949459394159875 11.467231763669998 -2 1 0
969 1 2.8669207485469306 17.489470918601523 11.85390934284031 0 0 -1
1007 1 5.301097866226141 15.945048737662 11.267220985762338 2 -3 1
1921 1 0.5013084974527372 13.522898135772099 11.803595590488683 -3 2 0
1858 1 0.7661922469878927 16.081755763223683 11.268379686289176 2 1 -1
4031 1 2.83643108578065 12.03531726262259 15.442535935387609 3 -1 0
1943 1 5.052781446436156 13.36752013290612 14.54067479494973 0 -1 -1
2057 1 2.8385968867752935 12.042707059742021 18.149062305958694 2 0 0
1020 1 4.916807188539634 18.877529675866086 25.884572531328168 0 -1 -1
4020 1 5.225314537659994 16.150117886266028 15.346306800708753 2 -2 -1
2988 1 0.6602784598909189 16.25634868832692 18.38289025692678 2 -2 0
66 1 5.001819312819224 16.21005082518797 18.08720066171817 2 5 0
1057 1 2.7656066268132458 17.208848771753427 22.472517952918402 3 2 -1
1033 1 2.9454588109457602 17.596248805409633 14.577868209329587 0 -2 0
2011 1 0.7144303833977437 10.739226615488505 19.048612707076202 0 -1 0
932 1 5.147747624374685 10.597430690665723 18.933294365803448 0 -1 1
1077 1 4.926817252315099 10.507653266645397 21.704381777314786 2 3 1
3054 1 5.04737310058295 13.003594039133725 22.610225794142515 1 0 0
4063 1 0.5626911811909182 10.425110843751078 21.798038199910422 0 1 -1
4052 1 0.582310606732631 18.96232200946951 19.130563849944274 2 1 -1
3799 1 0.707969720504592 18.87979304162602 22.03750229496753 1 1 -1
51 1 4.632721429369449 19.077768016881347 18.84647230121567 2 -3 0
4051 1 2.86643255501558 14.769266690382464 18.976663651271686 2 1 0
4037 1 2.860050404212493 14.547827863962882 21.571811732507015 3 1 -1
3894 1 4.805244005519445 18.637232754390833 21.743260590131307 1 1 -1
1051 1 0.40222831314893764 13.401716677690587 22.383214686815876 2 -1 0
1957 1 0.30618884722496076 10.88469530904806 25.81212717819748 1 2 -1
3131 1 0.26769224581510787 13.575938266963394 25.097784244449223 1 2 -1
2038 1 4.939540574925373 10.843248162196861 26.08181947878392 0 2 -1
3933 1 5.104847057659482 13.681961757926034 25.1268206402196 1 4 -1
819 1 2.6804293506367918 14.821334249599241 25.846609687639237 2 0 0
57 1 0.6309581591693346 18.874911427557663 25.09100595445131 1 2 0
1787 1 2.8953228722033977 17.423723605841055 24.998041945506337 -2 2 -1
2888 1 0.7892561375835024 13.3709211966463 14.685297799647318 1 1 -1
3885 1 0.9403171254580647 16.05586688569392 15.760319453102396 0 -1 -1
151 2 0 19.89202617465933 2.6245187522817472 0 0 0
196 2 2.4610000000000003 19.89202617465933 2.6245187522817472 0 0 0
243 2 4.922000000000001 19.89202617465933 2.6245187522817472 0 0 0
188 2 0 24.154603212086325 2.6245187522817472 0 0 0
190 2 0 21.312885187135 2.6245187522817472 0 0 0
192 2 1.2304999999999993 22.023314693372832 2.6245187522817472 0 0 0
233 2 1.2304999999999993 23.4441737058485 2.6245187522817472 0 0 0
235 2 2.4610000000000003 24.154603212086325 2.6245187522817472 0 0 0
237 2 2.4610000000000003 21.312885187134995 2.6245187522817472 0 0 0
239 2 3.6914999999999996 22.023314693372832 2.6245187522817472 0 0 0
280 2 3.6915000000000004 23.4441737058485 2.6245187522817472 0 0 0
282 2 4.922000000000001 24.154603212086325 2.6245187522817472 0 0 0
284 2 4.922000000000001 21.312885187134995 2.6245187522817472 0 0 0
286 2 6.152499999999999 22.023314693372832 2.6245187522817472 0 0 0
1130 2 0 25.575462224561992 2.6245187522817472 0 0 0
1132 2 1.2305000000000001 26.285891730799833 2.6245187522817472 0 0 0
1140 2 1.230500000000001 27.706750743275496 2.6245187522817472 0 0 0
1144 2 2.4610000000000003 25.575462224561992 2.6245187522817472 0 0 0
1146 2 3.691499999999999 26.285891730799833 2.6245187522817472 0 0 0
1162 2 3.6914999999999996 27.706750743275496 2.6245187522817472 0 0 0
1166 2 4.922000000000001 25.575462224561992 2.6245187522817472 0 0 0
1192 2 6.152499999999999 27.706750743275496 2.6245187522817472 0 0 0
1128 2 0 28.417180249513333 2.6245187522817472 0 0 0
1142 2 2.4610000000000003 28.417180249513326 2.6245187522817472 0 0 0
1164 2 4.922000000000001 28.417180249513336 2.6245187522817472 0 0 0
193 2 1.2305000000000001 20.60245568089716 5.718952479011925 0 0 0
448 2 0 19.89202617465933 8.813386205746557 0 0 0
471 2 2.4610000000000003 19.89202617465933 8.813386205746557 0 0 0
240 2 3.6915000000000004 20.60245568089716 5.718952479011925 0 0 0
495 2 4.922000000000001 19.89202617465933 8.813386205746557 0 0 0
189 2 0 22.733744199610655 5.718952479011925 0 0 0
191 2 0 21.312885187135 5.718952479011925 0 0 0
234 2 1.2304999999999993 23.4441737058485 5.718952479011925 0 0 0
236 2 2.4610000000000003 22.733744199610655 5.718952479011925 0 0 0
238 2 2.4610000000000003 21.312885187134995 5.718952479011925 0 0 0
467 2 0 24.154603212086325 8.813386205746557 0 0 0
468 2 0 21.312885187135 8.813386205746557 0 0 0
469 2 1.2304999999999993 22.023314693372832 8.813386205746557 0 0 0
490 2 1.2304999999999993 23.4441737058485 8.813386205746557 0 0 0
491 2 2.4610000000000003 24.154603212086325 8.813386205746557 0 0 0
492 2 2.4610000000000003 21.312885187134995 8.813386205746557 0 0 0
281 2 3.6915000000000004 23.4441737058485 5.718952479011925 0 0 0
283 2 4.922000000000001 22.733744199610655 5.718952479011925 0 0 0
285 2 4.922000000000001 21.312885187134995 5.718952479011925 0 0 0
493 2 3.6914999999999996 22.023314693372832 8.813386205746557 0 0 0
514 2 3.6915000000000004 23.4441737058485 8.813386205746557 0 0 0
515 2 4.922000000000001 24.154603212086325 8.813386205746557 0 0 0
516 2 4.922000000000001 21.312885187134995 8.813386205746557 0 0 0
517 2 6.152499999999999 22.023314693372832 8.813386205746557 0 0 0
1129 2 0 26.99632123703766 5.718952479011925 0 0 0
1131 2 0 25.575462224561992 5.718952479011925 0 0 0
1133 2 1.2305000000000001 24.865032718324155 5.718952479011925 0 0 0
1141 2 1.230500000000001 27.706750743275496 5.718952479011925 0 0 0
1143 2 2.4610000000000003 26.99632123703766 5.718952479011925 0 0 0
1145 2 2.4610000000000003 25.575462224561992 5.718952479011925 0 0 0
1444 2 0 25.575462224561992 8.813386205746557 0 0 0
1445 2 1.2305000000000001 26.285891730799833 8.813386205746557 0 0 0
1449 2 1.230500000000001 27.706750743275496 8.813386205746557 0 0 0
1451 2 2.4610000000000003 25.575462224561992 8.813386205746557 0 0 0
1147 2 3.6914999999999996 24.865032718324166 5.718952479011925 0 0 0
1163 2 3.6914999999999996 27.706750743275496 5.718952479011925 0 0 0
1165 2 4.922000000000001 26.99632123703766 5.718952479011925 0 0 0
1167 2 4.922000000000001 25.575462224561992 5.718952479011925 0 0 0
1169 2 6.152499999999999 24.865032718324155 5.718952479011925 0 0 0
1193 2 6.152499999999999 27.706750743275496 5.718952479011925 0 0 0
1452 2 3.691499999999999 26.285891730799833 8.813386205746557 0 0 0
1460 2 3.6914999999999996 27.706750743275496 8.813386205746557 0 0 0
1462 2 4.922000000000001 25.575462224561992 8.813386205746557 0 0 0
1475 2 6.152499999999999 27.706750743275496 8.813386205746557 0 0 0
1139 2 1.2304999999999993 29.127609755751163 5.718952479011925 0 0 0
1443 2 0 28.417180249513333 8.813386205746557 0 0 0
1450 2 2.4610000000000003 28.417180249513326 8.813386205746557 0 0 0
1161 2 3.691499999999999 29.127609755751152 5.718952479011925 0 0 0
1191 2 6.152499999999998 29.127609755751152 5.718952479011925 0 0 0
1461 2 4.922000000000001 28.417180249513336 8.813386205746557 0 0 0
39 1 4.960593089822512 21.471795906289188 11.3630251427007 1 0 0
820 1 2.484030801292903 20.20595445066896 11.449248993298099 1 2 -1
4050 1 4.797100165584089 24.208987140455637 11.01559911380228 0 2 0
2975 1 2.3540032419501857 28.673883237863272 11.21363434707609 -1 -1 -1
2982 1 2.4496745398717517 25.927587446574286 11.442494412300231 -2 2 0
1794 1 0.1308107749426422 24.516572882014493 11.200725596230034 -1 0 -1
2989 1 2.899442849668093 20.425276023150502 14.997256754937297 -1 0 0
2882 1 2.594525845102418 20.44964926126818 17.74446220536563 -1 -1 0
990 1 2.5827255007111365 25.640332618043416 14.359704639983592 4 3 -1
1006 1 0.5162803569537765 24.37050643238401 17.77598583240485 1 1 0
1826 1 2.6449971478245655 25.62948343331643 24.870175149269997 4 -1 -1
3955 1 5.0514510542047475 24.22077785707988 15.059463098402704 -3 -1 -1
938 1 0.40744846842690885 21.460794959689334 14.184182877633361 -1 1 0
3022 1 0.4332112172264274 24.0641565033857 15.0744938745039 1 -1 0
1836 1 2.810436488828574 28.252965715463386 15.049749155058722 0 4 0
1009 1 2.796873976850349 28.565648049870944 17.776358929694688 0 3 -1
3958 1 5.026152831023744 24.3516453999866 17.88624248826872 1 1 0
2994 1 2.7006562015645863 22.966478536920437 18.616012744223518 -4 1 0
3954 1 2.5801892729364875 22.982852404022342 21.541721946276013 4 0 -1
904 1 0.16480042776328094 21.722217637802483 22.52542867473929 0 -3 -1
2858 1 4.939912700591397 26.94874605578533 21.86425337332306 -2 -1 0
25 1 5.223251085014692 26.91823624742349 18.954561694142996 1 0 -1
2095 1 0.5899135932128476 27.064140244485632 21.648179616481293 1 -3 -1
2921 1 0.5045733322029589 27.23756950930645 18.669015934419633 3 -1 -1
1958 1 2.73064155238775 25.531369619583486 22.221258722763558 -1 -2 0
3108 1 5.049930441791759 21.536471464948946 22.536504572140082 1 4 0
928 1 5.220189603179132 21.589203516800623 14.43559949799139 0 -1 0
3011 1 2.909929161676851 23.04463439476561 25.988242734645958 -2 3 0
2032 1 5.076938654416972 21.448866044419994 25.25745188837373 -1 1 0
3900 1 4.918503137043206 26.700709537235078 25.700670862612036 2 2 0
1990 1 0.5028311824255866 27.078984082708086 25.946614956409924 0 -1 -1
3018 1 0.4929877882944653 21.807626018971924 25.373753831344615 1 0 0
1136 2 0 29.83803926198899 2.6245187522817472 0 0 0
1138 2 1.2304999999999993 30.54846876822683 2.6245187522817472 0 0 0
1158 2 2.4610000000000003 29.83803926198899 2.6245187522817472 0 0 0
1160 2 3.6915000000000004 30.54846876822683 2.6245187522817472 0 0 0
1188 2 4.922000000000001 29.83803926198899 2.6245187522817472 0 0 0
1134 2 0 32.67975728694033 2.6245187522817472 0 0 0
1150 2 0 34.100616299416 2.6245187522817472 0 0 0
1154 2 1.2304999999999993 31.969327780702493 2.6245187522817472 0 0 0
1156 2 2.4610000000000003 32.67975728694034 2.6245187522817472 0 0 0
1180 2 2.4609999999999985 34.100616299416 2.6245187522817472 0 0 0
1184 2 3.6914999999999996 31.969327780702493 2.6245187522817472 0 0 0
1186 2 4.9220000000000015 32.67975728694034 2.6245187522817472 0 0 0
1218 2 4.922000000000001 34.100616299416 2.6245187522817472 0 0 0
1152 2 1.230500000000001 34.81104580565383 2.6245187522817472 0 0 0
1182 2 3.691500000000002 34.81104580565383 2.6245187522817472 0 0 0
1148 2 0 36.94233432436734 2.6245187522817472 0 0 0
1172 2 0 38.36319333684299 2.6245187522817472 0 0 0
1176 2 1.2304999999999993 36.231904818129486 2.6245187522817472 0 0 0
1178 2 2.461000000000002 36.94233432436734 2.6245187522817472 0 0 0
1210 2 2.4610000000000003 38.36319333684299 2.6245187522817472 0 0 0
1214 2 3.6914999999999996 36.231904818129486 2.6245187522817472 0 0 0
1216 2 4.922000000000001 36.942334324367316 2.6245187522817472 0 0 0
1255 2 4.922000000000001 38.36319333684299 2.6245187522817472 0 0 0
1174 2 1.230500000000001 39.07362284308084 2.6245187522817472 0 0 0
1212 2 3.691500000000002 39.07362284308082 2.6245187522817472 0 0 0
1135 2 0 31.258898274464656 5.718952479011925 0 0 0
1137 2 0 29.83803926198899 5.718952479011925 0 0 0
1157 2 2.4609999999999985 31.258898274464656 5.718952479011925 0 0 0
1159 2 2.4610000000000003 29.83803926198899 5.718952479011925 0 0 0
1447 2 0 29.83803926198899 8.813386205746557 0 0 0
1448 2 1.2304999999999993 30.54846876822683 8.813386205746557 0 0 0
1458 2 2.4610000000000003 29.83803926198899 8.813386205746557 0 0 0
1187 2 4.921999999999998 31.258898274464656 5.718952479011925 0 0 0
1189 2 4.922000000000001 29.83803926198899 5.718952479011925 0 0 0
1459 2 3.6915000000000004 30.54846876822683 8.813386205746557 0 0 0
1473 2 4.922000000000001 29.83803926198899 8.813386205746557 0 0 0
1151 2 0 34.100616299416 5.718952479011925 0 0 0
1153 2 1.2304999999999993 33.39018679317816 5.718952479011925 0 0 0
1155 2 1.2304999999999993 31.969327780702493 5.718952479011925 0 0 0
1181 2 2.4609999999999985 34.100616299416 5.718952479011925 0 0 0
1446 2 0 32.67975728694033 8.813386205746557 0 0 0
1454 2 0 34.100616299416 8.813386205746557 0 0 0
1456 2 1.2304999999999993 31.969327780702493 8.813386205746557 0 0 0
1457 2 2.4610000000000003 32.67975728694034 8.813386205746557 0 0 0
1469 2 2.4609999999999985 34.100616299416 8.813386205746557 0 0 0
1183 2 3.691499999999998 33.39018679317816 5.718952479011925 0 0 0
1185 2 3.6914999999999996 31.969327780702493 5.718952479011925 0 0 0
1219 2 4.922000000000001 34.100616299416 5.718952479011925 0 0 0
1221 2 6.152499999999999 33.39018679317816 5.718952479011925 0 0 0
1471 2 3.6914999999999996 31.969327780702493 8.813386205746557 0 0 0
1472 2 4.9220000000000015 32.67975728694034 8.813386205746557 0 0 0
1488 2 4.922000000000001 34.100616299416 8.813386205746557 0 0 0
1455 2 1.230500000000001 34.81104580565383 8.813386205746557 0 0 0
1470 2 3.691500000000002 34.81104580565383 8.813386205746557 0 0 0
1149 2 0 35.52147531189165 5.718952479011925 0 0 0
1173 2 0 38.36319333684299 5.718952479011925 0 0 0
1175 2 1.2304999999999993 37.65276383060515 5.718952479011925 0 0 0
1177 2 1.2304999999999993 36.231904818129486 5.718952479011925 0 0 0
1179 2 2.4609999999999985 35.52147531189166 5.718952479011925 0 0 0
1211 2 2.4610000000000003 38.36319333684299 5.718952479011925 0 0 0
1453 2 0 36.94233432436734 8.813386205746557 0 0 0
1465 2 0 38.36319333684299 8.813386205746557 0 0 0
1467 2 1.2304999999999993 36.231904818129486 8.813386205746557 0 0 0
1468 2 2.461000000000002 36.94233432436734 8.813386205746557 0 0 0
1484 2 2.4610000000000003 38.36319333684299 8.813386205746557 0 0 0
1213 2 3.6914999999999996 37.65276383060515 5.718952479011925 0 0 0
1215 2 3.6914999999999996 36.231904818129486 5.718952479011925 0 0 0
1217 2 4.922000000000001 35.52147531189166 5.718952479011925 0 0 0
1256 2 4.922000000000001 38.36319333684299 5.718952479011925 0 0 0
1258 2 6.152499999999998 37.65276383060515 5.718952479011925 0 0 0
1486 2 3.6914999999999996 36.231904818129486 8.813386205746557 0 0 0
1487 2 4.922000000000001 36.942334324367316 8.813386205746557 0 0 0
1506 2 4.922000000000001 38.36319333684299 8.813386205746557 0 0 0
1466 2 1.230500000000001 39.07362284308084 8.813386205746557 0 0 0
1485 2 3.691500000000002 39.07362284308082 8.813386205746557 0 0 0
1837 1 2.321975270349688 34.13547819115576 11.230872577491958 2 -1 0
2080 1 5.255924754758418 38.50987693266136 11.389609947427726 3 -2 0
1862 1 4.65502392051405 32.67257536531038 11.713871985333794 2 0 -1
1906 1 2.7005288580078464 36.942807437315054 11.357592002039802 -2 0 0
3821 1 4.669290008972782 29.795126285445416 11.700552659238443 1 -1 -1
1809 1 0.4449006858354387 38.35642947284693 11.845595169154326 4 -2 -1
2821 1 0.07408499185100838 32.87104770660298 11.513714953552272 0 3 -1
1030 1 4.815922832259482 32.492288417081014 14.910720681125985 2 3 -1
2968 1 0.5925400061148943 29.62057035231334 25.114144517281474 -2 0 0
929 1 4.654909278135082 32.55641808308491 17.79977680826238 1 -2 0
3101 1 0.660046375115339 29.904126055426723 14.24869219611154 0 1 0
1924 1 0.20444274940250942 37.80604345308843 22.339678345853073 3 -2 1
937 1 0.5470977416470447 35.19099747906995 21.3156074722287 1 1 0
2946 1 0.48850807236341476 35.092123659601796 25.67366667305747 1 1 -1
3952 1 2.903468327659317 37.16630573729167 15.157145643617804 2 -4 -1
2876 1 0.2831438885482726 32.489604233653196 17.470659159314316 -1 -3 0
43 1 2.529553792714365 36.59908881604174 17.881496930362253 1 3 1
1065 1 5.234275367425498 38.479679300981616 14.212820553629744 -1 4 0
2933 1 2.60015285628571 31.13185383561303 18.561808451295065 0 4 0
3858 1 2.4096369681861765 31.0805536292767 21.250381791575492 0 -2 0
949 1 2.497328886065398 33.63170180467673 21.993213301733086 0 1 0
3918 1 2.6494460792141497 34.36178429596305 14.090263079315962 2 -2 -1
1798 1 4.797133152355407 29.78989955160579 14.553257079312283 -1 -3 0
2068 1 4.605374232501978 35.1653341567282 19.18410934819839 -1 1 0
3914 1 4.726303622051684 35.29130232484229 21.97023814859238 2 2 -1
1036 1 0.2505410589952888 35.130728645965846 18.74332213661772 2 -1 -1
1085 1 0.44969102597824384 38.5184992703055 14.606506890920159 0 -1 1
1069 1 0.30388587735446243 32.811779683961156 14.680165345466794 -2 2 -1
3846 1 4.718695634666876 35.12570084794689 25.204012141767294 -1 -4 1
58 1 4.933282291700668 37.96243475272405 22.02475891006189 0 1 -1
56 1 0.3315109767667521 37.739305345213424 25.10907392601073 -1 -2 0
82 1 2.473642583427022 33.62637229956596 24.88416662233312 0 1 0
2844 1 2.717120985564234 31.245259010915014 25.95664192985216 -1 -1 0
2892 1 4.564751585528099 37.98754693273832 24.954042359370888 -5 3 -1
3817 1 0.3505395992441261 29.78792499156831 22.26540271945216 4 0 -1
801 1 4.459261185666216 29.710180484779528 22.674664776741793 2 -2 0
2078 1 4.892874729298378 29.497699421247436 25.594772281140408 2 1 0
1170 2 0 41.20491136179432 2.6245187522817472 0 0 0
1206 2 1.230500000000001 40.494481855556494 2.6245187522817472 0 0 0
1208 2 2.4610000000000003 41.20491136179432 2.6245187522817472 0 0 0
1251 2 3.6914999999999996 40.494481855556494 2.6245187522817472 0 0 0
1253 2 4.922000000000003 41.20491136179432 2.6245187522817472 0 0 0
1296 2 6.152499999999998 40.494481855556494 2.6245187522817472 0 0 0
1202 2 0 42.62577037427 2.6245187522817472 0 0 0
1204 2 1.2304999999999993 43.33619988050783 2.6245187522817472 0 0 0
1247 2 2.4610000000000003 42.62577037427 2.6245187522817472 0 0 0
1249 2 3.691500000000002 43.33619988050783 2.6245187522817472 0 0 0
1292 2 4.922000000000001 42.62577037426999 2.6245187522817472 0 0 0
1200 2 0 45.46748839922133 2.6245187522817472 0 0 0
1243 2 1.2304999999999993 44.757058892983494 2.6245187522817472 0 0 0
1245 2 2.4610000000000003 45.46748839922133 2.6245187522817472 0 0 0
1288 2 3.6914999999999996 44.757058892983494 2.6245187522817472 0 0 0
1290 2 4.922000000000001 45.46748839922133 2.6245187522817472 0 0 0
1239 2 0 46.888347411697 2.6245187522817472 0 0 0