LAMMPS data file via write_data, version 16 Mar 2018, timestep = 6000000

5021 atoms
2 atom types

0.0000000000000000e+00 4.9219999999999999e+01 xlo xhi
0.0000000000000000e+00 4.9019635930410494e+01 ylo yhi
5.7462212821230807e-01 3.9425377871793231e+01 zlo zhi

Masses

1 18.015
2 12.01

Atoms # atomic

201 2 0.0000000000000000e+00 2.8417180249513345e+00 2.3398849771556947e+00 0 0 0
203 2 0.0000000000000000e+00 0.0000000000000000e+00 2.3398849771556947e+00 0 0 0
205 2 1.2305000000000001e+00 7.1042950623783474e-01 2.3398849771556947e+00 0 0 0
212 2 1.2305000000000001e+00 2.1312885187134998e+00 2.3398849771556947e+00 0 0 0
214 2 2.4610000000000003e+00 2.8417180249513345e+00 2.3398849771556947e+00 0 0 0
216 2 2.4610000000000003e+00 0.0000000000000000e+00 2.3398849771556947e+00 0 0 0
218 2 3.6915000000000004e+00 7.1042950623783474e-01 2.3398849771556947e+00 0 0 0
233 2 3.6914999999999996e+00 2.1312885187134998e+00 2.3398849771556947e+00 0 0 0
235 2 4.9220000000000006e+00 2.8417180249513332e+00 2.3398849771556947e+00 0 0 0
237 2 4.9220000000000006e+00 0.0000000000000000e+00 2.3398849771556947e+00 0 0 0
239 2 6.1524999999999999e+00 7.1042950623783407e-01 2.3398849771556947e+00 0 0 0
262 2 6.1524999999999999e+00 2.1312885187134989e+00 2.3398849771556947e+00 0 0 0
264 2 7.3829999999999991e+00 2.8417180249513345e+00 2.3398849771556947e+00 0 0 0
266 2 7.3829999999999991e+00 0.0000000000000000e+00 2.3398849771556947e+00 0 0 0
268 2 8.6134999999999984e+00 7.1042950623783407e-01 2.3398849771556947e+00 0 0 0
299 2 8.6134999999999984e+00 2.1312885187135002e+00 2.3398849771556947e+00 0 0 0
208 2 0.0000000000000000e+00 4.2625770374269996e+00 2.3398849771556947e+00 0 0 0
210 2 1.2305000000000001e+00 4.9730065436648339e+00 2.3398849771556947e+00 0 0 0
225 2 1.2305000000000001e+00 6.3938655561404980e+00 2.3398849771556947e+00 0 0 0
229 2 2.4610000000000003e+00 4.2625770374269996e+00 2.3398849771556947e+00 0 0 0
231 2 3.6914999999999996e+00 4.9730065436648339e+00 2.3398849771556947e+00 0 0 0
254 2 3.6914999999999996e+00 6.3938655561404980e+00 2.3398849771556947e+00 0 0 0
206 2 0.0000000000000000e+00 7.1042950623783341e+00 2.3398849771556947e+00 0 0 0
227 2 2.4610000000000003e+00 7.1042950623783341e+00 2.3398849771556947e+00 0 0 0
258 2 4.9220000000000006e+00 4.2625770374269978e+00 2.3398849771556947e+00 0 0 0
260 2 6.1524999999999999e+00 4.9730065436648339e+00 2.3398849771556947e+00 0 0 0
291 2 6.1524999999999999e+00 6.3938655561404980e+00 2.3398849771556947e+00 0 0 0
295 2 7.3829999999999991e+00 4.2625770374269996e+00 2.3398849771556947e+00 0 0 0
297 2 8.6135000000000002e+00 4.9730065436648339e+00 2.3398849771556947e+00 0 0 0
336 2 8.6135000000000002e+00 6.3938655561404980e+00 2.3398849771556947e+00 0 0 0
256 2 4.9220000000000006e+00 7.1042950623783341e+00 2.3398849771556947e+00 0 0 0
293 2 7.3830000000000009e+00 7.1042950623783341e+00 2.3398849771556947e+00 0 0 0
221 2 0.0000000000000000e+00 8.5251540748539991e+00 2.3398849771556947e+00 0 0 0
223 2 1.2305000000000001e+00 9.2355835810918343e+00 2.3398849771556947e+00 0 0 0
250 2 2.4610000000000003e+00 8.5251540748539991e+00 2.3398849771556947e+00 0 0 0
252 2 3.6915000000000004e+00 9.2355835810918343e+00 2.3398849771556947e+00 0 0 0
219 2 0.0000000000000000e+00 1.1366872099805333e+01 2.3398849771556947e+00 0 0 0
246 2 1.2305000000000001e+00 1.0656442593567498e+01 2.3398849771556947e+00 0 0 0
248 2 2.4610000000000003e+00 1.1366872099805333e+01 2.3398849771556947e+00 0 0 0
283 2 3.6914999999999996e+00 1.0656442593567499e+01 2.3398849771556947e+00 0 0 0
287 2 4.9220000000000006e+00 8.5251540748539991e+00 2.3398849771556947e+00 0 0 0
289 2 6.1524999999999999e+00 9.2355835810918343e+00 2.3398849771556947e+00 0 0 0
332 2 7.3830000000000009e+00 8.5251540748539991e+00 2.3398849771556947e+00 0 0 0
334 2 8.6134999999999984e+00 9.2355835810918343e+00 2.3398849771556947e+00 0 0 0
285 2 4.9220000000000006e+00 1.1366872099805333e+01 2.3398849771556947e+00 0 0 0
328 2 6.1524999999999999e+00 1.0656442593567499e+01 2.3398849771556947e+00 0 0 0
330 2 7.3829999999999991e+00 1.1366872099805333e+01 2.3398849771556947e+00 0 0 0
375 2 8.6134999999999984e+00 1.0656442593567498e+01 2.3398849771556947e+00 0 0 0
202 2 0.0000000000000000e+00 1.4208590124756650e+00 5.5725447919585189e+00 0 0 0
204 2 0.0000000000000000e+00 0.0000000000000000e+00 5.5725447919585189e+00 0 0 0
213 2 1.2305000000000001e+00 2.1312885187134998e+00 5.5725447919585189e+00 0 0 0
215 2 2.4610000000000003e+00 1.4208590124756650e+00 5.5725447919585189e+00 0 0 0
217 2 2.4610000000000003e+00 0.0000000000000000e+00 5.5725447919585189e+00 0 0 0
234 2 3.6914999999999996e+00 2.1312885187134998e+00 5.5725447919585189e+00 0 0 0
211 2 1.2305000000000001e+00 3.5521475311891644e+00 5.5725447919585189e+00 0 0 0
232 2 3.6914999999999996e+00 3.5521475311891644e+00 5.5725447919585189e+00 0 0 0
530 2 0.0000000000000000e+00 2.8417180249513345e+00 8.8052046067637963e+00 0 0 0
531 2 0.0000000000000000e+00 0.0000000000000000e+00 8.8052046067637963e+00 0 0 0
532 2 1.2305000000000001e+00 7.1042950623783474e-01 8.8052046067637963e+00 0 0 0
536 2 1.2305000000000001e+00 2.1312885187134998e+00 8.8052046067637963e+00 0 0 0
537 2 2.4610000000000003e+00 2.8417180249513345e+00 8.8052046067637963e+00 0 0 0
538 2 2.4610000000000003e+00 0.0000000000000000e+00 8.8052046067637963e+00 0 0 0
539 2 3.6915000000000004e+00 7.1042950623783474e-01 8.8052046067637963e+00 0 0 0
547 2 3.6914999999999996e+00 2.1312885187134998e+00 8.8052046067637963e+00 0 0 0
236 2 4.9220000000000006e+00 1.4208590124756650e+00 5.5725447919585189e+00 0 0 0
238 2 4.9220000000000006e+00 0.0000000000000000e+00 5.5725447919585189e+00 0 0 0
263 2 6.1524999999999999e+00 2.1312885187134989e+00 5.5725447919585189e+00 0 0 0
265 2 7.3829999999999991e+00 1.4208590124756659e+00 5.5725447919585189e+00 0 0 0
267 2 7.3829999999999991e+00 0.0000000000000000e+00 5.5725447919585189e+00 0 0 0
300 2 8.6134999999999984e+00 2.1312885187135002e+00 5.5725447919585189e+00 0 0 0
261 2 6.1524999999999999e+00 3.5521475311891644e+00 5.5725447919585189e+00 0 0 0
298 2 8.6134999999999984e+00 3.5521475311891657e+00 5.5725447919585189e+00 0 0 0
548 2 4.9220000000000006e+00 2.8417180249513332e+00 8.8052046067637963e+00 0 0 0
549 2 4.9220000000000006e+00 0.0000000000000000e+00 8.8052046067637963e+00 0 0 0
550 2 6.1524999999999999e+00 7.1042950623783407e-01 8.8052046067637963e+00 0 0 0
562 2 6.1524999999999999e+00 2.1312885187134989e+00 8.8052046067637963e+00 0 0 0
563 2 7.3829999999999991e+00 2.8417180249513345e+00 8.8052046067637963e+00 0 0 0
564 2 7.3829999999999991e+00 0.0000000000000000e+00 8.8052046067637963e+00 0 0 0
565 2 8.6134999999999984e+00 7.1042950623783407e-01 8.8052046067637963e+00 0 0 0
581 2 8.6134999999999984e+00 2.1312885187135002e+00 8.8052046067637963e+00 0 0 0
207 2 0.0000000000000000e+00 5.6834360499026637e+00 5.5725447919585189e+00 0 0 0
209 2 0.0000000000000000e+00 4.2625770374269996e+00 5.5725447919585189e+00 0 0 0
226 2 1.2305000000000001e+00 6.3938655561404980e+00 5.5725447919585189e+00 0 0 0
228 2 2.4610000000000003e+00 5.6834360499026637e+00 5.5725447919585189e+00 0 0 0
230 2 2.4610000000000003e+00 4.2625770374269996e+00 5.5725447919585189e+00 0 0 0
255 2 3.6914999999999996e+00 6.3938655561404980e+00 5.5725447919585189e+00 0 0 0
224 2 1.2305000000000001e+00 7.8147245686161639e+00 5.5725447919585189e+00 0 0 0
253 2 3.6914999999999996e+00 7.8147245686161639e+00 5.5725447919585189e+00 0 0 0
534 2 0.0000000000000000e+00 4.2625770374269996e+00 8.8052046067637963e+00 0 0 0
535 2 1.2305000000000001e+00 4.9730065436648339e+00 8.8052046067637963e+00 0 0 0
543 2 1.2305000000000001e+00 6.3938655561404980e+00 8.8052046067637963e+00 0 0 0
545 2 2.4610000000000003e+00 4.2625770374269996e+00 8.8052046067637963e+00 0 0 0
546 2 3.6914999999999996e+00 4.9730065436648339e+00 8.8052046067637963e+00 0 0 0
558 2 3.6914999999999996e+00 6.3938655561404980e+00 8.8052046067637963e+00 0 0 0
533 2 0.0000000000000000e+00 7.1042950623783341e+00 8.8052046067637963e+00 0 0 0
544 2 2.4610000000000003e+00 7.1042950623783341e+00 8.8052046067637963e+00 0 0 0
257 2 4.9220000000000006e+00 5.6834360499026637e+00 5.5725447919585189e+00 0 0 0
259 2 4.9220000000000006e+00 4.2625770374269978e+00 5.5725447919585189e+00 0 0 0
292 2 6.1524999999999999e+00 6.3938655561404980e+00 5.5725447919585189e+00 0 0 0
294 2 7.3829999999999991e+00 5.6834360499026637e+00 5.5725447919585189e+00 0 0 0
296 2 7.3829999999999991e+00 4.2625770374269996e+00 5.5725447919585189e+00 0 0 0
337 2 8.6135000000000002e+00 6.3938655561404980e+00 5.5725447919585189e+00 0 0 0
290 2 6.1524999999999999e+00 7.8147245686161639e+00 5.5725447919585189e+00 0 0 0
335 2 8.6135000000000002e+00 7.8147245686161639e+00 5.5725447919585189e+00 0 0 0
560 2 4.9220000000000006e+00 4.2625770374269978e+00 8.8052046067637963e+00 0 0 0
561 2 6.1524999999999999e+00 4.9730065436648339e+00 8.8052046067637963e+00 0 0 0
577 2 6.1524999999999999e+00 6.3938655561404980e+00 8.8052046067637963e+00 0 0 0
579 2 7.3829999999999991e+00 4.2625770374269996e+00 8.8052046067637963e+00 0 0 0
580 2 8.6135000000000002e+00 4.9730065436648339e+00 8.8052046067637963e+00 0 0 0
600 2 8.6135000000000002e+00 6.3938655561404980e+00 8.8052046067637963e+00 0 0 0
559 2 4.9220000000000006e+00 7.1042950623783341e+00 8.8052046067637963e+00 0 0 0
578 2 7.3830000000000009e+00 7.1042950623783341e+00 8.8052046067637963e+00 0 0 0
220 2 0.0000000000000000e+00 9.9460130873296642e+00 5.5725447919585189e+00 0 0 0
222 2 0.0000000000000000e+00 8.5251540748539991e+00 5.5725447919585189e+00 0 0 0
249 2 2.4610000000000003e+00 9.9460130873296642e+00 5.5725447919585189e+00 0 0 0
251 2 2.4610000000000003e+00 8.5251540748539991e+00 5.5725447919585189e+00 0 0 0
245 2 1.2305000000000001e+00 1.2077301606043163e+01 5.5725447919585189e+00 0 0 0
247 2 1.2305000000000001e+00 1.0656442593567498e+01 5.5725447919585189e+00 0 0 0
282 2 3.6914999999999996e+00 1.2077301606043163e+01 5.5725447919585189e+00 0 0 0
284 2 3.6914999999999996e+00 1.0656442593567499e+01 5.5725447919585189e+00 0 0 0
541 2 0.0000000000000000e+00 8.5251540748539991e+00 8.8052046067637963e+00 0 0 0
542 2 1.2305000000000001e+00 9.2355835810918343e+00 8.8052046067637963e+00 0 0 0
556 2 2.4610000000000003e+00 8.5251540748539991e+00 8.8052046067637963e+00 0 0 0
557 2 3.6915000000000004e+00 9.2355835810918343e+00 8.8052046067637963e+00 0 0 0
540 2 0.0000000000000000e+00 1.1366872099805333e+01 8.8052046067637963e+00 0 0 0
554 2 1.2305000000000001e+00 1.0656442593567498e+01 8.8052046067637963e+00 0 0 0
555 2 2.4610000000000003e+00 1.1366872099805333e+01 8.8052046067637963e+00 0 0 0
573 2 3.6914999999999996e+00 1.0656442593567499e+01 8.8052046067637963e+00 0 0 0
286 2 4.9220000000000006e+00 9.9460130873296642e+00 5.5725447919585189e+00 0 0 0
288 2 4.9220000000000006e+00 8.5251540748539991e+00 5.5725447919585189e+00 0 0 0
331 2 7.3830000000000009e+00 9.9460130873296642e+00 5.5725447919585189e+00 0 0 0
333 2 7.3830000000000009e+00 8.5251540748539991e+00 5.5725447919585189e+00 0 0 0
327 2 6.1524999999999999e+00 1.2077301606043163e+01 5.5725447919585189e+00 0 0 0
329 2 6.1524999999999999e+00 1.0656442593567499e+01 5.5725447919585189e+00 0 0 0
374 2 8.6135000000000002e+00 1.2077301606043163e+01 5.5725447919585189e+00 0 0 0
376 2 8.6134999999999984e+00 1.0656442593567498e+01 5.5725447919585189e+00 0 0 0
575 2 4.9220000000000006e+00 8.5251540748539991e+00 8.8052046067637963e+00 0 0 0
576 2 6.1524999999999999e+00 9.2355835810918343e+00 8.8052046067637963e+00 0 0 0
598 2 7.3830000000000009e+00 8.5251540748539991e+00 8.8052046067637963e+00 0 0 0
599 2 8.6134999999999984e+00 9.2355835810918343e+00 8.8052046067637963e+00 0 0 0
574 2 4.9220000000000006e+00 1.1366872099805333e+01 8.8052046067637963e+00 0 0 0
596 2 6.1524999999999999e+00 1.0656442593567499e+01 8.8052046067637963e+00 0 0 0
597 2 7.3829999999999991e+00 1.1366872099805333e+01 8.8052046067637963e+00 0 0 0
620 2 8.6134999999999984e+00 1.0656442593567498e+01 8.8052046067637963e+00 0 0 0
2543 1 5.2620315503989321e+00 3.7255807112295933e+00 1.1445047170585283e+01 0 1 0
4816 1 4.9008811028566122e+00 4.0578200106938329e+00 1.4226441920723605e+01 0 -1 -1
2698 1 1.5536071685277089e+00 1.1186823138989272e+01 1.8191806007045408e+01 1 -1 1
4977 1 4.9608666124555372e+00 1.1147175133249263e+00 1.4554131901475349e+01 0 1 0
2378 1 5.1514434774279190e+00 7.6029191554294651e-01 1.1558154142012668e+01 0 0 0
6 1 9.8023247799125670e+00 8.9215679291824053e+00 1.4801912650916252e+01 0 0 0
4690 1 1.6635240592582818e+00 8.5040608387977645e+00 1.7361863560411834e+01 1 0 -1
1120 1 2.7128806742636620e+00 5.2110661938178211e+00 1.1811627928089221e+01 1 0 0
2465 1 2.1215431405123528e+00 5.5263905165691174e+00 1.4473192435568210e+01 1 0 -1
2480 1 2.0816060234895053e+00 8.4540882886905617e+00 1.4883561443915255e+01 1 1 0
2547 1 2.4121168638144295e+00 8.0652997714444563e+00 1.1546975136186653e+01 0 0 1
3874 1 7.7527755687875803e+00 5.0354242199337600e+00 1.2075055785003842e+01 0 0 0
2492 1 7.4371238797422681e+00 7.6892885309411092e+00 1.4525976244379274e+01 0 1 0
4654 1 7.3322801583805086e+00 7.7722251469134980e+00 1.1636287184656473e+01 0 1 0
3684 1 7.5510185828459768e+00 4.6673822323352079e+00 1.4880371527152635e+01 1 0 0
4787 1 4.5421038156950848e+00 9.7642368384256795e+00 1.4316448676185304e+01 0 0 0
3960 1 4.0285085969174919e+00 7.2311415614597738e+00 1.8208877852526744e+01 2 0 0
3875 1 2.0351935047727615e-01 1.5713909823726255e+00 1.1435408640938837e+01 0 1 0
1397 1 6.2570203223156531e+00 1.1639470329375374e+01 1.7845848416326952e+01 0 1 0
3658 1 4.9316038671998363e+00 9.0290270201242677e+00 1.1695257202328463e+01 1 0 0
2144 1 6.0015318490275034e+00 9.1538814865210441e+00 1.6935208871901086e+01 1 0 0
3471 1 8.0506847624492170e+00 4.7020309737442139e+00 1.7636821475080975e+01 1 0 0
4656 1 8.0703783500285695e+00 7.5777490819151856e+00 1.8027918015094762e+01 1 1 -1
3745 1 1.7493879233281666e+00 3.4745022915130996e-01 1.7333935033196699e+01 1 1 -1
905 1 1.6697917759723417e+00 3.0434348291084401e+00 1.8194209471481198e+01 0 1 -1
109 1 5.9960530268185765e+00 2.9931170003999913e-01 1.7106325792831896e+01 0 1 0
4954 1 5.7390951255262799e+00 3.0204182226640910e+00 1.7924486679960456e+01 1 0 -1
3864 1 3.6103991096319294e+00 4.6638576173232256e+00 1.6956966264658895e+01 0 1 0
1030 1 2.0353537242274131e-01 4.4856294385214852e+00 1.1127640353938766e+01 0 0 -1
4797 1 5.0932119577601886e+00 1.1935609319438317e+01 1.1603702348253680e+01 1 0 -1
4856 1 1.2535628963206535e-01 9.8110951706753049e+00 1.1500254192746100e+01 1 1 0
3798 1 3.8448891569152561e+00 1.8225095040973212e+00 2.1757457514887623e+01 0 1 0
1046 1 1.3138322445300981e+00 3.1459630856908536e+00 2.0952225008900079e+01 0 0 0
2532 1 4.1150682592642056e+00 1.5506093762563293e+00 2.4383961087275665e+01 0 0 0
3913 1 5.9799332247301820e+00 2.8868641621883486e+00 2.0750261416884229e+01 1 1 0
139 1 8.2902186398767377e+00 1.9431176011622451e+00 2.2279190953655863e+01 -1 0 1
1191 1 8.5403825420413426e+00 1.8526656067820861e+00 2.4951216496459605e+01 1 0 0
1413 1 1.6304361144476214e+00 5.7000274623260925e+00 2.1862977456407638e+01 0 1 0
2493 1 3.9165420177187138e+00 7.1618701041451134e+00 2.0939207123860029e+01 -1 1 0
48 1 1.5398297541660970e+00 5.9121295728291692e+00 2.4714299154934668e+01 0 0 0
2179 1 6.2241081938418459e+00 5.4813647269450056e+00 2.1720755541372061e+01 0 0 -1
18 1 8.3275867524040059e+00 7.3806183864851720e+00 2.0941865385356859e+01 0 0 0
1135 1 5.9465260121428027e+00 5.7871807036462588e+00 2.4575730179053696e+01 -1 0 -1
2200 1 4.3346992099099779e+00 9.7850835961386977e+00 2.1708416714306228e+01 1 1 0
2366 1 1.6376865320807732e+00 1.1044398230140366e+01 2.0986450242485933e+01 1 1 -1
4697 1 4.2139921487775016e+00 1.0019569299002908e+01 2.4675400749514544e+01 1 0 0
3559 1 8.5831349263508034e+00 1.0254819570845520e+01 2.1627961021905957e+01 0 0 0
2423 1 6.2648579039295322e+00 1.1467914877013344e+01 2.0736975922898186e+01 1 0 -1
5020 1 8.4918765678768953e+00 1.0119377413091334e+01 2.4391988258572578e+01 0 0 0
3506 1 1.6325302396808785e+00 3.2770956827708404e+00 2.8849818529576478e+01 0 -1 -1
2462 1 6.0344969189645790e+00 1.1207675293183778e+01 2.9015364042403693e+01 1 0 0
3457 1 6.5081367584893650e+00 2.4742739686942627e-01 2.5772956729166864e+01 0 1 0
3954 1 6.2845797392593843e+00 8.6264898445216751e+00 2.5374904585639360e+01 0 0 1
2370 1 6.0456125156918690e+00 3.1374151252795057e+00 2.8754808941243603e+01 1 0 0
1385 1 3.8607590719227787e+00 4.5088479115912250e+00 2.8085887721826840e+01 0 1 0
1456 1 3.8105210037861816e+00 4.2713120486196221e+00 2.5566831974749665e+01 0 1 0
1022 1 4.2476840722475941e+00 7.2232257458509119e+00 2.8643960907724985e+01 1 -1 0
4725 1 1.7103773899384620e+00 8.3742694995787250e+00 2.8056788907890837e+01 1 1 -1
3726 1 8.4573619037158299e+00 4.9125403320457117e+00 2.5295284822118020e+01 0 1 0
4868 1 8.4167426642687904e+00 4.4847580280153467e+00 2.7914231857959273e+01 -1 1 0
1206 1 8.4728714922202304e+00 7.1247145061394246e+00 2.8975960786351823e+01 0 0 0
2356 1 1.4767892832204510e+00 1.1017622589401951e+01 2.9052896249468837e+01 0 -1 -1
3469 1 1.8604175505769223e+00 8.6100894162475026e+00 2.5401028734411767e+01 1 -1 0
2570 1 6.5877782721800022e+00 8.8524260191898954e+00 2.8056429350977606e+01 0 0 1
3911 1 6.2061516666535237e+00 4.6714464874724626e-01 2.8481014978840506e+01 1 -1 0
3929 1 1.7980765654858641e+00 4.3670673159708789e-01 2.7851492299577622e+01 2 1 0
3450 1 1.6881479641051051e+00 3.5650597990969513e-01 2.4806462899211315e+01 0 0 0
1108 1 1.6539326324592734e+00 3.2433914154982362e+00 3.1509151466080969e+01 2 0 -1
917 1 3.8767719679525032e+00 2.0731002833139782e+00 3.2628413834076170e+01 -1 0 0
2364 1 6.2847985472069325e+00 3.0193996449989040e+00 3.1511894502807909e+01 1 0 0
1138 1 8.4485496344583044e+00 1.8495380460174307e+00 3.2511389129178269e+01 1 0 0
3504 1 1.4173451421291887e+00 5.9106738238766381e+00 3.2673173059025942e+01 -1 -1 0
2525 1 3.7095211979807647e+00 7.1746514974226958e+00 3.1426921164091560e+01 0 -1 0
2644 1 6.0832493214267727e+00 5.8387637488293507e+00 3.2326314707488109e+01 1 0 0
3624 1 8.3409798696658282e+00 7.0003809655139104e+00 3.1715235410537318e+01 -1 0 -1
3486 1 4.0525434916200505e+00 9.7948492820583652e+00 3.2159629364170421e+01 -1 -1 0
3455 1 1.7507979741543105e+00 1.1141278489136052e+01 3.1794896367910958e+01 0 0 -1
3569 1 6.3300196415885841e+00 1.1265608189151493e+01 3.1732891472165385e+01 0 -1 0
1140 1 8.4722448373440251e+00 9.6029873261325829e+00 3.2595558221430480e+01 1 0 -1
3692 1 3.5834184988814837e+00 2.3141190517243482e+00 3.5340529035250384e+01 1 1 0
45 1 3.7324607251008417e+00 2.6260995633505915e+00 3.8696000054042031e+01 1 1 -1
3607 1 1.1643270972669897e+00 1.2614019846546791e+00 3.6042968165342856e+01 0 2 -1
4897 1 1.0310628810666986e+00 1.3358996988620415e+00 3.8751203840533407e+01 0 0 -1
3509 1 6.0899780305843292e+00 1.1711569039802825e+00 3.8484546558825642e+01 0 1 1
4643 1 8.7288448477975624e+00 2.1658651683129526e+00 3.5207681858017125e+01 0 1 0
2241 1 8.7038410972697680e+00 2.2334509221175098e+00 3.8083950034065310e+01 0 0 0
3432 1 3.7415801684958749e+00 5.5229289481144663e+00 3.8689595739594878e+01 2 1 0
40 1 3.4533700320159171e+00 5.0328264682125328e+00 3.5785609362790268e+01 0 1 0
4768 1 1.1456663825437130e+00 6.5518522495854485e+00 3.5242366114752002e+01 0 2 0
1078 1 1.2731403679538436e+00 6.6253572289782845e+00 3.8260560996813382e+01 1 0 0
2376 1 6.3566764108036535e+00 6.6272884229445399e+00 3.8396690036366522e+01 1 0 -1
1460 1 5.8892644212099867e+00 6.0942683882123978e+00 3.5050910140366284e+01 1 1 1
3737 1 8.5476013849007391e+00 5.1510921417998912e+00 3.5658027807529479e+01 0 -1 0
2654 1 8.5785913792780555e+00 5.1720200556746923e+00 3.8546117986455442e+01 1 1 0
3903 1 1.6288090196885039e+00 9.6974529353145957e+00 3.8538356399863247e+01 2 0 0
1223 1 1.3275269509400098e+00 9.1569791526066080e+00 3.5766695833831506e+01 0 0 0
2658 1 3.6827146375944242e+00 1.0262071631404458e+01 3.4659012229635820e+01 0 -2 0
1008 1 8.3088429902747691e+00 9.9755310690849335e+00 3.5210895180941378e+01 0 -1 -1
2553 1 5.8917836694290138e+00 8.6558845671911779e+00 3.6167779520873268e+01 1 1 0
3678 1 3.0553683982954225e+00 1.2161956359192954e+01 3.8530841273122505e+01 2 1 0
242 2 0.0000000000000000e+00 1.2787731112280996e+01 2.3398849771556947e+00 0 0 0
244 2 1.2305000000000001e+00 1.3498160618518829e+01 2.3398849771556947e+00 0 0 0
279 2 2.4610000000000003e+00 1.2787731112280996e+01 2.3398849771556947e+00 0 0 0
281 2 3.6915000000000004e+00 1.3498160618518829e+01 2.3398849771556947e+00 0 0 0
240 2 0.0000000000000000e+00 1.5629449137232333e+01 2.3398849771556947e+00 0 0 0
275 2 1.2305000000000001e+00 1.4919019630994494e+01 2.3398849771556947e+00 0 0 0
277 2 2.4610000000000003e+00 1.5629449137232328e+01 2.3398849771556947e+00 0 0 0
320 2 3.6915000000000004e+00 1.4919019630994494e+01 2.3398849771556947e+00 0 0 0
324 2 4.9220000000000006e+00 1.2787731112280996e+01 2.3398849771556947e+00 0 0 0
326 2 6.1524999999999990e+00 1.3498160618518829e+01 2.3398849771556947e+00 0 0 0
371 2 7.3829999999999991e+00 1.2787731112280996e+01 2.3398849771556947e+00 0 0 0
373 2 8.6135000000000002e+00 1.3498160618518835e+01 2.3398849771556947e+00 0 0 0
322 2 4.9220000000000006e+00 1.5629449137232333e+01 2.3398849771556947e+00 0 0 0
367 2 6.1524999999999990e+00 1.4919019630994494e+01 2.3398849771556947e+00 0 0 0
369 2 7.3829999999999991e+00 1.5629449137232333e+01 2.3398849771556947e+00 0 0 0
414 2 8.6135000000000002e+00 1.4919019630994494e+01 2.3398849771556947e+00 0 0 0
271 2 0.0000000000000000e+00 1.7050308149707998e+01 2.3398849771556947e+00 0 0 0
316 2 2.4610000000000003e+00 1.7050308149707998e+01 2.3398849771556947e+00 0 0 0
269 2 0.0000000000000000e+00 1.9892026174659328e+01 2.3398849771556947e+00 0 0 0
273 2 1.2305000000000001e+00 1.7760737655945832e+01 2.3398849771556947e+00 0 0 0
312 2 1.2305000000000001e+00 1.9181596668421495e+01 2.3398849771556947e+00 0 0 0
314 2 2.4610000000000003e+00 1.9892026174659328e+01 2.3398849771556947e+00 0 0 0
318 2 3.6914999999999996e+00 1.7760737655945832e+01 2.3398849771556947e+00 0 0 0
359 2 3.6914999999999996e+00 1.9181596668421495e+01 2.3398849771556947e+00 0 0 0
363 2 4.9220000000000006e+00 1.7050308149707998e+01 2.3398849771556947e+00 0 0 0
410 2 7.3830000000000009e+00 1.7050308149707998e+01 2.3398849771556947e+00 0 0 0
361 2 4.9220000000000006e+00 1.9892026174659328e+01 2.3398849771556947e+00 0 0 0
365 2 6.1524999999999999e+00 1.7760737655945832e+01 2.3398849771556947e+00 0 0 0
406 2 6.1524999999999999e+00 1.9181596668421495e+01 2.3398849771556947e+00 0 0 0
408 2 7.3829999999999991e+00 1.9892026174659328e+01 2.3398849771556947e+00 0 0 0
412 2 8.6134999999999984e+00 1.7760737655945832e+01 2.3398849771556947e+00 0 0 0
448 2 8.6135000000000002e+00 1.9181596668421495e+01 2.3398849771556947e+00 0 0 0
306 2 0.0000000000000000e+00 2.4154603212086325e+01 2.3398849771556947e+00 0 0 0
308 2 0.0000000000000000e+00 2.1312885187134999e+01 2.3398849771556947e+00 0 0 0
310 2 1.2304999999999993e+00 2.2023314693372832e+01 2.3398849771556947e+00 0 0 0
351 2 1.2304999999999993e+00 2.3444173705848499e+01 2.3398849771556947e+00 0 0 0
353 2 2.4610000000000003e+00 2.4154603212086325e+01 2.3398849771556947e+00 0 0 0
355 2 2.4610000000000003e+00 2.1312885187134995e+01 2.3398849771556947e+00 0 0 0
357 2 3.6914999999999996e+00 2.2023314693372832e+01 2.3398849771556947e+00 0 0 0
398 2 3.6915000000000004e+00 2.3444173705848499e+01 2.3398849771556947e+00 0 0 0
400 2 4.9220000000000006e+00 2.4154603212086325e+01 2.3398849771556947e+00 0 0 0
402 2 4.9220000000000006e+00 2.1312885187134995e+01 2.3398849771556947e+00 0 0 0
404 2 6.1524999999999990e+00 2.2023314693372832e+01 2.3398849771556947e+00 0 0 0
440 2 6.1524999999999999e+00 2.3444173705848499e+01 2.3398849771556947e+00 0 0 0
442 2 7.3830000000000009e+00 2.4154603212086336e+01 2.3398849771556947e+00 0 0 0
444 2 7.3829999999999991e+00 2.1312885187134999e+01 2.3398849771556947e+00 0 0 0
446 2 8.6135000000000002e+00 2.2023314693372832e+01 2.3398849771556947e+00 0 0 0
474 2 8.6134999999999984e+00 2.3444173705848499e+01 2.3398849771556947e+00 0 0 0
243 2 0.0000000000000000e+00 1.2787731112280996e+01 5.5725447919585189e+00 0 0 0
280 2 2.4610000000000003e+00 1.2787731112280996e+01 5.5725447919585189e+00 0 0 0
241 2 0.0000000000000000e+00 1.4208590124756663e+01 5.5725447919585189e+00 0 0 0
276 2 1.2305000000000001e+00 1.4919019630994494e+01 5.5725447919585189e+00 0 0 0
278 2 2.4610000000000003e+00 1.4208590124756663e+01 5.5725447919585189e+00 0 0 0
321 2 3.6915000000000004e+00 1.4919019630994494e+01 5.5725447919585189e+00 0 0 0
552 2 0.0000000000000000e+00 1.2787731112280996e+01 8.8052046067637963e+00 0 0 0
553 2 1.2305000000000001e+00 1.3498160618518829e+01 8.8052046067637963e+00 0 0 0
571 2 2.4610000000000003e+00 1.2787731112280996e+01 8.8052046067637963e+00 0 0 0
572 2 3.6915000000000004e+00 1.3498160618518829e+01 8.8052046067637963e+00 0 0 0
551 2 0.0000000000000000e+00 1.5629449137232333e+01 8.8052046067637963e+00 0 0 0
569 2 1.2305000000000001e+00 1.4919019630994494e+01 8.8052046067637963e+00 0 0 0
570 2 2.4610000000000003e+00 1.5629449137232328e+01 8.8052046067637963e+00 0 0 0
592 2 3.6915000000000004e+00 1.4919019630994494e+01 8.8052046067637963e+00 0 0 0
325 2 4.9220000000000006e+00 1.2787731112280996e+01 5.5725447919585189e+00 0 0 0
372 2 7.3829999999999991e+00 1.2787731112280996e+01 5.5725447919585189e+00 0 0 0
323 2 4.9220000000000006e+00 1.4208590124756663e+01 5.5725447919585189e+00 0 0 0
368 2 6.1524999999999990e+00 1.4919019630994494e+01 5.5725447919585189e+00 0 0 0
370 2 7.3830000000000009e+00 1.4208590124756663e+01 5.5725447919585189e+00 0 0 0
415 2 8.6135000000000002e+00 1.4919019630994494e+01 5.5725447919585189e+00 0 0 0
594 2 4.9220000000000006e+00 1.2787731112280996e+01 8.8052046067637963e+00 0 0 0
595 2 6.1524999999999990e+00 1.3498160618518829e+01 8.8052046067637963e+00 0 0 0
618 2 7.3829999999999991e+00 1.2787731112280996e+01 8.8052046067637963e+00 0 0 0
619 2 8.6135000000000002e+00 1.3498160618518835e+01 8.8052046067637963e+00 0 0 0
593 2 4.9220000000000006e+00 1.5629449137232333e+01 8.8052046067637963e+00 0 0 0
616 2 6.1524999999999990e+00 1.4919019630994494e+01 8.8052046067637963e+00 0 0 0
617 2 7.3829999999999991e+00 1.5629449137232333e+01 8.8052046067637963e+00 0 0 0
640 2 8.6135000000000002e+00 1.4919019630994494e+01 8.8052046067637963e+00 0 0 0
272 2 0.0000000000000000e+00 1.7050308149707998e+01 5.5725447919585189e+00 0 0 0
274 2 1.2305000000000001e+00 1.6339878643470165e+01 5.5725447919585189e+00 0 0 0
317 2 2.4610000000000003e+00 1.7050308149707998e+01 5.5725447919585189e+00 0 0 0
319 2 3.6915000000000004e+00 1.6339878643470165e+01 5.5725447919585189e+00 0 0 0
270 2 0.0000000000000000e+00 1.8471167162183658e+01 5.5725447919585189e+00 0 0 0
313 2 1.2305000000000001e+00 1.9181596668421495e+01 5.5725447919585189e+00 0 0 0
315 2 2.4610000000000003e+00 1.8471167162183658e+01 5.5725447919585189e+00 0 0 0
360 2 3.6914999999999996e+00 1.9181596668421495e+01 5.5725447919585189e+00 0 0 0
567 2 0.0000000000000000e+00 1.7050308149707998e+01 8.8052046067637963e+00 0 0 0
590 2 2.4610000000000003e+00 1.7050308149707998e+01 8.8052046067637963e+00 0 0 0
566 2 0.0000000000000000e+00 1.9892026174659328e+01 8.8052046067637963e+00 0 0 0
568 2 1.2305000000000001e+00 1.7760737655945832e+01 8.8052046067637963e+00 0 0 0
588 2 1.2305000000000001e+00 1.9181596668421495e+01 8.8052046067637963e+00 0 0 0
589 2 2.4610000000000003e+00 1.9892026174659328e+01 8.8052046067637963e+00 0 0 0
591 2 3.6914999999999996e+00 1.7760737655945832e+01 8.8052046067637963e+00 0 0 0
612 2 3.6914999999999996e+00 1.9181596668421495e+01 8.8052046067637963e+00 0 0 0
364 2 4.9220000000000006e+00 1.7050308149707998e+01 5.5725447919585189e+00 0 0 0
366 2 6.1524999999999999e+00 1.6339878643470165e+01 5.5725447919585189e+00 0 0 0
411 2 7.3830000000000009e+00 1.7050308149707998e+01 5.5725447919585189e+00 0 0 0
413 2 8.6134999999999984e+00 1.6339878643470165e+01 5.5725447919585189e+00 0 0 0
362 2 4.9220000000000006e+00 1.8471167162183658e+01 5.5725447919585189e+00 0 0 0
407 2 6.1524999999999999e+00 1.9181596668421495e+01 5.5725447919585189e+00 0 0 0
409 2 7.3829999999999991e+00 1.8471167162183658e+01 5.5725447919585189e+00 0 0 0
449 2 8.6135000000000002e+00 1.9181596668421495e+01 5.5725447919585189e+00 0 0 0
614 2 4.9220000000000006e+00 1.7050308149707998e+01 8.8052046067637963e+00 0 0 0
638 2 7.3830000000000009e+00 1.7050308149707998e+01 8.8052046067637963e+00 0 0 0
613 2 4.9220000000000006e+00 1.9892026174659328e+01 8.8052046067637963e+00 0 0 0
615 2 6.1524999999999999e+00 1.7760737655945832e+01 8.8052046067637963e+00 0 0 0
636 2 6.1524999999999999e+00 1.9181596668421495e+01 8.8052046067637963e+00 0 0 0
637 2 7.3829999999999991e+00 1.9892026174659328e+01 8.8052046067637963e+00 0 0 0
639 2 8.6134999999999984e+00 1.7760737655945832e+01 8.8052046067637963e+00 0 0 0
657 2 8.6135000000000002e+00 1.9181596668421495e+01 8.8052046067637963e+00 0 0 0
311 2 1.2305000000000001e+00 2.0602455680897162e+01 5.5725447919585189e+00 0 0 0
358 2 3.6915000000000004e+00 2.0602455680897162e+01 5.5725447919585189e+00 0 0 0
307 2 0.0000000000000000e+00 2.2733744199610655e+01 5.5725447919585189e+00 0 0 0
309 2 0.0000000000000000e+00 2.1312885187134999e+01 5.5725447919585189e+00 0 0 0
352 2 1.2304999999999993e+00 2.3444173705848499e+01 5.5725447919585189e+00 0 0 0
354 2 2.4610000000000003e+00 2.2733744199610655e+01 5.5725447919585189e+00 0 0 0
356 2 2.4610000000000003e+00 2.1312885187134995e+01 5.5725447919585189e+00 0 0 0
399 2 3.6915000000000004e+00 2.3444173705848499e+01 5.5725447919585189e+00 0 0 0
585 2 0.0000000000000000e+00 2.4154603212086325e+01 8.8052046067637963e+00 0 0 0
586 2 0.0000000000000000e+00 2.1312885187134999e+01 8.8052046067637963e+00 0 0 0
587 2 1.2304999999999993e+00 2.2023314693372832e+01 8.8052046067637963e+00 0 0 0
608 2 1.2304999999999993e+00 2.3444173705848499e+01 8.8052046067637963e+00 0 0 0