
# Create simulation box and atoms

read_data data.ML_graphite_m500atm_240K
  orthogonal box = (0 0 1.53529) to (49.22 49.0196 38.4647)
  5 by 4 by 4 MPI processor grid
  reading atoms ...
  5021 atoms
  reading velocities ...
  5021 velocities
group water type 1
2261 atoms in group water
group graphite type 2
2760 atoms in group graphite

# Define potential

pair_style sw
pair_coeff * * MLC_e.sw mW C


# Fix graphite atoms in place

fix 5 graphite setforce 0.0 0.0 0.0
velocity graphite set 0.0 0.0 0.0


# Equilibration of molecular water

# Add velocity/set timestep

velocity	    water create ${TEMP} ${SEED} rot yes dist gaussian
velocity	    water create 240 ${SEED} rot yes dist gaussian
velocity	    water create 240 18039 rot yes dist gaussian
timestep	    5.0

# Define output

compute			1 water msd
compute			3 water temp
thermo	    	50
thermo_style	custom step temp press vol etotal ke pe c_1[4] c_3

# Neighbor lists

neigh_modify    delay 0 every 1 check yes

# Set fixes

fix             1 water momentum 10 linear 1 1 1 rescale
fix             2 water nve
fix             3 water temp/csvr ${TEMP} ${TEMP} 500.0 ${SEED}
fix             3 water temp/csvr 240 ${TEMP} 500.0 ${SEED}
fix             3 water temp/csvr 240 240 500.0 ${SEED}
fix             3 water temp/csvr 240 240 500.0 18039
fix             4 water press/berendsen z ${PRES} ${PRES} 1000.0 modulus 20000
fix             4 water press/berendsen z -500 ${PRES} 1000.0 modulus 20000
fix             4 water press/berendsen z -500 -500 1000.0 modulus 20000

# Run 0.5 ns equilibration

dump		    1 all atom 2000 ${DIR}/eq.${NAME}-${TEMP}.dump
dump		    1 all atom 2000 run_19/eq.${NAME}-${TEMP}.dump
dump		    1 all atom 2000 run_19/eq.het_freeze_19-${TEMP}.dump
dump		    1 all atom 2000 run_19/eq.het_freeze_19-240.dump

reset_timestep  0

run	            100000
Neighbor list info ...
  update every 1 steps, delay 0 steps, check yes
  max neighbors/atom: 2000, page size: 100000
  master list distance cutoff = 6.67472
  ghost atom cutoff = 6.67472
  binsize = 3.33736, bins = 15 15 12
  1 neighbor lists, perpetual/occasional/extra = 1 0 0
  (1) pair sw, perpetual
      attributes: full, newton on
      pair build: full/bin/atomonly
      stencil: full/bin/3d
      bin: standard
Per MPI rank memory allocation (min/avg/max) = 4.069 | 4.188 | 4.476 Mbytes
Step Temp Press Volume TotEng KinEng PotEng c_1[4] c_3 
       0    108.04781   -816.58172    89101.337   -21796.007    1616.7914   -23412.799            0          240 
      50    107.18533   -835.47204    89089.213   -21828.764    1603.8856    -23432.65   0.50011092    238.08424 
     100    108.55487   -728.04745    89042.914   -21833.645    1624.3788   -23458.024   0.80704317     241.1263 
     150    108.79449   -489.27817    89101.731   -21812.237    1627.9645   -23440.201    1.0131255    241.65856 
     200    108.36883   -551.07044     89086.57   -21761.486    1621.5951   -23383.081    1.2464609    240.71308 
     250    110.95181   -764.88138    89165.715   -21768.324    1660.2458    -23428.57    1.4068895    246.45047 
     300     109.2885   -971.73374    89249.448   -21791.636    1635.3566   -23426.992    1.5964752    242.75587 
     350    108.51301   -859.32232    89242.866   -21820.712    1623.7525   -23444.464    1.7539066    241.03333 
     400      108.824   -664.40547    89279.623   -21860.898     1628.406   -23489.304    1.9089926     241.7241 
     450    104.79264    -705.9511    89319.807   -21880.789    1568.0821   -23448.871     2.078821    232.76949 
     500    105.79734   -622.95701     89319.35   -21870.582     1583.116   -23453.698    2.2937118    235.00116 
     550    106.58872   -946.42285    89321.445   -21821.141    1594.9581   -23416.099    2.5508858    236.75902 
     600    109.30323   -861.17722    89318.475   -21827.255    1635.5771   -23462.833    2.6455317    242.78859 
     650     107.0161   -799.62417    89356.483   -21827.649    1601.3533   -23429.002    2.7849202    237.70834 
     700    107.39834   -1334.2438     89305.18   -21808.389    1607.0729   -23415.462    2.9781991    238.55737 
     750    109.12994    -755.3705    89246.825    -21806.07    1632.9841   -23439.054    3.2353089    242.40368 
     800    108.02758   -716.10411    89289.385   -21772.942    1616.4887    -23389.43    3.4383579    239.95508 
     850    109.20195   -1152.1671    89212.115    -21759.91    1634.0616   -23393.971    3.5447684    242.56362 
     900    108.23085   -1043.2704     89211.69    -21777.38    1619.5304   -23396.911    3.6411316    240.40659 
     950    110.30557   -1091.4568    89095.693   -21736.732    1650.5758   -23387.308    3.7937358    245.01504 
    1000    110.39256   -920.60378    88996.339   -21733.984    1651.8774   -23385.861    4.0345781    245.20825 
    1050    110.52938    -641.4121    88972.145   -21750.258    1653.9247   -23404.182    4.2314898    245.51215 
    1100    106.77491   -937.97865    88985.624   -21781.416    1597.7442    -23379.16    4.4178506     237.1726 
    1150    108.76704   -676.03009    89048.202   -21781.046    1627.5536     -23408.6    4.6758775    241.59757 
    1200    108.06218   -333.72625    89129.945   -21775.689    1617.0064   -23392.695    4.9376374    240.03193 
    1250    108.67615   -498.57017      89203.8   -21772.275    1626.1936   -23398.469     5.197481    241.39569 
    1300    107.58317    -555.8289    89293.197   -21783.965    1609.8387   -23393.804      5.33665    238.96793 
    1350    107.93425   -681.38539    89252.172   -21780.551    1615.0921   -23395.643    5.6007941    239.74776 
    1400    109.69555   -791.21211    89174.059   -21770.276    1641.4476   -23411.723     5.905483    243.66002 
    1450     107.2578   -575.30745    89205.432   -21725.418    1604.9699   -23330.388    6.0730315     238.2452 
    1500    111.61708   -376.42015    89223.004   -21706.821    1670.2008   -23377.022     6.163389    247.92821 
    1550    108.98228   -655.72513    89247.197   -21730.288    1630.7745   -23361.062    6.3146944    242.07569 
    1600    110.22158   -687.91973    89214.698   -21686.028    1649.3189   -23335.347    6.4463845    244.82846 
    1650    109.08167   -660.41996    89189.725   -21688.526    1632.2617   -23320.787    6.6376872    242.29645 
    1700    106.31075   -666.44405    89270.398   -21733.872    1590.7986   -23324.671    6.8626129    236.14158 
    1750    110.04715   -896.83979    89314.684   -21748.864    1646.7089   -23395.573    7.0493325    244.44102 
    1800    109.66381   -604.58159    89287.385   -21760.514    1640.9727   -23401.487    7.2322177    243.58952 
    1850    107.88953    -803.3807    89283.284   -21793.307     1614.423    -23407.73    7.5122221    239.64844 
    1900    108.45068   -522.09669    89287.104   -21781.647    1622.8198   -23404.467    7.7460444    240.89487 
    1950    110.20956   -873.24491    89299.485   -21791.499    1649.1391   -23440.638    7.9335565    244.80176 
    2000    105.79486   -607.35708     89289.54   -21817.102     1583.079   -23400.181    8.1528207    234.99567 
    2050    105.95129   -783.02845    89281.267   -21812.369    1585.4198   -23397.788    8.2585884    235.34313 
    2100    108.13723   -818.35982    89305.414   -21807.382    1618.1294   -23425.511    8.3403223    240.19862 
    2150    107.74256   -973.88164    89258.996   -21789.236    1612.2238   -23401.459    8.5141147    239.32198 
    2200    107.08794   -838.43428     89305.69   -21780.296    1602.4283   -23382.724    8.7729066    237.86791 
    2250    108.35458   -810.49012    89327.743   -21768.743    1621.3817   -23390.125    8.9026946    240.68141 
    2300    108.41824   -769.14417    89341.073   -21799.689    1622.3343   -23422.023     9.108017    240.82281 
    2350    105.64792   -701.63118    89288.506   -21778.219    1580.8802   -23359.099    9.2684166    234.66926 
    2400    108.52376   -765.27747    89341.933   -21792.039    1623.9134   -23415.953    9.4423959    241.05721 
    2450    108.51052   -994.75074    89377.145   -21793.547    1623.7153   -23417.263    9.6442334     241.0278 
    2500    108.92239   -809.68475    89391.207   -21801.625    1629.8783   -23431.503     9.788578    241.94266 
    2550    108.59422   -1018.3415    89461.336   -21771.315    1624.9677   -23396.283    9.9602794    241.21372 
    2600    108.56372   -579.93131    89446.427   -21791.247    1624.5113   -23415.758    10.149871    241.14597 
    2650    111.15498   -785.34663    89447.168   -21778.188     1663.286   -23441.474    10.321745    246.90176 
    2700    108.37569   -1088.7915    89375.157    -21824.99    1621.6976   -23446.688    10.452878     240.7283 
    2750    109.36618   -910.13047    89365.114   -21826.992     1636.519   -23463.511     10.57445    242.92842 
    2800    106.48731   -1063.0082    89332.866   -21792.242    1593.4407   -23385.683    10.648596    236.53377 
    2850      111.768   -806.61596    89327.592   -21775.611    1672.4591    -23448.07    10.796218    248.26343 
    2900    108.79402   -756.62224    89345.514   -21814.136    1627.9575   -23442.094    10.908585    241.65752 
    2950    109.98448   -1253.7301    89333.504   -21838.667    1645.7711   -23484.438    10.972507    244.30181 
    3000    105.38953    -632.8767    89357.367   -21854.003    1577.0138   -23431.017    11.117078    234.09534 
    3050    107.08498   -840.95896    89413.864   -21867.904     1602.384   -23470.288    11.278986    237.86133 
    3100    106.89978    -349.3052    89431.939   -21845.961    1599.6126   -23445.574    11.461552    237.44995 
    3150    106.56095     -577.811    89549.824   -21850.037    1594.5425    -23444.58    11.618634    236.69733 
    3200    108.47032   -818.10117    89546.645   -21846.395    1623.1137   -23469.509    11.738571     240.9385 
    3250    108.30079   -807.62436    89639.972   -21814.086    1620.5769   -23434.663    11.828839    240.56194 
    3300    110.14739   -826.43906    89671.383   -21846.221    1648.2088    -23494.43    11.939451    244.66368 
    3350    105.96701   -914.86836    89645.527   -21873.526     1585.655   -23459.181     12.13155    235.37805 
    3400    104.63154   -880.26852    89683.298   -21873.246    1565.6715   -23438.917    12.321109    232.41165 
    3450    109.14077   -723.76417    89705.546   -21866.258    1633.1461   -23499.404    12.330132    242.42774 
    3500    106.64206   -1013.7155    89717.348   -21857.973    1595.7562   -23453.729    12.343573    236.87749 
    3550    106.42353   -727.55437     89766.69   -21849.344    1592.4862   -23441.831    12.403985    236.39208 
    3600    107.19555   -859.25714    89803.189   -21844.871    1604.0384    -23448.91    12.403408    238.10692 
    3650    107.73745   -979.33898    89743.869    -21814.92    1612.1472   -23427.067    12.564627    239.31061 
    3700    109.39953    -720.3243    89651.129   -21827.256     1637.018   -23464.274    12.658324    243.00249 
    3750    110.13055   -898.92781    89656.021   -21843.675    1647.9568   -23491.632    12.951618    244.62627 
    3800      106.129    -931.5781     89682.78   -21834.391     1588.079    -23422.47    13.097835    235.73788 
    3850    108.82445   -983.88353    89619.643   -21798.967    1628.4128    -23427.38    13.119238    241.72512 
    3900    111.53713   -1166.0438    89512.387   -21835.971    1669.0044   -23504.975    13.375439    247.75062 
    3950    110.02199   -739.19777    89460.846   -21829.263    1646.3324   -23475.595    13.560041    244.38514 
    4000     108.6623   -687.62505     89508.98   -21821.085    1625.9865   -23447.071    13.749518    241.36494 
    4050    107.95668   -1010.0685    89562.312    -21830.34    1615.4277   -23445.768     13.90191    239.79758 
    4100    106.24999   -773.09659     89492.53   -21893.337    1589.8894   -23483.226    14.024855    236.00661 
    4150    108.18956   -788.23436     89444.43   -21871.125    1618.9125   -23490.037    14.209794    240.31486 
    4200    107.57494   -887.46239    89459.225   -21896.322    1609.7156   -23506.037    14.358448    238.94965 
    4250    103.94343   -875.88964    89452.491   -21905.733    1555.3748   -23461.107    14.572229    230.88319 
    4300    109.66232   -741.46231    89443.265   -21892.788    1640.9504   -23533.739    14.736042    243.58621 
    4350    106.19656   -828.92341    89444.413   -21891.862    1589.0898   -23480.952    14.867254    235.88792 
    4400    104.69896   -1138.5366    89425.762    -21895.08    1566.6803   -23461.761    14.895584     232.5614 
    4450    104.94818    -957.8755    89455.916   -21872.323    1570.4095   -23442.732    15.016222    233.11498 
    4500    105.74276   -789.93322    89481.188   -21877.464    1582.2994   -23459.763    15.212146    234.87993 
    4550    109.00356   -1031.4678    89449.577   -21818.023    1631.0929   -23449.116    15.458695    242.12296 
    4600    108.77752   -913.25697    89363.156    -21828.51    1627.7106    -23456.22    15.480597    241.62087 
    4650    107.99221   -899.64933    89370.774   -21806.638    1615.9595   -23422.597    15.652113    239.87651 
    4700    109.27656   -1161.1199    89412.045   -21786.585    1635.1781   -23421.763    15.874191    242.72936 
    4750     108.6357   -845.92643    89448.629   -21807.679    1625.5884   -23433.267    15.950374    241.30584 
    4800    107.36559    -779.1909     89510.59   -21841.745    1606.5828   -23448.328    16.144896    238.48462 
    4850    105.24337   -778.26708    89554.904   -21867.217    1574.8267   -23442.044     16.31065    233.77067 
    4900    103.95452   -764.80837    89545.342    -21908.35    1555.5408   -23463.891    16.460644    230.90783 
    4950    106.35782   -734.34262    89544.969   -21884.781    1591.5029   -23476.284    16.548406    236.24613 
    5000    105.75062   -893.74894    89525.471   -21868.254    1582.4171   -23450.671    16.660555     234.8974 
    5050    104.35459   -780.16838    89455.093   -21889.792    1561.5273   -23451.319    16.767253    231.79649 
    5100    107.10186    -505.2114    89540.413   -21850.502    1602.6365   -23453.138    16.873589    237.89883 
    5150     108.3968   -744.02071    89605.747   -21816.107    1622.0135   -23438.121    17.193923    240.77518 
    5200    108.91398   -783.70638    89578.417   -21809.819    1629.7524   -23439.571    17.391682    241.92397 
    5250     109.4509   -745.90515    89537.586   -21808.433    1637.7868   -23446.219    17.314039     243.1166 
    5300    110.06212   -663.00055    89611.423   -21789.618    1646.9329   -23436.551    17.471394    244.47428 
    5350    111.69755   -865.84501    89678.182   -21790.169    1671.4049   -23461.574    17.578716    248.10694 
    5400    111.68052    -666.9697    89676.419   -21806.046    1671.1501   -23477.196     17.82942    248.06912 
    5450    106.02999   -575.40134      89695.9   -21817.382    1586.5974    -23403.98    17.790602    235.51795 
    5500    108.61221   -985.13236    89648.322   -21834.955     1625.237   -23460.192    17.858026    241.25368 
    5550    107.41919   -805.51417    89616.974   -21830.598    1607.3849   -23437.983    17.995246    238.60369 
    5600    109.36577   -910.33324    89581.619    -21874.08     1636.513   -23510.593    18.087905    242.92752 
    5650    107.29494    -750.8807    89577.539   -21874.304    1605.5257    -23479.83    18.305312     238.3277 
    5700      108.662   -832.56826    89627.328   -21790.046     1625.982   -23416.028    18.575323    241.36427 
    5750    109.96185   -780.29531    89629.721   -21823.318    1645.4325    -23468.75    18.738976    244.25155 
    5800    106.80821   -883.52041    89621.219   -21826.381    1598.2424   -23424.623    18.943017    237.24655 
    5850    108.76962   -945.74457    89541.866   -21831.092    1627.5924   -23458.684    19.035802    241.60332 
    5900    106.27538   -984.22002    89496.813    -21867.34    1590.2693   -23457.609    19.153971    236.06301 
    5950    107.04691    -1095.102    89410.256   -21870.876    1601.8142    -23472.69    19.213295    237.77676 
    6000    104.37226   -1086.8604    89356.469   -21881.393    1561.7917   -23443.185    19.329586    231.83573 
    6050    105.49592   -980.91471    89292.472   -21854.155    1578.6057   -23432.761    19.466341    234.33164 
    6100    107.05318   -1046.3328    89248.353   -21862.279    1601.9081   -23464.187    19.573659    237.79069 
    6150    107.39759    -754.7479    89197.575   -21867.058    1607.0617    -23474.12    19.792768    238.55571 
    6200    109.92659   -831.68911    89178.075   -21866.196    1644.9048   -23511.101    19.950777    244.17322 
    6250    110.06249   -671.37003    89127.158    -21842.96    1646.9383   -23489.899    19.991303    244.47508 
    6300    107.87758   -668.86461    89122.676   -21861.046    1614.2442    -23475.29    20.049915    239.62189 
    6350    108.36371   -861.47508    89162.196   -21876.017    1621.5184   -23497.535    20.102565    240.70168 
    6400    106.16537    -831.8833     89129.18   -21823.978    1588.6232   -23412.601    20.368003    235.81866 
    6450    107.93269     -835.866    89122.854   -21799.789    1615.0688   -23414.857    20.583676    239.74429 
    6500    109.66511    -634.8894    89136.385   -21783.139    1640.9921   -23424.131    20.742324    243.59241 
    6550    107.47676   -592.74237    89155.612   -21830.958    1608.2463   -23439.204    20.689579    238.73155 
    6600     108.4945   -488.68069    89196.295   -21843.167    1623.4756   -23466.642    20.848848    240.99222 
    6650     108.8799   -821.49523    89207.665   -21796.912    1629.2425   -23426.155    20.943061    241.84827 
    6700    108.71656   -365.95355    89308.852   -21757.522    1626.7984    -23384.32    21.198637    241.48546 
    6750    109.32613   -712.33254    89324.097   -21750.609    1635.9197   -23386.529    21.270317    242.83945 
    6800    109.58591   -810.32841    89275.218   -21756.921     1639.807   -23396.728    21.467296     243.4165 
    6850    110.00748   -968.55065    89278.716   -21726.179    1646.1153   -23372.294     21.53266    244.35291 
    6900    108.93322   -553.27388    89270.478   -21736.671    1630.0404   -23366.712    21.761926    241.96671 
    6950    113.73066     -515.675    89371.279   -21722.779    1701.8277   -23424.606    22.077985    252.62297 
    7000    108.11503   -560.98005    89368.289   -21778.438    1617.7973   -23396.235     22.27335    240.14931 
    7050    107.30982   -666.14072    89305.934   -21824.164    1605.7483   -23429.912    22.390878    238.36074 
    7100    106.38942   -825.45339    89298.809   -21824.806    1591.9758   -23416.782     22.56353    236.31632 
    7150     106.8299   -662.06141    89260.549    -21832.78    1598.5669   -23431.347      22.6601    237.29472 
    7200     106.8984   -1164.3325    89269.087   -21855.891     1599.592   -23455.483    22.727934    237.44689 
    7250    106.75009   -663.04987     89251.32   -21857.804    1597.3728   -23455.177    22.833512    237.11747 
    7300    108.67729   -665.71796    89248.994   -21829.911    1626.2108   -23456.122    23.070266    241.39824 
    7350    107.59832   -701.25597    89207.536   -21860.098    1610.0653   -23470.163    23.082015    239.00157 
    7400    106.07854   -746.81389    89206.902   -21826.463    1587.3239   -23413.787    23.395101    235.62579 
    7450    106.17728   -760.94412    89198.111   -21787.305    1588.8014   -23376.106    23.556986    235.84511 
    7500     109.3328   -922.22359    89159.839   -21777.938    1636.0195   -23413.957    23.632059    242.85427 
    7550    107.99701   -910.65024    89087.761   -21790.282    1616.0312   -23406.313    23.814028    239.88716 
    7600    108.76663   -683.30183    89085.434   -21766.729    1627.5475   -23394.277    24.098962    241.59667 
    7650    107.14202   -796.62458    89026.061   -21804.903    1603.2375    -23408.14     24.39489    237.98803 
    7700    107.77875   -602.90477    88956.963   -21801.188    1612.7652   -23413.954    24.579882    239.40235 
    7750    109.62244   -844.22989    89015.919   -21793.159    1640.3537   -23433.513    24.758349    243.49764 
    7800    109.29753    -974.9815    89041.038   -21775.847    1635.4917   -23411.339     25.18314    242.77592 
    7850    108.70447   -957.43553    89009.753   -21790.585    1626.6174   -23417.202    25.655917     241.4586 
    7900    111.51606    -1173.387    89017.851   -21793.772    1668.6891   -23462.461    25.951445    247.70381 
    7950    106.77256   -905.96531    89029.879   -21822.299     1597.709   -23420.008    25.999887    237.16737 
    8000    109.37077   -938.82083    88977.932   -21810.455    1636.5877   -23447.043    26.203327     242.9386 
    8050    106.36754   -770.56528    88929.843   -21833.297    1591.6485   -23424.945    26.462275    236.26773 
    8100     109.2783   -865.64721    89009.228   -21790.457    1635.2041   -23425.661    26.434531    242.73322 
    8150    108.21691   -683.31215    88976.863    -21822.61    1619.3217   -23441.932    26.674687    240.37561 
    8200    107.92184   -1047.7312    89027.674    -21840.11    1614.9064   -23455.017    26.984676    239.72019 
    8250    106.88479   -918.36708    89019.759   -21831.385    1599.3883   -23430.774     27.27085    237.41665 
    8300    106.74535   -802.10172    89110.863   -21803.716    1597.3017   -23401.017    27.537208    237.10692 
    8350    109.66666   -819.67988    89178.587   -21745.311    1641.0153   -23386.327    27.656275    243.59585 
    8400    109.25692    -983.9001    89156.231   -21728.863    1634.8842   -23363.747    27.768511    242.68573 
    8450    107.84857    -1099.708    89053.843   -21813.493    1613.8101   -23427.303    27.948563    239.55745 
    8500    104.05897   -1065.7421     88980.16   -21858.138    1557.1038   -23415.242    28.251554    231.13984 
    8550    108.02891   -812.86108    88963.817   -21855.709    1616.5086   -23472.217    28.605746    239.95802 
    8600    109.45492   -847.82881    88947.468   -21800.912    1637.8469   -23438.759    28.973577    243.12553 
    8650    103.94324   -604.74375    88973.961   -21854.529     1555.372   -23409.901    29.289679    230.88278 
    8700    108.35536   -647.17466    89006.722   -21822.868    1621.3934   -23444.261    29.420026    240.68314 
    8750    107.64142   -902.95928    89018.411   -21808.294    1610.7103   -23419.004     29.51621    239.09731 
    8800    107.04377    -696.4498    88966.074    -21768.26    1601.7673   -23370.028    29.697176    237.76979 
    8850    106.88592   -792.12927    88988.362   -21754.094    1599.4053   -23353.499    29.865917    237.41918 
    8900     108.7887   -677.06445    88986.186   -21802.967    1627.8779   -23430.845    30.322685     241.6457 
    8950    111.57668    -1018.624    88929.236    -21756.29    1669.5962   -23425.887    30.671427    247.83846 
    9000    110.41352   -655.82512    88915.469   -21729.005    1652.1911   -23381.196    31.051235    245.25481 
    9050    108.34721   -344.78467     89004.83   -21730.365    1621.2714   -23351.637    31.557075    240.66503 
    9100    111.80295   -948.57341    89069.671   -21730.203     1672.982   -23403.185    32.002121    248.34106 
    9150    111.58335   -453.52794     89032.12   -21732.397     1669.696   -23402.093     32.22578    247.85328 
    9200    110.37195   -874.07105    89115.903    -21738.55    1651.5691   -23390.119    32.408672    245.16248 
    9250    110.25496   -1087.8088    89106.465   -21740.187    1649.8185   -23390.006    32.501433    244.90262 
    9300    110.05226   -668.76711    89105.729   -21781.891    1646.7853   -23428.677    32.458243    244.45236 
    9350     108.8206   -560.94751    89153.698   -21789.211    1628.3552   -23417.566    32.563467    241.71656 
    9400    108.62233   -842.71083     89225.53   -21827.787    1625.3883   -23453.175    32.566895    241.27615 
    9450    107.48328   -800.52662     89326.28   -21804.356     1608.344     -23412.7    32.760271    238.74605 
    9500    104.84209   -1008.5336      89356.6   -21834.293    1568.8221   -23403.115    32.880903    232.87934 
    9550    105.01989   -529.75969    89392.504   -21827.579    1571.4826   -23399.062    32.977707    233.27427 
    9600    108.92159   -739.24975    89427.197   -21779.106    1629.8663   -23408.972    33.269309    241.94088 
    9650    109.75349   -821.74746    89415.473   -21799.828    1642.3146   -23442.142    33.450653    243.78872 
    9700    114.04347   -829.67964    89437.764   -21742.997    1706.5085   -23449.506    33.586951     253.3178 
    9750    113.01328    -1047.963    89530.115   -21770.056     1691.093   -23461.149    33.907462     251.0295 
    9800    109.91046   -781.16597    89494.131   -21771.173    1644.6635   -23415.837     34.20269     244.1374 
    9850    106.04225   -887.09009    89500.768    -21825.83    1586.7808   -23412.611    34.521382    235.54517 
    9900    107.83834   -1021.2737    89426.118   -21841.427     1613.657   -23455.084    34.503229    239.53473 
    9950    106.62178   -1097.6013    89442.733   -21843.197    1595.4528    -23438.65    34.783427    236.83246 
   10000    106.11318   -871.09436    89384.239   -21875.695    1587.8422   -23463.538    35.012695    235.70273 
   10050    107.33874   -721.81642    89391.387   -21914.529    1606.1811    -23520.71    35.090997      238.425 
   10100    105.41293   -638.38487    89458.668   -21939.396    1577.3639   -23516.759    35.447332     234.1473 
   10150    103.80555   -998.32842    89492.817   -21928.342    1553.3117   -23481.654    35.787753    230.57693 
   10200    105.87948   -549.30348     89518.58   -21895.452    1584.3452   -23479.797    35.841494    235.18362 
   10250    104.34673   -687.38408    89564.947   -21835.346    1561.4097   -23396.756    36.056895    231.77903 
   10300    108.72423    -1215.749    89543.126   -21837.486    1626.9131   -23464.399    36.219578    241.50249 
   10350    108.38902   -772.38035     89532.99   -21834.329    1621.8972   -23456.226     36.55767    240.75792 
   10400    108.37821   -804.92327    89577.799   -21803.335    1621.7354   -23425.071    36.674505    240.73391 
   10450     108.3634   -798.00638    89649.881   -21822.918    1621.5138   -23444.432    37.034524      240.701 
   10500    109.42615   -745.77106    89696.902   -21823.108    1637.4164   -23460.524      37.1387    243.06162 
   10550    110.32137   -848.04648    89748.117   -21805.233    1650.8122   -23456.046    37.221141    245.05012 
   10600    109.20934   -933.01711    89722.226   -21803.166    1634.1722   -23437.338    37.228415    242.58005 
   10650    112.20636   -865.03673    89720.716   -21786.346    1679.0186   -23465.364    37.234099    249.23714 
   10700    109.36547   -1118.3767    89681.882   -21828.172    1636.5084    -23464.68    37.328306    242.92683 
   10750    109.35647   -810.04171    89605.816   -21839.323    1636.3738   -23475.697    37.489009    242.90686 
   10800     106.5891   -1042.6364    89550.705   -21840.459    1594.9638   -23435.423    37.702843    236.75987 
   10850    108.82686   -761.54011    89540.441   -21846.287    1628.4489   -23474.736    37.740782    241.73047 
   10900    109.40992   -793.06307    89464.798   -21865.504    1637.1736   -23502.678    37.913241    243.02558 
   10950    109.17843   -781.57282    89393.944   -21856.459    1633.7096   -23490.168    38.164226    242.51138 
   11000     106.4488   -961.41409    89384.239   -21873.624    1592.8643   -23466.489    38.570381    236.44821 
   11050    105.62123   -756.14569    89486.161    -21879.85    1580.4808    -23460.33    38.825914    234.60998 
   11100    107.73035   -732.26166    89489.113   -21876.408    1612.0411   -23488.449    38.923748    239.29486 
   11150    105.48949   -726.98502     89518.85   -21889.568    1578.5095   -23468.078    39.109768    234.31736 
   11200    105.91589   -761.50445    89462.982   -21892.227      1584.89   -23477.117     39.22154    235.26449 
   11250    108.70703   -511.53578    89489.431   -21885.357    1626.6558   -23512.012       39.541    241.46429 
   11300    106.33702   -848.07012    89526.685    -21895.35    1591.1917   -23486.542    39.923045    236.19992 
   11350    105.87024   -836.91442    89528.782    -21915.41     1584.207   -23499.617    40.079442     235.1631 
   11400    108.32697    -1330.206    89462.617   -21890.587    1620.9686   -23511.555    40.379645    240.62008 
   11450    105.32622   -764.32854    89355.148   -21905.129    1576.0664   -23481.196    40.524835     233.9547 
   11500    107.36019   -728.54735     89405.59   -21900.868    1606.5021    -23507.37    40.742476    238.47264 
   11550    104.32329   -1025.8726     89466.37   -21940.947    1561.0589   -23502.006    40.981923    231.72696 
   11600    103.09402   -753.33192     89410.65   -21922.855    1542.6645   -23465.519    40.877959    228.99644 
   11650    106.95914   -1036.9496    89465.748   -21891.064     1600.501   -23491.565    40.976859    237.58182 
   11700    110.14643   -926.94181    89489.712   -21883.788    1648.1945   -23531.982    41.129511    244.66155 
   11750    105.56836   -742.41683    89508.565   -21887.585    1579.6897   -23467.275    41.506358    234.49255 
   11800    108.80212   -837.65333    89572.858   -21857.858    1628.0786   -23485.936    41.571506     241.6755 
   11850    106.99208   -1062.3844    89658.061   -21879.518    1600.9938   -23480.512    41.607289    237.65498 
   11900    108.88226   -528.71961    89623.548   -21887.342    1629.2778    -23516.62    41.409883    241.85351 
   11950    107.33969     -871.263    89625.114   -21864.474    1606.1954    -23470.67     41.34555    238.42711 
   12000    105.71831   -1154.2469    89603.838   -21884.461    1581.9335   -23466.395    41.307269    234.82562 
   12050    108.03714   -1048.4683    89548.034   -21862.746    1616.6317   -23479.377    41.089406    239.97629 
   12100    107.67602   -863.22666    89560.859   -21849.709    1611.2281   -23460.937    40.896091    239.17418 
   12150    109.52597   -1187.5559    89481.799   -21813.522    1638.9101   -23452.432    40.838726    243.28335 
   12200    109.67428   -850.14475    89404.284   -21810.533    1641.1293   -23451.663     40.65261    243.61277 
   12250    108.90158   -721.91473    89394.339   -21813.723    1629.5669    -23443.29    40.686074    241.89642 
   12300    110.07153   -819.94481    89322.528    -21791.84    1647.0736   -23438.914      40.8194    244.49516 
   12350    103.78139   -636.88421    89288.532   -21839.253    1552.9501   -23392.203     40.93608    230.52327 
   12400    106.94415   -590.87414    89238.323   -21853.074    1600.2766   -23453.351     41.09838    237.54852 
   12450    106.53254   -541.58637    89269.096   -21832.393    1594.1174    -23426.51    41.305871    236.63423 
   12500    108.01163   -879.07731     89295.95   -21832.752      1616.25   -23449.002    41.506215    239.91963 
   12550    105.13423   -647.81395    89347.188   -21801.969    1573.1936   -23375.163     41.47961    233.52825 
   12600    108.86289    -638.4097    89371.173   -21820.471    1628.9879   -23449.459    41.782407    241.81048 
   12650    104.91023   -868.13189    89376.441   -21871.137    1569.8416   -23440.979    42.226535    233.03068 
   12700    106.75781   -447.08463    89434.522   -21829.099    1597.4882   -23426.587    42.446786     237.1346 
   12750    104.09228   -973.66894    89424.564   -21869.741    1557.6021   -23427.343    42.655403    231.21382 
   12800    106.67606   -856.74321    89406.376   -21846.287    1596.2649   -23442.552    42.756369    236.95301 
   12850    103.91343   -721.17928    89393.887    -21851.72    1554.9259   -23406.646    42.823817    230.81656 
   12900    108.74956   -757.85389    89374.848   -21846.798    1627.2921    -23474.09    43.028942    241.55875 
   12950    107.20202   -981.72719    89335.784   -21840.443    1604.1352   -23444.578    43.190088    238.12129 
   13000     107.0734   -942.01208    89285.381   -21855.103    1602.2106   -23457.314    43.247063     237.8356 
   13050    105.29556   -925.60477    89285.516   -21858.261    1575.6077   -23433.869    43.280611    233.88661 
   13100    106.60812   -903.30795    89254.964   -21870.487    1595.2483   -23465.736    43.326484     236.8021 
   13150     105.6782   -899.17572    89228.005   -21924.218    1581.3334   -23505.551    43.481878    234.73654 
   13200    104.08731    -1017.131     89248.63   -21918.927    1557.5279   -23476.455    43.599804     231.2028 
   13250    106.12149   -1079.9397    89278.362    -21890.88    1587.9666   -23478.846    43.725407    235.72119 
   13300    105.43138   -759.61277    89260.863   -21879.947    1577.6401   -23457.587    43.752528     234.1883 
   13350    104.02338   -733.36325    89321.478   -21820.253    1556.5712   -23376.825    44.180672    231.06079 
   13400    108.68001   -582.17719    89348.002   -21784.019    1626.2514    -23410.27    44.644247    241.40427 
   13450    112.02162   -921.98593    89300.468   -21767.897    1676.2542   -23444.151    44.838422    248.82679 
   13500    110.04572   -525.60774    89335.333   -21777.257    1646.6874   -23423.945    44.760592    244.43783 
   13550    105.88692   -938.27646    89325.921   -21797.273    1584.4565   -23381.729     44.99915    235.20014 
   13600    107.31386   -656.05865    89306.762   -21794.686    1605.8087   -23400.495    45.115343    238.36971 
   13650    110.75679   -1077.1255    89268.602   -21789.576    1657.3276   -23446.904    45.213523    246.01728 
   13700    105.49059    -1059.959    89223.691   -21843.585    1578.5261   -23422.111     45.36144    234.31981 
   13750    107.11892   -871.65684    89220.285   -21854.736    1602.8917   -23457.628    45.512035    237.93671 
   13800    106.87562   -790.76781     89248.64   -21832.079    1599.2511    -23431.33    45.638573    237.39629 
   13850    106.67817   -962.43039    89277.983   -21820.906    1596.2965   -23417.202    45.848935    236.95769 
   13900    108.08655   -820.10683    89281.999   -21861.899    1617.3711    -23479.27    45.997839    240.08606 
   13950    108.06203   -798.02182    89310.232   -21873.513    1617.0042   -23490.517    46.034164    240.03159 
   14000    106.40385   -1193.4686    89235.514   -21857.037    1592.1917   -23449.229    46.057154    236.34837 
   14050    107.47542   -855.92732    89253.343   -21884.997    1608.2264   -23493.223    46.081887    238.72859 
   14100    108.81396   -1213.6145    89188.069   -21874.052    1628.2558   -23502.308     46.05107    241.70181 
   14150     109.5872   -1191.5809    89098.529    -21859.72    1639.8262   -23499.546    46.284859    243.41935 
   14200    110.88178   -823.04622    89019.556   -21827.125    1659.1979   -23486.323    46.012048    246.29492 
   14250    108.39223   -675.10706    89063.964   -21770.796    1621.9452   -23392.742     45.92345    240.76505 
   14300    109.47458    -689.9662    89074.158   -21788.814    1638.1411   -23426.955    45.982454    243.16919 
   14350    105.91062    -782.2865    89093.127   -21807.284    1584.8111   -23392.095    46.218535    235.25279 
   14400     108.0037   -624.86577    89040.827   -21825.809    1616.1313    -23441.94    46.409329    239.90201 
   14450    104.32219   -670.87999    89025.503   -21849.531    1561.0425   -23410.573     46.64914    231.72451 
   14500    106.45363   -948.14597    89044.029   -21874.578    1592.9366   -23467.515    46.701458    236.45894 
   14550    104.44813   -670.31477    89082.425   -21834.523     1562.927    -23397.45    46.793828    232.00426 
   14600    106.60853   -1019.6879    89141.484   -21801.965    1595.2545   -23397.219    46.808779    236.80303 
   14650    108.11565   -736.72198    89170.251   -21769.007    1617.8066   -23386.814    47.012217     240.1507 
   14700    108.01902   -946.28951    89210.709   -21793.081    1616.3606   -23409.441    46.957127    239.93606 
   14750    108.99162   -951.71225    89203.872   -21777.249    1630.9142   -23408.163    47.111688    242.09642 
   14800     104.7844   -883.24526    89168.066   -21805.357    1567.9588   -23373.316    47.182602    232.75119 
   14850    107.46569   -804.63889     89142.07   -21806.719    1608.0807   -23414.799    47.362331    238.70697 
   14900    105.86004    -1000.503    89128.752   -21845.813    1584.0543   -23429.868    47.498556    235.14044 
   14950    108.86472   -1062.7357    89081.032   -21826.998    1629.0154   -23456.014    47.506677    241.81456 
   15000    106.64765   -835.16165    89023.228   -21848.717    1595.8399   -23444.556    47.841326    236.88992 
   15050    108.55068   -990.77044    88974.922   -21827.633    1624.3162    -23451.95    47.786879      241.117 
   15100    103.32148   -803.14087    88932.238   -21871.097    1546.0681   -23417.165    47.834275    229.50169 
   15150    106.50484   -666.98962    88940.493   -21859.953     1593.703   -23453.656    47.969238    236.57271 
   15200    108.07953   -730.26536    88966.105   -21864.186    1617.2661   -23481.453    48.176661    240.07047 
   15250    106.46858   -1038.4624    88975.079   -21904.652    1593.1603   -23497.812    48.382693    236.49216 
   15300    107.26772   -964.14783    88934.452   -21876.325    1605.1184   -23481.443     48.49021    238.26724 
   15350    104.55572   -1028.2567    88917.595   -21855.375     1564.537   -23419.912    48.425469    232.24324 
   15400    107.85998   -569.49252    88894.846   -21831.415    1613.9808   -23445.396    48.458829    239.58279 
   15450    107.71799   -858.27411    88906.986   -21831.097    1611.8561   -23442.953    48.460028    239.26739 
   15500    106.70423   -832.71481    88891.123   -21825.555    1596.6865   -23422.242    48.616393     237.0156 
   15550    108.94021   -658.26787    88862.069   -21861.158     1630.145   -23491.303    48.820398    241.98224 
   15600    108.03513    -557.6109    88851.723   -21844.982    1616.6016   -23461.584     49.05426    239.97183 
   15650    106.82863   -630.83754    88807.534   -21855.891     1598.548   -23454.439    49.520181    237.29192 
   15700    108.82318   -697.93256    88882.201    -21861.79    1628.3937   -23490.184    49.776134    241.72228 
   15750    110.50154   -1029.0062     88867.15   -21840.634    1653.5082   -23494.143    50.047175    245.45033 
   15800    108.45754   -653.06038    88838.024   -21862.454    1622.9225   -23485.376    50.246162    240.91011 
   15850    109.33737   -630.47709      88858.9   -21860.857    1636.0879   -23496.945    50.333597    242.86442 
   15900    108.26396   -608.47421    88946.481    -21881.88    1620.0257   -23501.906    50.582602    240.48011 
   15950    106.99641   -814.34656     88956.88   -21860.319    1601.0585   -23461.377    50.893771    237.66458 
   16000    108.67901   -867.45535    88970.169   -21840.799    1626.2365   -23467.035    50.954043    241.40205 
   16050    106.18989   -772.73682    88961.927   -21832.341    1588.9902   -23421.331    50.842648    235.87313 
   16100    107.66527   -768.11845    89005.909   -21810.148    1611.0672   -23421.216    51.129453     239.1503 
   16150    109.99077   -486.59144    89057.562   -21768.073    1645.8652   -23413.938     51.34128    244.31578 
   16200    111.41271   -741.01726    89199.795   -21808.496    1667.1427   -23475.638    51.574195    247.47426 
   16250    107.67454   -824.21207    89106.732   -21812.853    1611.2058   -23424.059    51.496359    239.17087 
   16300    109.60388   -544.36348     89096.94   -21790.893    1640.0758   -23430.969    51.688488     243.4564 
   16350    107.16194   -910.32131    89164.458   -21810.457    1603.5355   -23413.992    51.828702    238.03227 
   16400    108.35764   -916.48319    89165.388   -21805.591    1621.4276   -23427.018      51.9838    240.68821 
   16450    109.60185   -676.65191    89170.983   -21780.495    1640.0456   -23420.541    52.071922     243.4519 
   16500    112.40391   -1095.6677    89158.976   -21766.272    1681.9746   -23448.247    52.402089    249.67594 
   16550    109.05313   -825.49499    89131.066   -21779.788    1631.8347   -23411.623    52.674271    242.23306 
   16600    110.33466    -834.2848    89065.243   -21766.262    1651.0111   -23417.273     52.79812    245.07965 
   16650    107.24738   -353.05661    89122.739   -21789.956    1604.8141    -23394.77     53.04178    238.22207 
   16700    110.61796   -452.07333    89185.131   -21761.727    1655.2502   -23416.977    53.558034    245.70892 
   16750    110.33656    -677.6834    89162.056   -21793.944    1651.0395   -23444.984    53.702468    245.08386 
   16800    110.02957   -810.27983    89113.608   -21773.084    1646.4458    -23419.53     53.79118    244.40197 
   16850    107.55155   -653.10539    89068.887    -21766.25    1609.3656   -23375.615    54.266714     238.8977 
   16900    109.88523   -874.58952    89073.297   -21778.187    1644.2859   -23422.473    54.622067    244.08134 
   16950    109.07271    -760.1065    89041.267   -21816.231    1632.1276   -23448.359    54.817093    242.27654 
   17000    111.17509   -582.40124     89069.06   -21794.218     1663.587   -23457.805    54.983483    246.94644 
   17050    108.87179   -914.88222    89045.625   -21772.775    1629.1211   -23401.896    55.114106    241.83025 
   17100    108.30776   -562.07951    89044.556   -21820.785    1620.6812   -23441.466    55.099129    240.57741 
   17150    107.62378   -683.21378    89101.967   -21814.106    1610.4463   -23424.553    55.320985    239.05813 
   17200     109.9178   -564.30161    89226.963    -21829.55    1644.7733   -23474.323    55.614533    244.15369 
   17250    108.70597    -867.0693    89288.784   -21814.185    1626.6399   -23440.825    55.971806    241.46193 
   17300    109.48116   -756.91887    89272.617   -21846.259    1638.2395   -23484.499    56.146863    243.18381 
   17350    108.86064   -972.22862    89271.439   -21851.463    1628.9543   -23480.417    56.167396    241.80549 
   17400    109.91563   -983.20914    89261.319   -21848.744    1644.7408   -23493.485    55.984131    244.14888 
   17450    108.20823   -547.60696     89268.49   -21824.021    1619.1919   -23443.213    56.248297    240.35634 
   17500    107.87456   -818.53163    89248.162   -21824.375    1614.1989   -23438.574    56.048617    239.61517 
   17550     109.4724   -938.62284    89203.508   -21835.533    1638.1084   -23473.641    56.101561    243.16435 
   17600    111.33861   -643.63867    89213.545   -21811.313    1666.0338   -23477.347    56.366641    247.30966 
   17650    110.25126     -666.867    89300.355   -21844.807     1649.763    -23494.57    56.677675    244.89438 
   17700    109.93626   -880.31012    89273.967   -21826.171    1645.0496    -23471.22    56.751886    244.19471 
   17750    106.57768   -873.13783    89201.013   -21876.432    1594.7928   -23471.225    56.923449    236.73449 
   17800    106.67198   -656.42114    89197.455   -21876.026    1596.2039   -23472.229    56.865537    236.94395 
   17850    104.72284   -707.99018    89142.914   -21890.518    1567.0377   -23457.556    56.969673    232.61446 
   17900    108.88279   -797.21006    89246.066    -21870.19    1629.2857   -23499.475    57.116513    241.85468 
   17950    109.75333   -957.28398    89285.072   -21860.184    1642.3122   -23502.496    57.404129    243.78836 
   18000    113.08755   -993.66785     89238.69   -21856.715    1692.2044   -23548.919    57.570801    251.19448 
   18050    106.94149   -717.74652    89244.508   -21859.996    1600.2368   -23460.233    57.897254    237.54261 
   18100    106.28799   -883.70671    89268.306   -21908.375     1590.458   -23498.833     58.25641    236.09102 
   18150    107.42098   -605.42632    89344.087   -21898.336    1607.4118   -23505.748    58.400522    238.60767 
   18200    106.25623   -720.46752    89463.571   -21880.486    1589.9828   -23470.469    58.535407    236.02048 
   18250    105.83842     -663.673    89504.768   -21870.965    1583.7308   -23454.696    58.594329    235.09241 
   18300    105.69357   -736.40554    89494.931   -21906.701    1581.5633   -23488.264    58.258201    234.77067 
   18350    106.25353   -714.62837    89421.944   -21893.887    1589.9424   -23483.829    58.333143    236.01448 
   18400    108.98431   -976.90282    89374.903   -21875.422    1630.8049   -23506.227    58.532236    242.08019 
   18450    106.36061   -899.48782    89294.642   -21878.174    1591.5447   -23469.719    58.513695    236.25234 
   18500    106.62504   -714.57915    89250.215   -21823.833    1595.5015   -23419.335    58.665977    236.83968 
   18550     107.5346   -789.05204    89238.038   -21912.776    1609.1118   -23521.887    58.740501    238.86003 
   18600    105.63116   -684.29296    89224.123   -21847.612    1580.6294   -23428.242    59.090187    234.63204 
   18650    107.57958   -1016.0632    89211.807   -21849.031     1609.785   -23458.816    59.228851    238.95996 
   18700    106.95329   -818.40536    89200.295   -21810.142    1600.4133   -23410.556    59.645583    237.56881 
   18750    108.15972   -670.36918    89185.574   -21832.857    1618.4659   -23451.323    59.966103    240.24858 
   18800    108.61212   -988.57188    89198.012   -21819.895    1625.2356   -23445.131    60.178891    241.25348 
   18850    108.71743   -661.64707    89202.573   -21843.156    1626.8113   -23469.967    60.293867    241.48739 
   18900    107.08024   -752.32769    89165.729   -21815.912     1602.313   -23418.225    60.428815     237.8508 
   18950    106.24315   -733.54354    89124.224   -21842.124    1589.7871   -23431.912    60.527985    235.99143 
   19000    109.13647   -468.84211    89200.853   -21849.515    1633.0817   -23482.597    60.857958    242.41817 
   19050    107.32874   -868.71093    89204.942   -21831.557    1606.0314   -23437.589    61.158049    238.40277 
   19100     105.4969   -538.74767    89163.993   -21861.737    1578.6204   -23440.358    61.341627    234.33381 
   19150    105.71508   -936.11227    89121.022   -21890.382    1581.8852   -23472.267    61.294857    234.81845 
   19200    107.33668   -798.68671    89121.958   -21894.297    1606.1502   -23500.448    61.418914    238.42041 
   19250    107.40332   -670.33134    89193.538   -21862.252    1607.1475     -23469.4    61.683399    238.56844 
   19300    108.32494   -884.47012    89230.304   -21819.786    1620.9383   -23440.724    61.900763    240.61558 
   19350    108.95664   -1055.3476    89249.671   -21823.536    1630.3908   -23453.927     62.12984    242.01873 
   19400    107.50538   -933.07304     89291.36   -21825.464    1608.6747   -23434.139     62.27183    238.79514 
   19450    106.09655   -622.14867    89293.213   -21864.835    1587.5935   -23452.428    62.172244     235.6658 
   19500    110.96102   -828.39403    89292.704   -21780.526    1660.3837    -23440.91    62.203831    246.47095 
   19550     110.1604   -878.54351    89250.314   -21760.557    1648.4034   -23408.961      62.3943    244.69256 
   19600     107.4563   -807.89911    89243.963   -21799.324    1607.9402   -23407.264    62.362297    238.68611 
   19650    106.48861   -934.97649    89246.799   -21790.666      1593.46   -23384.126    62.391757    236.53664 
   19700    106.26534   -645.16443    89245.229   -21820.048    1590.1192   -23410.167     62.75506    236.04072 
   19750    106.40686   -749.48644    89212.463    -21798.34    1592.2368   -23390.577    62.987655    236.35506 
   19800    109.15792   -594.38799    89174.206    -21777.38    1633.4027   -23410.782    62.935856    242.46582 
   19850    107.14891   -809.01163    89209.596    -21799.48    1603.3406   -23402.821    63.258229    238.00334 
   19900    108.58044   -722.17702    89242.878   -21780.526    1624.7615   -23405.288    63.085619    241.18311 
   19950    108.12591    -629.2469    89298.198    -21757.23    1617.9601    -23375.19    63.029352    240.17349 
   20000    109.43764   -880.81177    89279.718    -21807.71    1637.5883   -23445.298    63.363514    243.08714 
   20050     107.2634   -687.85585    89319.976   -21826.138    1605.0537   -23431.191    63.665357    238.25763 
   20100    105.80922   -870.13599    89356.199   -21839.758    1583.2939   -23423.052    63.934098    235.02757 
   20150    106.55985   -836.71268    89395.534    -21828.93    1594.5261   -23423.456    63.810412    236.69489 
   20200    105.48341   -1256.1186    89411.971   -21826.284    1578.4185   -23404.703    63.730789    234.30385 
   20250     105.2485   -1041.1272    89355.889   -21822.879    1574.9034   -23397.782    63.744097    233.78206 
   20300    105.23303   -1116.3335    89331.484   -21824.827     1574.672   -23399.499     63.94026     233.7477 
   20350    106.16393   -1435.2042    89309.305   -21833.443    1588.6017   -23422.045    64.052198    235.81546 
   20400    107.33254   -1013.2897    89292.988    -21830.31    1606.0884   -23436.399    64.266881    238.41123 
   20450    105.53002   -1111.0585    89171.015   -21817.035     1579.116   -23396.151    65.045897    234.40739 
   20500    108.05958   -1056.6911    89158.899   -21818.208    1616.9676   -23435.175     65.02091    240.02615 
   20550    105.38047   -511.84489     89162.91   -21802.012    1576.8782    -23378.89     64.94508     234.0752 
   20600    109.32144   -669.27824      89209.4   -21792.625    1635.8495   -23428.475    65.123642    242.82903 
   20650    109.70406   -991.02375    89198.335   -21780.764    1641.5749   -23422.339    65.730679    243.67892 
   20700    109.69874   -925.31265    89213.457   -21746.489    1641.4953   -23387.985    65.706201     243.6671 
   20750    114.05204   -1039.2757    89193.486   -21750.286    1706.6367   -23456.923     65.62278    253.33683 
   20800    111.35942   -849.19307    89186.301   -21773.474    1666.3452    -23439.82    65.729893    247.35587 
   20850    108.87753   -972.83714    89148.377   -21814.169    1629.2071   -23443.376    66.269899    241.84301 
   20900    106.96996    -651.6883    89179.318   -21757.324    1600.6627   -23357.987    66.451603    237.60583 
   20950    105.96289   -1049.1152    89221.706   -21802.149    1585.5934   -23387.743    66.865006    235.36891 
   21000    106.57704   -1002.1604      89137.7   -21840.766    1594.7832   -23435.549    66.939897    236.73307 
   21050    105.29941      -622.62    89084.202   -21791.789    1575.6652   -23367.455    66.973102    233.89514 
   21100    107.57173   -701.93603    89114.444   -21791.691    1609.6675   -23401.359    67.136408    238.94252 
   21150    106.86098   -879.26875    89128.032   -21756.622    1599.0321   -23355.654    67.351559    237.36378 
   21200    107.14865   -789.67626    89222.477   -21741.796    1603.3367   -23345.133    67.698791    238.00276 
   21250    111.88413   -342.13328     89229.35   -21706.793    1674.1968   -23380.989    67.900174    248.52139 
   21300    110.65905   -941.26871    89302.135   -21696.658    1655.8651   -23352.524    68.384017    245.80019 
   21350    110.06483   -1039.5235    89303.307   -21649.029    1646.9734   -23296.002    68.374778    244.48028 
   21400    111.84615   -632.07057    89301.741   -21619.531    1673.6285   -23293.159    68.640405    248.43702 
   21450    110.19995    -931.7492    89258.283   -21628.008    1648.9952   -23277.003    68.603209    244.78041 
   21500    114.05032   -816.33789    89135.486   -21598.253    1706.6109   -23304.864    68.853188      253.333 
   21550    112.29152   -573.81135    89118.666   -21646.315    1680.2928   -23326.608    69.354285    249.42629 
   21600    112.21074    -560.2949    89163.759   -21651.692    1679.0841   -23330.776    69.570836    249.24687 
   21650    109.32207   -836.34122    89236.815   -21684.979    1635.8589   -23320.838    70.055889    242.83043 
   21700    109.42292   -992.12991    89255.777   -21701.448    1637.3681   -23338.816    70.946863    243.05446 
   21750    106.91025   -828.66039    89333.358   -21657.591    1599.7693    -23257.36    71.339496    237.47321 
   21800    111.31816   -1022.1745    89305.953   -21650.913    1665.7279   -23316.641    71.641309    247.26424 
   21850    110.15814   -1099.8578    89307.582   -21636.878    1648.3697   -23285.247    72.126266    244.68755 
   21900    108.12039   -529.63065    89295.642    -21672.91    1617.8774   -23290.787    72.427647    240.16121 
   21950    105.53195   -705.39998    89289.953   -21695.922    1579.1449   -23275.067    72.606435    234.41167 
   22000    108.45324   -1324.1083    89205.112   -21713.311    1622.8581   -23336.169    73.201196    240.90056 
   22050    109.38837   -731.07739    89173.322   -21752.403    1636.8511   -23389.255    73.472802    242.97771 
   22100    109.07676   -1006.8547    89127.652   -21755.775    1632.1883   -23387.963    73.805799    242.28555 
   22150    107.74451   -888.96297    89163.098   -21756.893     1612.253   -23369.146    74.102642    239.32631 
   22200    106.55896   -800.40724    89172.084   -21767.742    1594.5127   -23362.255    74.474278    236.69291 
   22250    108.81287    -801.5629    89188.897   -21788.056    1628.2396   -23416.295    74.764541    241.69939 
   22300    106.03685   -879.48883    89163.197    -21751.64    1586.7001    -23338.34    75.048328    235.53318 
   22350    107.97531   -950.43983    89106.163   -21733.413    1615.7066    -23349.12    74.972284    239.83897 
   22400    108.11967   -868.10163    89124.927   -21761.677    1617.8666   -23379.544    75.105536    240.15961 
   22450    107.74774   -791.81936    89130.588   -21770.786    1612.3013   -23383.087    75.251751    239.33348 
   22500    106.78898   -716.96372    89122.772    -21755.48    1597.9546   -23353.435    75.711023    237.20383 
   22550    104.59022   -911.79859    89078.033   -21768.845    1565.0531   -23333.898    75.955967    232.31986 
   22600    107.30864   -727.34287     89104.63   -21790.154    1605.7308   -23395.884    76.125487    238.35814 
   22650    106.28483   -766.67479    89072.345   -21829.696    1590.4108   -23420.107     76.33374    236.08401 
   22700    104.15071   -917.86378    89157.571   -21822.465    1558.4765   -23380.941    76.639847    231.34362 
   22750    106.06053   -732.72631     89208.52   -21816.149    1587.0544   -23403.204    76.791836    235.58578 
   22800    107.33561   -901.88746    89189.762   -21824.583    1606.1343   -23430.717    76.689987    238.41804 
   22850    105.72806   -822.83204    89172.139   -21833.023    1582.0795   -23415.103    76.650151    234.84729 
   22900    104.40861   -1315.3722    89150.902   -21827.093    1562.3356   -23389.429    76.890291    231.91647 
   22950     105.8876   -1012.2996    89167.449   -21799.366    1584.4668   -23383.833    76.950586    235.20166 
   23000    109.10935   -963.97218    89220.952    -21740.53    1632.6759   -23373.206    76.997677    242.35793 
   23050    106.28682   -641.78141      89159.9   -21773.417    1590.4406   -23363.857    77.104286    236.08843 
   23100    110.68194   -909.29233    89217.223   -21717.438    1656.2076   -23373.646    77.313418    245.85103 
   23150      108.742   -721.11974    89170.955   -21689.129     1627.179   -23316.308    77.358179    241.54196 
   23200    111.26842   -985.52921    89206.381   -21686.668    1664.9835   -23351.651    77.449461    247.15374 
   23250    113.65339   -847.56029    89232.413   -21720.469    1700.6714    -23421.14    77.619104    252.45134 
   23300    109.25322   -910.81078    89269.965   -21745.797    1634.8288   -23380.625    77.601695    242.67751 
   23350    108.25049   -945.07282    89229.797   -21756.885    1619.8242    -23376.71    77.605714     240.4502 
   23400    111.54717   -670.98749    89241.628   -21767.278    1669.1546   -23436.432    77.541169    247.77291 
   23450    110.56203   -1068.2285    89176.911   -21792.712    1654.4134   -23447.125    77.641992    245.58469 
   23500    107.05898   -1092.5693    89066.043   -21821.716    1601.9949   -23423.711    78.169119    237.80357 
   23550    108.85869   -986.42826    89002.892    -21818.34    1628.9251   -23447.265    78.630408    241.80116 
   23600    107.17867    -1038.239    89004.313   -21812.564    1603.7859    -23416.35     79.00685    238.06944 
   23650    108.96033   -1256.3315    88930.296   -21814.678     1630.446   -23445.124    79.148334    242.02693 
   23700    109.00447   -680.49398    88917.032   -21816.834    1631.1065   -23447.941     79.54293    242.12497 
   23750    108.48659   -853.21207    88958.933   -21772.559    1623.3572   -23395.916    79.763005    240.97464 
   23800    108.28458   -1051.4144    88987.005   -21794.665    1620.3344   -23414.999    79.739515    240.52593 
   23850     105.2886   -1199.2774    88883.498    -21802.77    1575.5034   -23378.273    79.548838    233.87113 
   23900    109.29243   -987.08015    88868.235   -21722.846    1635.4155   -23358.261    79.682865     242.7646 
   23950     109.9621   -755.93715    88848.237   -21707.066    1645.4362   -23352.502    79.961091     244.2521 
   24000    105.65143   -897.33922    88887.938   -21727.222    1580.9328   -23308.154    80.040122    234.67708 
   24050    109.87333   -1022.6933    88900.207   -21737.653    1644.1078   -23381.761    80.043778    244.05491 
   24100     106.6505   -771.75422    88878.617   -21736.095    1595.8825   -23331.977    80.336284    236.89624 
   24150    109.55537   -984.71526    88881.831   -21753.248    1639.3501   -23392.598    80.432411    243.34866 
   24200    109.24743   -1170.6421    88900.933   -21731.595     1634.742   -23366.338    80.681523    242.66464 
   24250     108.1031   -800.97554    88977.759   -21747.907    1617.6187   -23365.525    80.913166    240.12281 
   24300    109.31263   -1061.9916    88938.737   -21715.833    1635.7177   -23351.551    81.222063    242.80947 
   24350    107.74426    -1199.327    88893.113   -21734.441    1612.2491    -23346.69    81.580391    239.32574 
   24400    112.87927   -1037.7219    88887.975   -21684.696    1689.0878   -23373.784     81.89054    250.73183 
   24450    110.68707   -757.64675    88979.021   -21743.402    1656.2844   -23399.686    81.947481    245.86244 
   24500    110.36294   -754.22762    88942.016   -21711.793    1651.4342   -23363.227    82.246572    245.14246 
   24550    107.01922   -884.91871    88874.598   -21746.297    1601.3999   -23347.697    82.593234    237.71525 
   24600     105.3467   -623.60766    88806.772   -21790.886    1576.3728   -23367.259    82.597569    234.00018 
   24650    106.96952   -1058.1701    88782.587    -21792.71    1600.6563   -23393.366    83.186626    237.60487 
   24700    108.15902   -825.77902    88674.192    -21751.27    1618.4555   -23369.725    83.224179    240.24702 
   24750    106.72668   -947.08087    88623.733   -21787.726    1597.0224   -23384.749    83.333206    237.06545 
   24800      109.193   -404.62995    88648.972    -21766.68    1633.9276   -23400.607    83.440672    242.54374 
   24850    104.79638   -753.33656    88633.664   -21788.376    1568.1381   -23356.514    83.675093     232.7778 
   24900    105.08899   -674.10925    88594.685   -21771.774    1572.5166   -23344.291    84.115221    233.42776 
   24950    106.38214    -708.4489    88561.501   -21779.717    1591.8668   -23371.584    84.004877    236.30015 
   25000    107.13144   -801.25913    88589.796   -21802.407    1603.0792   -23405.486    84.072427    237.96454 
   25050    107.31897   -617.22808     88569.34   -21759.867    1605.8853   -23365.752    84.517013    238.38107 
   25100    105.88953   -757.90536    88565.153   -21773.183    1584.4957   -23357.679    84.797244    235.20596 
   25150       108.01   -664.21586    88560.142    -21778.27    1616.2256   -23394.496    85.314382    239.91602 
   25200     104.5368    -723.3029    88595.096   -21777.962    1564.2538   -23342.216    85.685942    232.20122 
   25250    109.90579   -830.59543    88646.541   -21764.871    1644.5936   -23409.465    85.964898    244.12702 
   25300    108.57961   -516.59062    88698.868   -21777.259    1624.7491   -23402.009    86.132935    241.18127 
   25350    108.01132   -682.86941    88811.077   -21745.305    1616.2454    -23361.55    86.388439    239.91896 
   25400    106.56443   -810.76406    88853.792   -21744.253    1594.5946   -23338.848    86.619535    236.70507 
   25450    105.85403   -930.51734    88890.857   -21730.663    1583.9644   -23314.627    87.072859    235.12709 
   25500    110.69984   -1345.4153    88865.581   -21718.852    1656.4755   -23375.327    87.609605     245.8908 
   25550    108.46141   -1006.3387    88832.786   -21729.707    1622.9803   -23352.688    88.083658     240.9187 
   25600    108.22954   -890.09517    88798.935   -21749.036    1619.5108   -23368.547     88.45174    240.40367 
   25650    105.52278   -839.19809    88822.924   -21766.606    1579.0077   -23345.614     88.69359    234.39131 
   25700    109.26928   -509.61688    88859.042   -21760.598    1635.0691   -23395.667    88.771455    242.71318 
   25750      108.697   -940.28703    88883.774   -21744.936    1626.5056   -23371.441    89.686686    241.44201 
   25800     106.7645   -826.80214    88906.616   -21821.508    1597.5883   -23419.096    90.007508    237.14946 
   25850    108.21036   -522.31847    88919.238   -21784.363    1619.2237   -23403.586    90.066484    240.36106 
   25900    109.32939   -915.16463    88914.218   -21776.062    1635.9686   -23412.031    90.307599    242.84671 
   25950    109.55367   -1102.4143    88912.494   -21790.175    1639.3245     -23429.5    90.626966    243.34487 
   26000    106.75624   -995.45768    88916.152   -21804.892    1597.4648   -23402.357    90.744099    237.13112 
   26050    104.34556   -1243.1492    88849.298    -21814.88    1561.3922   -23376.272    90.897585    231.77643 
   26100    104.27792    -1018.628    88752.938     -21813.4    1560.3801    -23373.78    90.917745    231.62619 
   26150    107.62273   -679.06245     88701.29   -21791.042    1610.4306   -23401.473    91.003435    239.05579 
   26200    109.98799   -714.12345    88670.038   -21792.444    1645.8236   -23438.267    91.065786     244.3096 
   26250    107.16489   -539.32801    88692.013   -21781.885    1603.5796   -23385.464    91.000332    238.03882 
   26300      106.529   -487.85473    88708.951   -21782.704    1594.0644   -23376.768    90.880871    236.62636 
   26350    108.19215   -795.58227    88722.201   -21768.048    1618.9512       -23387    90.758075    240.32061 
   26400    109.05957   -958.54747    88661.093   -21747.961    1631.9311   -23379.892    90.504919    242.24737 
   26450    108.00939   -697.40067    88733.088   -21766.742    1616.2164   -23382.959    90.983636    239.91466 
   26500    108.57482   -436.71215    88785.927   -21769.487    1624.6774   -23394.165    91.368304    241.17062 
   26550    104.30163   -824.28173    88905.644   -21816.599    1560.7349   -23377.334    91.307622    231.67885 
   26600    108.73555   -777.31136    88928.536   -21781.706    1627.0825   -23408.789    91.531463    241.52764 
   26650    105.14678   -690.91339    88974.347   -21745.172    1573.3814   -23318.553    91.703372    233.55612 
   26700    106.91277   -812.20328    89011.233   -21735.328     1599.807   -23335.135    91.571079    237.47881 
   26750    110.43554   -800.75863    89081.094   -21758.667    1652.5206   -23411.187    91.610167    245.30372 
   26800    108.56559   -989.93316     89103.76   -21792.922    1624.5393   -23417.461    91.637896    241.15012 
   26850    106.22661    -727.6341    89054.247   -21793.256    1589.5396   -23382.795    91.277921    235.95469 
   26900    107.26316    -776.3591    89112.405    -21777.48    1605.0501    -23382.53    91.132314     238.2571 
   26950    109.36995   -734.92704    89142.206   -21746.556    1636.5754   -23383.131    91.279445    242.93678 
   27000    109.18048   -752.72859    89195.863   -21742.516    1633.7403   -23376.257    91.512777    242.51594 
   27050    104.90724   -791.23133    89225.131   -21767.931     1569.797   -23337.728    91.765891    233.02405 
   27100    108.92107   -925.83489    89209.279   -21760.978    1629.8585   -23390.837    92.065139    241.93972 
   27150    109.46148   -806.19532     89212.23    -21770.68     1637.945   -23408.625    92.316354    243.14009 
   27200    108.18746   -502.35873    89185.884   -21743.474    1618.8811   -23362.355     92.38243    240.31021 
   27250    108.53363   -671.48692    89183.098   -21716.415    1624.0611   -23340.476    92.334756    241.07913 
   27300    106.89281   -878.98443    89205.299   -21722.031    1599.5084   -23321.539    92.535827    237.43448 
   27350    110.46403   -665.02792    89198.478   -21704.907    1652.9469   -23357.854    92.574833      245.367 
   27400    107.65436   -712.93763    89254.537   -21671.775    1610.9039   -23282.679      92.8918    239.12605 
   27450     109.5393    -1069.761    89306.221   -21681.352    1639.1096   -23320.462    93.170621    243.31296 
   27500     109.0765   -586.94114    89316.912   -21703.035    1632.1844   -23335.219    93.428959    242.28498 
   27550    107.71201   -990.30877    89420.728   -21699.082    1611.7666   -23310.849    93.818528    239.25411 
   27600    107.12444   -879.49688    89342.826   -21710.484    1602.9743   -23313.459    94.219085    237.94897 
   27650    107.48514   -1109.6313    89336.481   -21713.879    1608.3718   -23322.251    94.700956    238.75018 
   27700     107.3769   -951.72319    89264.872   -21733.159    1606.7522   -23339.911    94.973431    238.50976 
   27750    108.09385   -1012.7827    89242.184   -21711.155    1617.4803   -23328.636    95.137649    240.10227 
   27800     108.6366   -777.91789    89207.532   -21715.291    1625.6019   -23340.893    95.194478    241.30785 
   27850    108.08902   -884.79891    89199.234   -21705.494     1617.408   -23322.902    94.837227    240.09154 
   27900    109.52377   -869.59911    89150.085    -21694.62    1638.8771   -23333.497    94.774566    243.27846 
   27950    110.00507   -1106.5527    89105.027   -21680.886    1646.0792   -23326.965    95.144452    244.34755 
   28000    109.01409   -1034.2582    89033.639   -21684.168    1631.2504   -23315.418    95.124742    242.14634 
   28050    108.38852   -691.29175    89042.111   -21708.326    1621.8896   -23330.216     95.25215     240.7568 
   28100    109.03355   -753.70241    89029.264    -21737.08    1631.5417   -23368.622    95.327804    242.18957 
   28150    105.53935   -1025.7337    88994.338   -21722.554    1579.2557    -23301.81    95.520534    234.42812 
   28200     107.4171   -714.71576    89011.164   -21739.688    1607.3536   -23347.042     95.64574    238.59904 
   28250    104.28372   -985.74248    88971.207   -21750.063    1560.4668    -23310.53    95.976949    231.63905 
   28300    108.00269   -685.45871    89006.014    -21742.34    1616.1162   -23358.457    96.265922    239.89977 
   28350    108.65376    -663.5044    89021.768   -21752.314    1625.8586   -23378.172    96.580788    241.34595 
   28400    107.86094   -732.16249    89006.593   -21752.916    1613.9951   -23366.912    96.865318    239.58491 
   28450    109.30774   -1107.2621    89022.104   -21761.727    1635.6446   -23397.372    96.758574    242.79861 
   28500    108.18518   -1075.2729     88968.99    -21756.53    1618.8469   -23375.377    97.018208    240.30513 
   28550     107.4509   -683.43486    88969.167   -21741.817    1607.8595   -23349.677    97.331012    238.67413 
   28600    110.13342   -860.85342    89010.022   -21753.021    1647.9997   -23401.021    97.657677    244.63263 
   28650     107.5286     -964.627    89005.291   -21747.478    1609.0222     -23356.5    98.083628    238.84672 
   28700    108.91043   -767.92833    89004.233    -21742.06    1629.6993    -23371.76    98.247552    241.91608 
   28750    107.96304    -502.5045    89065.636   -21701.814     1615.523   -23317.337    98.327696    239.81172 
   28800    109.22671   -871.20526    89127.742   -21689.971     1634.432   -23324.403    98.636578    242.61862 
   28850    109.27257   -597.76609    89145.951   -21713.358    1635.1182   -23348.476    98.780736    242.72048 
   28900    108.99871   -915.34892    89123.572   -21753.744    1631.0204   -23384.764    99.034249    242.11219 
   28950    111.66138   -734.89916    89095.048   -21726.599    1670.8637   -23397.463    99.205187    248.02661 
   29000    107.66164     -996.619    88997.858   -21745.012    1611.0129   -23356.025    99.640838    239.14223 
   29050    109.04935   -1279.5631    88937.118   -21732.923    1631.7781   -23364.701    99.725813    242.22465 
   29100    108.10412   -1041.3938    88954.378   -21730.194     1617.634   -23347.828    99.706527    240.12508 
   29150    108.40956   -553.71203    88926.111   -21755.174    1622.2045   -23377.379    100.12357    240.80354 
   29200    105.30444   -1020.5464    88912.593   -21775.401    1575.7406   -23351.142    100.44851    233.90633 
   29250    107.62336   -855.68272    88881.182   -21779.955    1610.4401   -23390.395    100.52602    239.05721 
   29300    107.79066   -1075.4278    88879.797   -21805.453    1612.9434   -23418.396    100.62661     239.4288 
   29350    109.07171   -741.57215    88912.301   -21777.002    1632.1127   -23409.114    100.73077    242.27434 
   29400    105.24576   -650.00862    89011.367    -21767.73    1574.8624   -23342.593    100.81868    233.77598 
   29450    107.74841   -871.52197    89119.576   -21774.844    1612.3113   -23387.156    100.68223    239.33497 
   29500      107.889   -1007.2326    89155.638   -21748.391     1614.415   -23362.806    100.74765    239.64725 
   29550     106.4323   -1012.1154    89064.215    -21779.51    1592.6175   -23372.127    100.50913    236.41158 
   29600    107.47968   -930.99592    89029.047   -21776.537    1608.2901   -23384.827    100.71691    238.73805 
   29650    108.27958   -774.62286    89036.899   -21769.506    1620.2595   -23389.765    101.07032    240.51481 
   29700     109.0659   -558.09242    89128.415   -21757.688    1632.0258   -23389.714     101.4165    242.26143 
   29750    108.32393   -936.53931    89104.422   -21750.425    1620.9231   -23371.348    101.44261    240.61332 
   29800    109.63029   -845.91566    89058.394   -21738.254    1640.4711   -23378.726    101.60657    243.51507 
   29850    109.56049   -818.66878    89076.303   -21742.229    1639.4267   -23381.656    101.58697    243.36003 
   29900    105.00166   -1008.1782    89090.146   -21773.423    1571.2099   -23344.633    101.76281    233.23379 
   29950    104.89917   -806.63991    89073.025   -21809.545    1569.6762   -23379.221    101.66542    233.00612 
   30000    108.28772   -881.51489    89053.551   -21776.673    1620.3814   -23397.054    101.94725    240.53291 
   30050    107.54781   -847.63749    89057.253   -21773.861    1609.3095   -23383.171    102.07295    238.88938 
   30100    107.64771   -726.20857    89144.096   -21797.965    1610.8044   -23408.769    102.16332    239.11128 
   30150    106.97386   -1082.7347    89185.049   -21782.715    1600.7211   -23383.436    102.25588    237.61449 
   30200    109.41783   -762.15899    89194.805   -21753.954     1637.292   -23391.246    102.53979    243.04315 
   30250    108.29154   -817.66126    89211.441   -21760.652    1620.4385    -23381.09    102.69708    240.54139 
   30300    109.40948    -1229.066    89183.935   -21751.066     1637.167   -23388.233    103.00203     243.0246 
   30350    108.37161   -855.82267    89130.646    -21730.32    1621.6366   -23351.957    102.96557    240.71923 
   30400    108.83303   -625.83178    89150.851   -21719.084    1628.5411   -23347.625    103.17124    241.74416 
   30450    107.44901   -964.52223    89198.996   -21758.727    1607.8312   -23366.558    103.45097    238.66993 
   30500    111.46575   -852.42383    89271.633   -21723.694    1667.9364    -23391.63     103.8198    247.59207 
   30550    104.95137    -889.8762    89307.285   -21749.497    1570.4572   -23319.955    104.11919    233.12206 
   30600     107.6036   -792.07903    89282.682   -21757.498    1610.1444   -23367.642    104.57861    239.01331 
   30650    112.23951   -921.12058    89320.263   -21725.918    1679.5146   -23405.433    104.87483    249.31077 
   30700    108.77192   -786.21454    89412.898   -21693.576    1627.6267   -23321.203    104.96956    241.60842 
   30750    109.46242   -888.74788    89393.991   -21740.988    1637.9592   -23378.947    105.13422    243.14219 
   30800    107.73694   -963.19402    89368.237   -21781.749    1612.1397   -23393.889    105.17139     239.3095 
   30850    106.10612   -983.27997    89364.485   -21816.142    1587.7367   -23403.879    105.24654    235.68706 
   30900    107.84668   -908.95085    89380.538   -21770.967    1613.7818   -23384.749    105.24582    239.55325 
   30950    107.04515   -972.38243     89343.02   -21794.037    1601.7879   -23395.825    105.58379    237.77285 
   31000    109.69964   -726.61074    89330.022   -21768.724    1641.5088   -23410.233     105.7093    243.66912 
   31050    108.26729   -1029.5709    89322.573   -21768.397    1620.0756   -23388.473    105.75507    240.48752 
   31100    105.41816   -1022.9815    89293.893   -21765.316    1577.4422   -23342.758    106.02271    234.15892 
   31150    107.48962   -1117.2137    89285.292   -21762.545    1608.4388   -23370.984    105.67389    238.76012 
   31200    107.07862   -941.38804    89292.234   -21738.293    1602.2887   -23340.582    106.16623     237.8472 
   31250     112.9757   -888.53663    89271.324   -21729.074    1690.5307   -23419.604    105.81351    250.94603 
   31300    109.59715   -679.49888    89283.612   -21755.628    1639.9753   -23395.604    106.09209    243.44147 
   31350    105.82737   -1247.8924    89284.399   -21741.538    1583.5655   -23325.104    105.91264    235.06787 
   31400    110.71136   -696.84063    89281.411   -21779.622    1656.6478    -23436.27     106.3562    245.91638 
   31450     106.0059    -824.9806     89296.31   -21846.287    1586.2369   -23432.524    106.51954    235.46443 
   31500    108.53528   -796.72207    89317.837   -21831.092    1624.0858   -23455.177    106.86812    241.08279 
   31550    107.44183   -776.84183    89354.553   -21848.776    1607.7237   -23456.499    106.92453    238.65397 
   31600    107.55426   -921.05827    89404.687   -21838.756     1609.406   -23448.162    107.26609     238.9037 
   31650    104.66693   -1153.0596    89397.815   -21844.778    1566.2011   -23410.979    107.59914    232.49027 
   31700      108.016   -814.02879     89374.81   -21854.402    1616.3154   -23470.717    107.59521    239.92934 
   31750    107.91325   -748.50101     89402.52   -21824.624    1614.7779   -23439.402    107.82905    239.70111 
   31800    105.40844   -702.30155    89440.485   -21802.355    1577.2967   -23379.652    107.74158    234.13732 
   31850    108.22934    -1162.387    89379.812   -21801.503    1619.5078   -23421.011    107.62031    240.40323 
   31900    104.68414   -772.09343    89394.255   -21823.245    1566.4585   -23389.703    107.42353    232.52849 
   31950    108.55078    -797.8103    89418.807   -21766.428    1624.3176   -23390.746    107.89521    241.11722 
   32000    110.66739   -970.19447    89380.181    -21758.38    1655.9898    -23414.37     107.7334    245.81871 
   32050    105.02189   -866.71497     89293.88   -21751.195    1571.5126   -23322.708    107.73248    233.27872 
   32100    109.04128   -863.24763    89302.462   -21756.311    1631.6574   -23387.969    107.74142    242.20674 
   32150    108.19046   -859.33469    89303.034   -21736.956    1618.9259   -23355.882    107.68885    240.31686 
   32200    107.97084   -545.42269    89324.202   -21712.077    1615.6397   -23327.717    107.59655    239.82904 
   32250    111.31629   -821.37036    89256.178   -21682.497    1665.6998   -23348.196    107.75704    247.26007 
   32300    111.72001   -833.78565    89286.254   -21676.645    1671.7409   -23348.385    108.07371    248.15683 
   32350     111.5769   -953.99318    89314.363   -21651.997    1669.5996   -23321.596    108.28219    247.83896 
   32400    111.36572   -586.24468    89332.915   -21691.458    1666.4395   -23357.898    108.29507    247.36988 
   32450    107.46111   -769.26599    89323.872    -21725.87    1608.0122   -23333.882    108.21625    238.69681 
   32500     108.3472   -608.02811    89293.523    -21705.65    1621.2713   -23326.921    108.66737    240.66502 
   32550    110.32382   -528.02721    89325.791   -21730.918    1650.8488   -23381.767     108.7583    245.05556 
   32600    110.46643   -698.64283    89340.742   -21707.787    1652.9828   -23360.769    109.14008    245.37233 
   32650    109.65434   -961.41401     89352.26   -21744.668     1640.831   -23385.499    109.47821    243.56849 
   32700    113.00598   -946.31348    89350.666    -21725.05    1690.9838   -23416.034     109.6245    251.01329 
   32750     108.9367   -853.77839    89311.231   -21743.633    1630.0925   -23373.726    109.79082    241.97445 
   32800    108.56582   -800.40892        89335   -21754.299    1624.5427   -23378.841    110.16591    241.15062 
   32850    109.63606   -706.77608    89354.187   -21787.308    1640.5575   -23427.866    110.53321     243.5279 
   32900    106.55772   -908.82962    89276.185   -21793.814    1594.4942   -23388.309    110.31011    236.69015 
   32950    106.84027   -1077.8414    89244.415   -21763.975    1598.7221   -23362.697    110.43721    237.31776 
   33000    106.73862   -1094.4867    89191.148   -21814.906    1597.2011   -23412.107     110.3441    237.09197 
   33050    107.70834   -770.06497    89208.557   -21836.021    1611.7116   -23447.733    110.49954    239.24595 
   33100    106.71558   -491.65964    89249.922   -21848.228    1596.8563   -23445.084    110.64086     237.0408 
   33150    106.55958   -930.11516    89279.553   -21854.263     1594.522   -23448.785    110.94878    236.69428 
   33200    107.55545   -1213.8206    89232.337   -21808.645    1609.4238   -23418.068    110.76901    238.90635 
   33250    108.70209   -661.88078    89199.886    -21830.78    1626.5818   -23457.362    110.72281    241.45332 
   33300    107.85852   -699.42334     89206.49   -21812.174    1613.9589   -23426.133    110.68475    239.57954 
   33350    107.05527   -835.18656    89221.885       -21803    1601.9394   -23404.939    110.91153    237.79534 
   33400     108.8496   -779.42849    89285.727   -21788.082    1628.7891   -23416.871    111.17984    241.78096 
   33450    108.41002   -1025.3858    89311.251   -21800.604    1622.2114   -23422.815    111.38293    240.80456 
   33500    106.14117   -950.75131    89277.861   -21787.864    1588.2611   -23376.125    111.14882     235.7649 
   33550    105.54424    -1181.285    89234.757   -21792.143    1579.3288   -23371.472    111.43956    234.43897 
   33600     105.7953   -833.06139    89196.448   -21795.416    1583.0856   -23378.502    111.62391    234.99664 
   33650    109.57158   -1115.9099    89160.414   -21756.467    1639.5925    -23396.06    111.52813    243.38465 
   33700    109.53832   -822.54499    89168.719   -21746.263    1639.0949   -23385.357     111.8449    243.31078 
   33750    109.21609   -764.36539    89251.025   -21739.766    1634.2732   -23374.039    111.67876    242.59504 
   33800    109.48844   -979.67778    89333.454   -21761.235    1638.3486   -23399.584    112.01203        243.2 
   33850    107.78793   -930.97743    89300.839   -21817.405    1612.9026   -23430.308     112.0625    239.42274 
   33900     107.2204   -859.87175    89358.698   -21789.469    1604.4103   -23393.879    112.21984    238.16213 
   33950    108.06366   -731.71676    89419.733   -21785.363    1617.0285   -23402.392     112.6346     240.0352 
[...]
   92000    107.73694   -557.60655    89469.337   -21856.789    1612.1396   -23468.928    266.81379    239.30948 
   92050    107.53418   -910.53588    89453.428   -21854.797    1609.1056   -23463.903    267.44525     238.8591 
   92100    110.31187   -743.74033    89475.294     -21826.4    1650.6701   -23477.071    267.78597    245.02902 
   92150    104.66486   -927.04454    89466.124   -21893.664      1566.17   -23459.834    268.36973    232.48565 
   92200     106.4456   -783.08789    89408.338   -21840.664    1592.8164    -23433.48    268.17176    236.44111 
   92250    107.83961   -1045.3317    89370.975   -21797.705     1613.676   -23411.381    268.49981    239.53754 
   92300    108.00317   -850.62762    89341.628   -21795.536    1616.1235   -23411.659    268.86328    239.90086 
   92350    109.94832   -853.46599    89333.701   -21813.004      1645.23   -23458.234    269.07293    244.22149 
   92400    108.92767    -715.9679    89396.356   -21803.977    1629.9573   -23433.935     269.3412    241.95438 
   92450    108.52067   -710.85998    89441.031   -21771.628    1623.8671   -23395.495    269.48628    241.05034 
   92500    109.79444   -944.77063    89446.672   -21766.059    1642.9274   -23408.986    269.51832    243.87969 
   92550    108.16874   -655.41041    89458.814   -21785.218    1618.6009   -23403.819     269.6321    240.26861 
   92600    110.37603   -865.48094    89485.778   -21779.688      1651.63   -23431.318    270.36714    245.17153 
   92650    107.79355    -815.5705     89554.61   -21804.767    1612.9868   -23417.753    271.25959    239.43524 
   92700     108.1138   -695.28631    89495.266   -21803.206    1617.7789   -23420.985     271.2652    240.14659 
   92750    111.79382   -837.32427    89498.585   -21790.577    1672.8454   -23463.422    271.06482    248.32078 
   92800     107.4381   -703.62246      89473.7   -21798.248    1607.6678   -23405.916     271.0687    238.64568 
   92850    110.83378   -669.67521    89572.188   -21821.177    1658.4797   -23479.657    271.14409    246.18831 
   92900    105.30558    -897.3397    89627.303    -21823.56    1575.7575   -23399.317    271.06375    233.90885 
   92950    107.73044   -632.22677    89618.568   -21820.727    1612.0424    -23432.77    271.15011    239.29505 
   93000    108.90693   -547.62773    89620.334    -21807.28    1629.6469   -23436.927    271.06788     241.9083 
   93050    108.33922    -901.2668    89613.898   -21801.501     1621.152   -23422.653    270.80864     240.6473 
   93100    106.12091   -676.14468    89588.039   -21832.569    1587.9579   -23420.527    270.90709     235.7199 
   93150      109.769   -1078.4123    89542.922   -21798.016    1642.5467   -23440.562    271.39823    243.82317 
   93200    109.28104   -679.44543    89484.045   -21812.397    1635.2451   -23447.643    271.41861    242.73931 
   93250    106.06879   -723.87808     89486.14   -21840.541     1587.178   -23427.719    271.46727    235.60413 
   93300    107.43157   -940.70676    89421.615   -21839.322    1607.5702   -23446.892    271.58875    238.63118 
   93350    107.45336   -902.55613    89342.175   -21822.422    1607.8962   -23430.318    271.86866    238.67958 
   93400    108.00883   -821.96381    89362.283   -21833.106    1616.2082   -23449.314    271.89719    239.91343 
   93450    104.78258    -937.6752    89359.917   -21829.366    1567.9315   -23397.298    271.95243    232.74714 
   93500     105.6151   -798.02528    89335.989    -21818.95    1580.3892    -23399.34    271.89069    234.59638 
   93550    104.88519   -651.10897    89335.399   -21821.644     1569.467   -23391.111    271.59989    232.97506 
   93600    106.96991   -997.42872    89309.584   -21849.489     1600.662   -23450.151    272.12661    237.60573 
   93650    105.29652   -820.15667    89314.151   -21836.518    1575.6221    -23412.14    272.59516    233.88874 
   93700    105.58656   -1204.9099    89276.199   -21862.611    1579.9621   -23442.573    272.28861    234.53298 
   93750    106.75889   -867.93305    89252.015   -21827.476    1597.5044    -23424.98    272.39422    237.13699 
   93800    105.98312   -926.81708    89183.811   -21890.599    1585.8961   -23476.495    272.37059    235.41384 
   93850    106.46241   -538.71545    89161.831   -21853.263    1593.0681   -23446.331    272.74785    236.47846 
   93900    107.79479   -862.86847    89168.194   -21809.481    1613.0053   -23422.487    273.07334    239.43799 
   93950    108.01191   -714.06433    89150.362   -21846.191    1616.2542   -23462.445    273.17263    239.92026 
   94000    106.84894    -868.1165    89147.796   -21861.431    1598.8518   -23460.283    273.04972    237.33702 
   94050    105.98422   -619.94215    89146.457   -21860.381    1585.9125   -23446.294    273.49128    235.41628 
   94100    105.82174   -516.59058     89212.76   -21830.121    1583.4812   -23413.602    273.92208    235.05536 
   94150    107.70501   -597.29379    89288.308   -21841.346    1611.6618   -23453.008    274.05528    239.23855 
   94200    105.12506    -877.7997    89336.761   -21831.008    1573.0563   -23404.064    274.21341    233.50787 
   94250    109.05646   -811.02777    89342.169   -21824.033    1631.8844   -23455.917    274.17694    242.24045 
   94300    107.15884   -868.29545    89329.502   -21841.241    1603.4891    -23444.73     274.2653    238.02538 
   94350    110.33369   -917.45447    89256.738   -21818.186    1650.9965   -23469.182    274.56223    245.07748 
   94400     106.8306   -768.74965    89328.593   -21836.788    1598.5775   -23435.365    274.66513    237.29629 
   94450    110.17789   -868.45796    89306.412   -21791.928    1648.6652   -23440.594    274.92488    244.73142 
   94500    110.22482   -470.69988    89317.338   -21815.377    1649.3674   -23464.744    274.58919    244.83565 
   94550    108.28885     -795.746    89380.786   -21813.261    1620.3982   -23433.659    274.85197     240.5354 
   94600    109.60593   -1074.5292    89425.369   -21803.116    1640.1066   -23443.223    275.83031    243.46096 
   94650    108.86915   -302.81016    89495.244   -21786.653    1629.0817   -23415.734    276.41783     241.8244 
   94700    106.88095   -832.62586    89566.168   -21816.529    1599.3309    -23415.86    277.01292    237.40813 
   94750    106.92378    -931.5342    89529.534   -21810.301    1599.9718   -23410.272    277.30804    237.50327 
   94800    106.89803   -994.62369     89483.68   -21817.157    1599.5865   -23416.744    277.04993    237.44608 
   94850    110.85737     -971.147    89382.355   -21815.927    1658.8327    -23474.76    277.39556    246.24071 
   94900    107.78966   -626.66548    89357.487   -21795.935    1612.9285   -23408.864    277.15687    239.42659 
   94950    107.17442   -602.13802    89426.578    -21812.73    1603.7222   -23416.452    277.69805    238.05999 
   95000    106.61288   -867.78046    89491.435    -21797.57    1595.3195    -23392.89    277.82403    236.81267 
   95050    108.74777   -877.53109    89540.774   -21770.417    1627.2653   -23397.683    278.13953    241.55477 
   95100    107.07806   -914.49626    89566.642   -21781.676    1602.2803   -23383.956    278.71151    237.84595 
   95150    110.70043   -955.54545    89522.897   -21790.133    1656.4844   -23446.617     279.2877    245.89212 
   95200    105.73008   -950.28992    89563.971   -21814.567    1582.1096   -23396.676    279.33475    234.85177 
   95250    107.41134   -1213.8727    89514.185   -21823.629    1607.2675   -23430.897    279.55248    238.58625 
   95300    108.47805   -890.83139    89462.431   -21848.378    1623.2293   -23471.608    279.80652    240.95567 
   95350    106.31994   -1125.5233    89371.609   -21884.039    1590.9361   -23474.975    280.00101    236.16199 
   95400    108.44786   -928.97277    89387.519   -21875.912    1622.7776   -23498.689    279.45494    240.88861 
   95450    108.01918    -1105.029    89352.451   -21864.821     1616.363   -23481.184     279.8551    239.93642 
   95500    105.59723   -863.49496    89270.233   -21892.533    1580.1217   -23472.655    279.71487    234.55668 
   95550    105.67344   -904.99292    89220.995   -21909.451    1581.2621   -23490.713    279.69051    234.72596 
   95600    104.92579   -884.33998    89138.851     -21901.1    1570.0745   -23471.174    279.58414    233.06525 
   95650    104.81354   -745.53637    89140.603   -21913.689    1568.3948   -23482.084    279.19473    232.81591 
   95700    104.40585   -870.48149    89059.498   -21943.061    1562.2943   -23505.355    279.49581    231.91033 
   95750    104.79302   -875.55735    89003.389   -21956.705    1568.0877   -23524.793      279.894    232.77033 
   95800    106.24664   -896.53459    88948.879   -21923.925    1589.8392   -23513.764    279.74207    235.99916 
   95850    108.95087   -652.73046    88964.735   -21907.538    1630.3045   -23537.843    279.55275    242.00592 
   95900    105.16919   -762.48814    88958.799   -21922.661    1573.7167   -23496.378    279.99188    233.60591 
   95950    106.47891   -499.89553    89004.845   -21940.009    1593.3149   -23533.324    279.78294     236.5151 
   96000    107.20132   -533.20369     89008.48   -21928.448    1604.1248   -23532.573    280.03104    238.11975 
   96050    107.05598   -859.51851      88998.7   -21911.022    1601.9499   -23512.972    280.23065     237.7969 
   96100    104.36329   -923.77627     89068.67   -21939.718    1561.6575   -23501.376    280.45287    231.81581 
   96150     105.3218   -645.70165    89105.421   -21916.711    1576.0002   -23492.712    280.28825    233.94487 
   96200    106.68616   -945.47972    89094.939   -21919.169    1596.4161   -23515.585    280.24892    236.97546 
   96250    105.19654   -908.39589    89120.093   -21892.072    1574.1259   -23466.198    280.06638    233.66665 
   96300    104.90468   -816.38026    89089.455   -21888.953    1569.7586   -23458.711    280.27146    233.01835 
   96350    107.91508   -824.90858    89105.895   -21857.706    1614.8052   -23472.511    280.85999    239.70517 
   96400    108.31684    -921.2039    89085.102   -21825.793    1620.8171    -23446.61    280.96772    240.59758 
   96450    108.26362   -1167.8684    89084.373   -21800.427    1620.0207   -23420.447    280.96689    240.47936 
   96500    110.43501   -739.66714    89102.351   -21807.862    1652.5127   -23460.374    280.96853    245.30255 
   96550    109.03953   -999.26687    89097.342   -21822.203    1631.6311   -23453.834    280.95349    242.20285 
   96600      107.723   -931.28017    89020.906   -21831.763    1611.9311   -23443.694    281.57795    239.27853 
   96650      108.125   -941.16266    88991.357   -21805.209    1617.9464   -23423.156    282.10872    240.17146 
   96700    109.14993   -735.23242    88865.636   -21825.022    1633.2832   -23458.305    281.76962    242.44808 
   96750    107.85252   -928.77827    88856.977    -21852.95    1613.8691   -23466.819    281.74602    239.56621 
   96800    109.12295   -901.24929    88829.166   -21857.476    1632.8794   -23490.355    281.79201    242.38814 
   96850     107.2353   -933.53108     88876.83   -21846.914    1604.6332   -23451.547    281.94922    238.19522 
   96900    108.26496   -875.83667    88899.162    -21829.68    1620.0408   -23449.721    282.39048    240.48235 
   96950    106.39453   -829.04376    88932.824   -21833.204    1592.0523   -23425.256    282.59743    236.32768 
   97000    104.99327    -758.2188     88906.66   -21837.654    1571.0842   -23408.738    282.91262    233.21513 
   97050    109.31952   -823.78432      88889.5   -21842.982    1635.8208   -23478.803    283.12473    242.82477 
   97100    108.71284   -945.33738    88919.555    -21836.24    1626.7427   -23462.982    283.01508     241.4772 
   97150     107.1886   -1033.2667    88934.446    -21817.88    1603.9344   -23421.814    283.32535    238.09148 
   97200    105.64514   -876.44982    88945.536   -21864.845    1580.8386   -23445.683    283.61725     234.6631 
   97250    108.76908   -794.73924    88944.895   -21881.249    1627.5843   -23508.833     283.6556    241.60212 
   97300    106.50757   -940.30712     88933.13   -21868.575    1593.7438   -23462.319     283.5834    236.57876 
   97350    108.59955   -808.10643    88953.739   -21887.192    1625.0475   -23512.239    283.49166    241.22556 
   97400    109.40787   -871.16448    89112.707   -21847.951    1637.1429   -23485.094    283.87877    243.02102 
   97450    105.82422   -878.24553     89210.56   -21848.788    1583.5183   -23432.306    283.78401    235.06087 
   97500    107.20031   -639.96901    89273.049   -21823.153    1604.1097   -23427.263    283.45251    238.11751 
   97550    107.69116   -580.88713     89358.66   -21861.248    1611.4545   -23472.703    283.97109    239.20779 
   97600    107.13796   -872.32518    89359.892   -21858.816    1603.1767   -23461.993    284.13552    237.97901 
   97650    108.54191   -688.51981    89383.401   -21843.915    1624.1849     -23468.1    284.08796    241.09752 
   97700    108.46391   -793.41352    89379.915    -21856.18    1623.0178   -23479.198     284.8164    240.92426 
   97750      107.952   -1082.2667    89366.772   -21880.181    1615.3577   -23495.538    284.81225    239.78718 
   97800    106.62221   -758.45272    89319.172    -21839.66    1595.4592   -23435.119    284.93371    236.83341 
   97850     106.0534   -915.42478    89264.512   -21839.617    1586.9477   -23426.564    285.14184    235.56994 
   97900    111.03885   -822.08246    89290.095   -21838.382    1661.5483   -23499.931    284.66083    246.64381 
   97950     107.8777   -737.41597    89303.533   -21780.034     1614.246    -23394.28    284.65103    239.62216 
   98000    109.07804   -902.14148    89291.639   -21786.402    1632.2074    -23418.61    284.75428    242.28839 
   98050    106.55955   -812.68914    89231.759   -21820.545    1594.5216   -23415.067    284.68248    236.69422 
   98100    108.93259   -702.36469    89308.313   -21802.592     1630.031   -23432.623    284.69883    241.96532 
   98150    107.62035   -713.78099    89381.705   -21782.309    1610.3951   -23392.704    284.72013    239.05052 
   98200    108.96095   -853.85584     89395.38   -21778.959    1630.4553   -23409.414    285.21078     242.0283 
   98250    107.20633   -1180.8054    89352.269   -21810.754    1604.1998   -23414.954     285.0924    238.13088 
   98300    107.14572   -790.80596    89296.886   -21815.494    1603.2928   -23418.787    284.38492    237.99624 
   98350    108.22956   -763.99278    89285.666   -21837.949    1619.5111    -23457.46    284.57912    240.40372 
   98400    107.06161   -700.06057    89235.445   -21844.927    1602.0342   -23446.961    285.77871    237.80941 
   98450    107.17363   -645.17362      89288.4   -21848.658    1603.7105   -23452.368    286.00407    238.05824 
   98500    111.07418   -861.09019     89318.27   -21828.677     1662.077   -23490.754    285.88128    246.72229 
   98550    109.46414   -742.00696    89286.509    -21823.53    1637.9848   -23461.515    285.74446      243.146 
   98600    108.02038   -860.35237    89347.408   -21790.583    1616.3809   -23406.963    285.92027    239.93907 
   98650    108.46174   -718.57339    89397.302   -21803.108    1622.9853   -23426.093    286.05892    240.91944 
   98700    108.73877    -1077.327    89416.572   -21830.451    1627.1306   -23457.581    286.22268    241.53478 
   98750    110.14185   -980.16877     89375.06   -21823.134    1648.1258    -23471.26    285.99188    244.65136 
   98800    108.69574   -922.31197    89386.788   -21872.749    1626.4867   -23499.236     286.0651     241.4392 
   98850    106.29411   -880.70089    89334.355   -21867.233    1590.5496   -23457.783    285.14959    236.10461 
   98900     108.9895   -811.17668    89301.524   -21876.803    1630.8825   -23507.686    284.87076    242.09172 
   98950    106.86661   -1021.7755    89311.081   -21872.373    1599.1162   -23471.489    285.38879    237.37627 
   99000    105.40507   -914.08534    89259.092   -21882.823    1577.2464    -23460.07    284.95578    234.12985 
   99050    107.29343   -839.64361    89201.545   -21929.718    1605.5031   -23535.221    285.36509    238.32435 
   99100    107.97377   -504.69017    89199.828   -21909.633    1615.6835   -23525.317    285.65847    239.83554 
   99150    106.77826    -418.1303    89253.229   -21870.218    1597.7943   -23468.012     285.4596    237.18003 
   99200    108.43659   -738.44636     89263.32   -21875.289    1622.6089   -23497.898    285.36473    240.86357 
   99250    107.87407    -714.6272    89324.225   -21869.295    1614.1916   -23483.487    285.32994    239.61409 
   99300    108.23282   -576.29178    89351.651   -21857.574    1619.5599   -23477.134    285.27612    240.41096 
   99350    106.97294   -810.62716    89350.499   -21844.454    1600.7074   -23445.162    286.28524    237.61246 
   99400    107.69623   -720.61147    89339.757   -21837.755    1611.5304   -23449.285    286.58575    239.21906 
   99450    106.64822   -655.92646    89249.091   -21839.015    1595.8484   -23434.863    286.72781    236.89118 
   99500    108.61682   -652.68272    89216.537   -21805.547    1625.3058   -23430.853    287.01429     241.2639 
   99550    108.50473   -615.45353    89228.844   -21831.746    1623.6286   -23455.375    286.67032    241.01494 
   99600    107.52226   -874.81958    89213.601    -21886.99    1608.9272   -23495.918    286.73751    238.83263 
   99650    108.48575    -892.7257    89205.488   -21885.457    1623.3446   -23508.802    286.83607    240.97277 
   99700    106.94619     -1039.38    89236.205   -21880.432    1600.3072   -23480.739    287.06569    237.55305 
   99750    107.89782   -694.41005    89207.823    -21908.86    1614.5471   -23523.407    286.79781    239.66685 
   99800    105.62065   -1021.8528    89160.708   -21902.101    1580.4722   -23482.574    287.49555     234.6087 
   99850    111.23826   -774.53901    89159.634   -21893.798    1664.5323    -23558.33    287.50308    247.08676 
   99900     109.0937   -775.06581    89251.924   -21870.844    1632.4417   -23503.286    287.64526    242.32317 
   99950    107.04933   -682.74162    89342.211   -21854.942    1601.8505   -23456.793    287.25388    237.78214 
  100000    107.12124   -811.50894    89330.871   -21848.472    1602.9265   -23451.398    287.26961    237.94186 
Loop time of 43.3338 on 80 procs for 100000 steps with 5021 atoms

Performance: 996.912 ns/day, 0.024 hours/ns, 2307.666 timesteps/s
100.0% CPU use with 80 MPI tasks x no OpenMP threads

MPI task timing breakdown:
Section |  min time  |  avg time  |  max time  |%varavg| %total
---------------------------------------------------------------
Pair    | 6.3201     | 18.092     | 26.079     | 173.0 | 41.75
Neigh   | 0.46564    | 1.2102     | 3.2851     |  93.6 |  2.79
Comm    | 10.054     | 17.272     | 28.907     | 169.3 | 39.86
Output  | 0.12115    | 0.12492    | 0.28487    |   5.1 |  0.29
Modify  | 3.7473     | 5.7612     | 7.2075     |  39.5 | 13.29
Other   |            | 0.873      |            |       |  2.01

Nlocal:    62.7625 ave 144 max 32 min
Histogram: 59 1 0 0 0 0 0 0 5 15
Nghost:    672.75 ave 844 max 387 min
Histogram: 20 0 0 0 0 0 0 39 1 20
Neighs:    0 ave 0 max 0 min
Histogram: 80 0 0 0 0 0 0 0 0 0
FullNghs:  5956.5 ave 18854 max 1210 min
Histogram: 60 0 0 0 0 0 0 0 0 20

Total # of neighbors = 476520
Ave neighs/atom = 94.9054
Neighbor list builds = 5741
Dangerous builds = 0

write_data		${DIR}/data.eq-${NAME}-${TEMP}
write_data		run_19/data.eq-${NAME}-${TEMP}
write_data		run_19/data.eq-het_freeze_19-${TEMP}
write_data		run_19/data.eq-het_freeze_19-240
undump          1

reset_timestep  0

unfix           2
unfix           3
unfix           4


################################################
#######         Run Simulation         #########
################################################

log				${DIR}/log.run_${NAME}
log				run_19/log.run_${NAME}
log				run_19/log.run_het_freeze_19
