LAMMPS data file via write_data, version 29 Oct 2020, timestep = 150000

6328 atoms
2 atom types

0.0 49.22 xlo xhi
0.0 49.019635930410494 ylo yhi
3.7440297076285525 56.31797029237107 zlo zhi

Masses

1 18.015
2 12.01

Atoms # atomic

273 1 17.945836860529344 19.028467272191467 5.053027752830492 1 0 0
4619 1 6.144852893857307 2.0663685155422518 6.64677655605942 0 0 1
3412 1 1.114058484219607 7.759402898201097 19.86319789722294 1 0 1
1996 1 17.18743279492555 5.105567865234681 6.534384109477224 0 0 0
2109 1 0.24352433361696893 19.439373485286715 20.559645322831404 0 1 1
4712 1 14.629298036360348 0.7977873454419669 9.58323927140007 1 1 1
282 1 1.3730190023577575 0.5060386352892065 11.134980698384304 0 1 0
6005 1 3.4056606049559837 1.9212705045420047 6.017812359714613 0 1 1
377 1 17.63133866396692 2.375592717430886 7.450130401720987 0 1 0
1254 1 22.344665131593853 5.058904248495697 8.010208180823001 0 0 0
3597 1 22.189933230335324 2.067980323057771 8.451272479079137 0 1 1
4564 1 0.6042643923353134 9.38567671385916 7.387644384747775 0 0 0
1667 1 13.727034000419911 22.964985443217817 17.1260101504148 0 1 0
1986 1 24.420606266586244 6.106930590421376 7.026001164253895 -1 0 1
6173 1 1.7318880995159984 2.37504074461371 8.861120989586555 1 1 1
6225 1 4.50412314345342 8.050961458158193 8.31406988472455 0 0 0
3170 1 11.454181917524615 7.752109937822632 5.686166304185148 1 -1 1
4833 1 20.157462038651172 23.44782524147645 6.8560960475377115 -1 0 0
2849 1 6.544040081001599 5.920217236947475 8.056339323401607 0 0 1
5111 1 19.548418954468012 1.5910774960900314 5.615110713136859 1 0 0
1467 1 1.7012743267786234 9.46125543328729 4.630132613705685 0 0 1
139 1 1.9778523209097698 6.850928546889224 7.837074215226497 1 0 1
2928 1 7.8031687824686085 8.270127056221153 4.668955937357713 0 1 1
2973 1 15.573374256701902 9.580042710903786 7.938537379893098 1 0 1
1857 1 15.34958316876866 24.190408008569136 9.997289936852752 0 0 0
402 1 18.66299239943912 10.27760276191498 5.512122019017431 -1 0 0
1542 1 1.4701477688203133 24.126278521667782 10.44859078232312 0 0 1
1393 1 23.05905163737184 5.208653838636527 4.408136528435617 0 0 1
421 1 23.836010070624084 18.711965765440414 13.036527523011983 0 1 1
6081 1 6.761923383900763 9.303412780597306 6.891197645239885 1 0 1
5086 1 1.6578387973320545 14.053448334740747 5.527505323615407 0 -1 1
4789 1 6.747708047014266 12.416035429818093 6.216080318070846 1 0 0
1858 1 17.03523946702801 20.9677131594007 17.985742622174 1 0 0
5032 1 10.86559825430793 22.365520650281457 3.91933737495533 1 0 0
373 1 9.27674626107463 13.037106002928073 6.177149996808352 1 0 0
1944 1 2.6138521684256726 22.252368172592252 5.804013502227194 1 0 0
1865 1 15.115092761011473 13.243156758907762 5.2630915098310425 1 1 1
407 1 17.696586478194863 14.259256427286157 4.351738461363587 0 0 1
6171 1 14.81013458898604 16.13988014348687 6.393190643675926 0 1 0
3445 1 24.188094141193954 0.7381264657304227 17.801590174242147 -1 -1 0
1605 1 23.062680967350865 1.395993901815473 14.007188573119981 -1 1 0
2882 1 20.243025853461464 13.478620573189852 7.229967450896517 0 0 1
3416 1 2.5408788808407343 23.59736331719639 13.091960271145357 1 1 0
3318 1 3.597269089060497 18.295765114982995 8.43313405448141 2 1 0
2050 1 5.529578351134413 14.456189921742743 7.957934329244258 0 1 0
2949 1 9.338360863352897 15.279043810283676 8.29558970132451 0 0 1
1688 1 10.565962326550512 17.15163404073285 6.467430171110841 0 0 0
4454 1 12.377882703748378 16.74470200193581 4.299323070132702 1 0 1
1675 1 14.211542019321634 18.774392883169448 4.893100104949773 0 0 0
1968 1 14.590541887744461 18.575713927987035 8.585660411566494 0 0 0
1672 1 22.284283826190904 17.613594586292848 4.323540838070125 0 0 1
363 1 17.5066311290483 16.497989646828277 6.108735909625333 0 0 0
4558 1 23.115504635840534 15.32563753074703 8.266188877545346 0 0 1
1838 1 22.18254590664056 2.96817893566714 5.497011263755295 0 0 0
173 1 6.159080072882502 14.621265513952531 4.5839851441997315 0 1 0
1473 1 15.894604554572698 0.38946880324864613 16.792078343431925 0 1 1
3497 1 24.485568535696572 23.55660900298212 9.44197962902692 0 0 1
3348 1 11.969911697196666 18.105584942896982 9.145506410461602 0 1 0
1900 1 14.262352044280558 21.58432279696385 8.642167053511113 0 0 0
5250 1 20.65550504588605 19.656156872531533 5.68066301856611 0 0 1
5967 1 24.472079588091603 19.536761107517417 4.290910262040322 1 1 0
4860 1 24.34593673870335 15.74222216326561 10.708437975962243 0 0 0
3690 1 1.387398422016808 24.188681610820385 15.74630163631938 1 1 1
6233 1 2.986665127213355 22.45497554426543 8.546888674187294 0 0 1
1799 1 20.90666829357196 22.301249156017928 4.422052469810079 0 0 0
1937 1 6.009214063100387 22.392849240642327 6.383768935930078 0 1 0
155 1 1.6481147517570198 16.57122650138885 17.548763095834843 0 0 1
1949 1 9.0688452206289 1.543844399015388 8.255057885907142 1 2 0
1915 1 1.1486413413771641 4.5226896581785905 6.7198118035538945 0 -1 0
3486 1 9.094316944518871 23.920851901103603 16.45412761446125 0 0 0
2013 1 16.898375670845127 23.226246253017262 6.203814295822923 -1 0 0
1821 1 17.86429593118275 23.95071484514426 18.329662085764667 0 0 0
2005 1 8.283953780647272 0.894187372073776 12.08801632678897 2 0 1
4818 1 6.054074721109665 17.336690394099612 5.980510243102186 0 0 1
3126 1 6.589688357240518 0.037986185380483026 8.841038981219226 0 0 0
1579 1 11.062577056394908 4.661917693666448 9.424336397351242 0 1 1
1580 1 12.774336940809492 3.2503682960234923 5.836258943680228 0 0 1
1287 1 14.83882626866073 1.5120828480257424 6.5141113043414745 0 1 0
1826 1 17.446543436253723 2.988533748920267 10.128287029610629 -1 -1 1
1716 1 19.558067035864653 2.2550209024553434 12.211662062166823 0 1 1
4912 1 18.810031990810195 2.7997340001885465 14.838953190335586 0 0 1
3679 1 5.244637847247885 6.685607666884255 14.414611506716248 1 1 0
6256 1 23.71072029775076 24.497868306457082 21.101675068985827 0 0 0
4669 1 4.811736843538838 5.296769905185461 11.138724521941821 0 0 1
1432 1 5.339513948552441 8.086891313626591 10.868146261905174 0 0 0
1726 1 12.65919070672181 5.816485749718569 7.250318821233378 1 0 1
4965 1 9.8677929283125 3.738489351192171 6.806692811196761 0 0 0
1918 1 15.210183885727028 6.574173745819633 8.063200817693954 0 0 1
5180 1 19.732362141429395 4.8073768587049726 10.232028053297675 1 -1 1
3382 1 18.49632262011267 7.454821063446988 4.847151850967233 1 1 0
5012 1 19.300458643219603 6.2495896767638195 8.105546515558574 0 0 0
3502 1 20.528933016297543 8.311284936548715 11.212377126762043 1 1 0
3422 1 17.119490478889976 5.804873837240094 20.136354486844965 1 0 0
1961 1 20.35019549404136 8.69601366863579 8.596239987599946 0 1 0
10 1 4.826581353437113 3.668484211901838 8.650977979530058 0 0 0
4930 1 3.234861219726129 11.666805282434513 5.155714833784818 1 1 0
5264 1 8.680921146885009 9.783520360602862 8.571532322929144 0 1 1
4763 1 10.175514517699975 7.796304988188288 9.956169104283166 1 1 0
5292 1 13.24738702033257 10.805165872498492 11.197973327054157 0 1 1
1639 1 17.849718630446656 10.681019408696118 11.133328458341477 -1 -1 0
5190 1 15.220462681916766 11.639973806421338 9.837308646395986 -1 1 0
1700 1 18.743534434359717 11.141572040348315 8.257987787020005 1 -1 1
1606 1 20.56126682497753 15.072349356273744 4.694166112561603 0 0 0
1546 1 0.8192606348905219 4.386023609858015 10.862505828221071 0 0 1
5016 1 0.22054935910920132 18.829722399488247 13.565312007640053 0 0 0
1977 1 16.08715758371656 10.35615163563102 5.244177983067006 0 1 0
3569 1 4.382389234730513 12.313902970750854 9.776805345813106 1 0 0
370 1 6.341261907382971 18.68918220357798 8.45593905471316 0 0 0
3603 1 12.720742718689296 9.34662367805517 7.1206000830239375 0 1 1
1818 1 13.56237913324502 12.648933809525795 7.559007680511996 1 0 0
3196 1 16.836460781300666 12.692297577773545 12.521975964956262 1 1 0
2111 1 20.526965563318964 15.104182336512963 9.704657839679257 0 1 1
3451 1 23.80865672788352 1.00828667189027 4.066493825697007 1 0 0
3225 1 22.562764014323438 11.92464804683366 6.404677630857827 0 0 0
1465 1 8.825286816062828 22.398983890596103 9.64436977565142 0 1 1
2801 1 7.062937625649955 14.991105925926124 10.146886482816697 1 0 0
58 1 11.157555108401167 14.93351458609573 10.286674517647949 0 0 0
2840 1 19.763136288973733 13.462025586778998 12.223090833413787 0 -1 1
5177 1 18.860296055285108 16.949445448444834 8.405840779887278 -1 -1 0
3512 1 23.918967313609286 8.784469433892763 14.019686973308728 1 0 0
3227 1 3.099757917240656 18.231698827977826 5.5958198482343215 0 0 1
4986 1 7.812909135543283 20.869777652664784 7.474791567368804 0 -1 1
6065 1 6.065623633140068 22.481854928293767 11.256393142862994 1 0 0
266 1 9.223707545521547 19.283109486021626 5.710796932204038 0 0 0
6072 1 12.07494204880435 20.52390453993008 5.949258067480946 0 1 1
4729 1 16.470754520450456 20.44496610934934 6.89816568924217 0 1 1
1335 1 14.592014041617357 21.612881197461967 11.394142188163595 0 0 1
5047 1 24.199859230399394 23.665584050327528 18.210338087053678 -1 0 0
4941 1 24.107316653705357 17.79082741856737 7.095884955175956 1 0 0
1756 1 1.946582808377662 20.231752414132693 9.642176735142593 1 -1 0
6177 1 0.12439447267835967 5.053771373947051 20.22848140834977 0 0 1
4855 1 9.858500630745826 23.027830631957464 6.236097219341909 -1 0 0
5236 1 22.394763515497274 20.20193998260938 18.34384830948374 1 -1 0
4960 1 19.021794416587653 21.06747779461792 7.952824510522638 0 1 0
330 1 19.65210510476185 11.627646904275087 19.848006246034927 0 1 0
410 1 16.821949456122283 1.0433478235908435 14.054120880071013 -1 -1 0
1354 1 4.515617092552607 2.791300647956817 13.033721607736041 0 0 1
1798 1 8.775715674409119 18.51281904444934 19.312992533605495 1 0 0
332 1 7.239055473351157 5.261831600318981 12.684258195697657 0 1 0
5287 1 7.2175337816886165 2.789724849495374 13.69922022461266 1 1 -1
4417 1 8.47014107362423 5.547094018765144 10.113832264910283 1 1 1
1907 1 20.421275286553207 18.449229995063263 17.324617345653042 0 -1 1
3718 1 15.074255310536929 1.5409660243299257 12.082368312827173 0 0 0
1955 1 0.7745932556281698 1.945407802001204 13.174185036375555 1 1 1
5137 1 15.349874823408728 4.483483372160913 12.558968976462651 1 0 0
5045 1 5.635327929043642 23.915047191727773 8.797156284828372 1 -1 0
345 1 9.117075081922728 6.837904861772751 14.202397145744895 1 1 0
1380 1 2.9178958808841853 5.076623434136927 14.009642491855585 0 1 0
4976 1 13.363650976234458 6.6980488040921315 12.466435252585576 1 0 0
6280 1 12.392920974986763 1.6746255100476555 12.88795443697714 1 0 1
4979 1 10.606303120379348 1.6534197259266783 10.416212564607644 0 1 0
3449 1 12.89954977919488 8.086643202135011 9.883562641690052 0 0 0
1659 1 12.43350044844408 2.8310721079778642 15.39131507836119 1 1 0
128 1 16.206161037480936 5.639565160502193 10.309894359820106 0 1 0
1694 1 18.65954369090674 6.392946925856308 12.05309984860393 1 0 0
1736 1 16.852294037687805 5.112448901722049 14.637034659605632 0 0 1
4722 1 21.986955235107864 4.998818812031094 14.917263095571876 0 0 1
5083 1 3.8379793514215725 7.738842745095554 5.297073900111251 0 0 0
1411 1 0.19268052850772363 15.239320741909514 12.09843467374158 1 -1 0
5242 1 1.9750505165293006 11.259064297114294 12.667822314733751 1 1 0
3134 1 10.854175228628158 24.240971631849646 20.524051532361515 0 0 0
6121 1 2.3494064756145616 9.969456677086198 9.475605721318889 1 1 1
4775 1 9.823338125188592 8.686731221591693 12.608983344220606 -1 0 1
4435 1 14.724579493676623 8.498013607826842 14.67453302768416 1 0 0
369 1 17.217818032446235 8.949451144958497 13.09452698442309 1 1 0
372 1 18.395276274046562 9.714634694505039 15.505697683604668 0 0 1
5056 1 13.961139648129038 7.510276375647805 20.55249356058482 0 0 0
3092 1 11.587538018887207 0.8596507677806831 4.500088563609523 0 1 1
4741 1 7.211897811924863 9.785756970531757 12.09030693495625 1 0 0
174 1 6.1915701279345585 12.584852057682388 14.19437894806814 0 -1 1
3302 1 10.80427522507591 11.660379036895996 7.810838971607443 1 0 1
5003 1 10.919646061090656 10.267126710320282 14.877364286736062 0 1 0
1929 1 10.764604358581197 12.214323153862345 10.748438589780832 0 0 0
1486 1 15.343174186922344 14.70195953018579 10.732808487945006 0 0 1
2133 1 22.802226838321754 10.640627093777702 10.33074882442651 0 1 1
3157 1 20.588705520586554 10.650004370675065 12.751186604964538 -1 0 0
1852 1 24.337742740903 14.01924049343419 14.309932172921364 0 1 1
2085 1 3.9804361426434336 13.221647980363473 12.36730727072575 0 0 1
1310 1 2.8360365811225625 17.43785655703708 13.839438306788335 0 0 1
3448 1 9.00001686659731 8.903732367254268 18.493933747825345 1 1 0
419 1 3.1892429300150082 15.371680078326014 8.803962110677352 1 -1 0
3572 1 7.208100801541944 11.796899166637475 10.057597184542232 0 1 1
3160 1 9.888864382119289 17.803578729898778 11.18228074409463 0 0 0
331 1 8.466697410125935 13.189457800853518 12.29566845322475 0 1 0
5048 1 14.446618981718737 15.6704702270264 13.30057129969008 0 0 0
200 1 18.748973544795348 18.09044038815368 15.14552520282493 0 -1 0
3628 1 13.40975288277066 15.093870606671246 8.718630428586202 0 1 0
179 1 20.4991096990272 16.55070911483032 13.449742090611533 0 0 0
3309 1 22.011900504128953 12.969628853106922 15.70390000028492 1 1 0
1738 1 0.24948276576581221 18.375553548575574 5.450209401204673 1 0 0
3610 1 3.1562933543960474 20.186041031600983 15.704883084545802 -1 0 0
399 1 4.770160885310252 20.820316544199578 13.232607182406209 0 0 0
5984 1 7.21802110795368 17.686040947418007 10.72635547159935 0 0 0
2943 1 8.853485392207268 21.419766484789793 14.512361079547674 1 1 1
6140 1 11.07592573061163 20.9464639752844 8.723737340482721 1 0 1
3142 1 12.603870441962416 18.48704246620982 13.49817621550463 1 0 0
256 1 16.51253372429423 17.096442824693796 9.88225006315605 1 0 1
6295 1 22.246375540932412 17.554570174450774 11.23796489096381 1 0 1
2832 1 21.45851930536994 18.279105848110852 8.2855512814131 -1 0 1
3044 1 6.360959643283188 22.377666793071374 14.98163325328704 0 0 1
3045 1 10.21128690098637 22.356353867607105 12.38799794704628 1 -1 0
142 1 11.858101941368325 20.342088304394615 11.717721192411771 1 1 0
1827 1 7.3142991492568346 4.757005716839291 5.7430874641467415 0 -1 0
5082 1 1.4630623422882856 13.893762879618336 19.33208925265011 0 0 0
5308 1 20.477530988445775 20.2660494773624 10.226887782456693 0 0 1
4862 1 19.559946786036033 21.587018091039603 13.4484678775414 0 0 0
3427 1 2.9146160413967803 0.9057745817178785 14.794519977381526 1 0 1
268 1 9.715505016316191 11.858431437307447 20.48777414436148 0 -1 0
2954 1 10.999871287230036 1.204799622737163 20.042023289728085 0 1 1
3406 1 22.662504142205016 9.405805649727315 7.545174113099148 0 -1 0
6007 1 11.296612777894877 1.0430796671134184 17.355673046008704 0 1 0
296 1 19.613608068327935 1.475724880317993 17.22380121937684 1 0 1
1373 1 4.362507912701365 21.057687781026953 21.04083290270385 0 1 1
1917 1 22.047116645609663 2.773007142667089 16.71746109684601 0 -1 0
2913 1 20.482569714744933 3.7481348821518785 20.702901911460977 0 -1 1
1617 1 23.488010507239412 6.669101158794836 21.249442050689527 -1 0 0
2141 1 3.3008481061743074 3.331785601235673 18.55964214987427 1 2 0
368 1 23.526655732613314 8.252290112209408 11.412019979777554 0 1 1
1532 1 6.728845612123094 2.0666485687610185 16.266487172985666 0 1 0
4806 1 2.4935649001873883 5.3380621364755 16.68687011630285 0 1 0
3111 1 14.772043129200638 3.9009352775118957 19.11437305077358 0 0 1
4578 1 11.73847445339188 5.659601529262817 14.554826006208664 0 1 0
3068 1 15.333751941570986 6.024796979643481 16.947576279740787 0 -1 1
1931 1 0.8186953157059702 14.26608064663658 8.128890308282143 1 0 0
6116 1 24.20885265453769 6.363456063306851 15.149916918019425 -1 1 0
1383 1 4.546600088501408 20.485983258997763 4.537365704398242 0 1 1
326 1 6.000802552306845 6.4742564217731235 17.124171516430465 1 0 1
3218 1 7.799664813683361 8.08431348164355 16.262508784990892 1 1 1
3414 1 13.591674651657964 10.851844468677735 13.899432152063145 1 0 0
2903 1 11.551297440326255 9.296384507698132 17.33974919901147 1 -1 1
3562 1 15.74662773283738 9.146393422275114 17.31100811268049 0 0 0
1263 1 23.21825570624939 11.45407180582726 13.27871854707156 1 0 1
3619 1 18.22264829863443 20.198182272976858 21.0845658793684 1 0 1
4808 1 16.685897614181236 12.439263280029973 20.08084581166664 0 0 0
4883 1 3.6403695247911494 8.960203164794091 12.823623223384645 1 0 1
3461 1 1.8675423735900434 11.885863055069487 17.51175409211494 1 0 1
4796 1 8.668686880221454 11.763919444629343 17.831532533126286 0 0 1
1681 1 9.204439228597005 12.436297456835845 15.200839136730972 -1 0 1
3722 1 5.980182041538085 9.890358348592029 14.716614250533315 1 0 0
1253 1 14.703503975737332 13.394004181834546 14.680564058636387 1 0 1
264 1 15.838510227157718 11.879200222874584 17.431146155596547 1 -1 0
163 1 21.24158231720098 8.810731923563631 14.971826477538881 0 1 1
392 1 17.359331381887518 14.825923154086288 17.38511474894409 1 2 0
6201 1 20.009506331364847 14.342946747011556 18.316935063351657 0 0 1
6203 1 22.074793092407692 11.900733087866469 18.16482597121702 -1 -1 1
5076 1 20.468331980727005 24.388839363337564 18.908402377385087 -1 0 -1
6050 1 21.03041629164808 7.906305067472778 19.95811839909694 1 1 1
294 1 6.13232659969977 12.77176880969989 17.9025553664031 2 0 0
3464 1 5.817328884133343 14.72153155131324 15.899758259251541 1 1 0
4994 1 3.1012661776907553 15.29976418973829 15.630579616159737 0 1 1
1805 1 11.538140901080295 15.933363155841361 13.09837466491364 -1 0 0
6145 1 10.153249399093411 14.957111030355975 15.392250275731065 0 0 1
2046 1 15.518742316092807 18.391528482865283 14.34353819299804 0 1 1
5061 1 13.866362918656408 18.295098584133594 17.777510506845765 1 0 0
5038 1 17.561688074243435 12.24550694208235 15.247078525523571 0 0 0
6054 1 19.639905733754095 14.080497265413163 15.071577491069277 1 -1 1
1683 1 9.874701769691407 6.856610126271122 20.605006254821234 0 0 0
20 1 6.410849390504797 17.411204807012428 15.825870338358866 0 0 0
3367 1 5.533453307347519 18.16811499068262 13.090825926480933 1 0 0
1978 1 4.91589233483402 18.80924561508781 17.48234902918401 1 0 0
3266 1 16.17546133031063 19.28069480478517 11.940555170929587 -1 0 1
93 1 15.240688897509852 20.69876919105728 16.05277758008232 1 1 1
3721 1 19.56166530819149 21.047420504477966 16.303832391777135 0 0 1
4774 1 18.418186909648476 18.065715358425603 19.308446933992514 2 1 1
3600 1 23.14216758682619 16.502235000381432 14.759469416909075 0 0 0
1997 1 18.978387528362305 19.11407002534814 12.305737890539499 0 0 0
3298 1 16.3682321413499 15.380912186365622 20.224219673335902 1 0 1
4610 1 0.8606976256676498 23.807914164464325 19.301771701428848 0 0 1
4824 1 3.306520429679546 5.0251138983956904 5.013589097349788 0 0 0
1435 1 1.8318689960383492 13.10800509660071 15.043184631846685 0 0 1
5070 1 5.3310219300018495 22.985386730462483 17.71356654139131 2 1 1
5021 1 10.955055194916568 19.644687755994244 15.26522403845932 0 -1 1
4537 1 1.6704046208581833 6.800067472738665 12.425857796928804 -1 0 0
3031 1 6.546577958931825 6.769370804265687 20.152345690171515 0 1 1
3169 1 12.157221717408875 20.67667758013071 17.327823717451068 0 1 1
5079 1 15.718307146076372 22.58581150096393 13.867588191410833 0 -1 -1
1967 1 21.934772042619716 22.598327353360357 16.779461825262068 -1 0 0
5266 1 4.782466364983014 3.1822990582060826 21.154659479982257 1 0 1
3543 1 22.009538251448916 22.96679685520775 13.52393094098578 1 -1 0
6109 1 7.296821802581408 3.0564411804457907 20.221286269500467 0 1 1
1877 1 13.904846525139114 0.45321394627525363 19.325923348816907 0 1 0
4914 1 8.561607941078675 16.109515059515925 4.037574738944393 0 0 0
3519 1 2.938743767200126 5.614126856539593 21.150811714063313 0 0 0
220 1 9.392624800478886 21.604798373259115 18.186208702102057 1 0 0
3453 1 20.010036249489794 21.672302293192217 19.897392698242488 0 0 0
5006 1 6.516751598669298 20.808797552295008 18.86989536692204 1 0 1
3093 1 8.925165642460682 0.13694093940305146 16.325952519000534 0 0 1
215 1 23.24009111195659 3.921152863094864 19.011206377455572 -1 0 0
446 1 7.68077073531675 4.387322618913759 17.64596420406122 -1 1 1
5058 1 10.457949541806933 4.150225878209285 17.275239418181727 1 1 1
3584 1 11.850536873547949 5.598470364099824 19.23310002821757 -1 0 1
4908 1 12.633614069075835 7.003101671988085 16.94671036761397 0 3 1
4542 1 20.627715983456255 5.630612630619187 18.551058063705113 1 1 0
4630 1 4.366431438937793 8.490947438703289 20.642822920882704 1 0 1
2009 1 18.21870732558283 6.61298152145945 17.46407270777673 0 -1 0
6264 1 4.497116429694945 1.3306380198065326 17.279393933083618 0 0 1
6293 1 22.249318171399015 9.107190954484185 17.435801057979518 1 -1 0
301 1 4.191613155082541 10.520087350629625 17.256743881519142 1 -1 0
5031 1 12.23672653688345 11.120847460768596 19.317362309671203 1 1 0
1551 1 23.804844172768924 20.956768782138557 15.064002328729302 -1 1 1
289 1 0.4819659977302669 18.964830461820945 16.547317973062423 1 -1 1
1489 1 24.083370946781127 1.9794906275763282 10.734265563904167 0 1 0
2138 1 19.523759581661107 6.250753669275585 14.740952651272474 0 0 0
3546 1 18.14288431175674 23.79998600622988 9.78097410842538 0 0 0
5088 1 2.279985118320528 22.541975294525574 17.449338611575456 1 0 0
6079 1 22.066722884044076 3.61688585572452 12.577064467134084 0 1 1
1691 1 0.05173301742521265 9.616642369800822 17.68664465668555 0 0 0
3608 1 15.937636469645346 9.299058104266383 20.01679699890194 0 0 0
76 1 13.338165746760172 13.263750060908604 17.998575727689875 1 -1 0
3559 1 8.461419939987728 0.6844073319131346 20.926270204408798 1 1 0
1936 1 18.702969432150578 9.381541389501065 18.515832235293452 0 0 0
4933 1 22.803623383133836 5.705777244940193 10.707157636910875 0 0 1
2934 1 4.411064936541041 1.3162703654438004 10.669268485268251 0 0 1
5976 1 3.8223004241343075 11.391322586027975 20.038974753943492 1 0 1
1919 1 6.757502631368136 14.189022104884275 20.081315375268677 1 -1 1
2987 1 11.922000487762107 15.872530948897813 17.562436991334444 1 -2 1
158 1 10.852607978727479 16.627428912472656 20.07642670415227 1 1 0
258 1 15.009979051195113 23.402178101452904 19.473631708694736 0 0 0
409 1 19.06442144876368 1.3905368141294798 20.586518999570526 0 2 0
3564 1 16.462699266832885 17.369920922180153 17.19584416438108 1 0 0
3025 1 21.932032980871607 16.257537366528563 17.13576862108397 0 0 1
3153 1 12.181938151000095 23.515860600758607 8.02141819891054 0 0 1
3689 1 23.271944989786913 14.652202468117917 19.532311297818076 -2 0 0
5008 1 15.05509478257631 3.0068433668657946 16.261408531001962 0 1 0
6196 1 3.572057686221481 17.408125876703235 19.420302467016896 1 0 1
3096 1 8.935189229404592 17.817680971485007 16.507090237304663 0 0 2
127 1 14.080940751140528 18.71111349430471 20.435912652145397 0 -1 1
2895 1 15.592104108371231 20.925044722441537 20.56422597625863 -1 1 1
1446 1 9.741287788413569 2.8051300360800004 3.8475420774564224 0 0 1
1425 1 22.763937618463142 21.11942573696817 11.717932395774138 0 1 0
5320 1 21.562127721051063 23.24469356753328 9.47480202276492 1 -1 0
3661 1 1.921125774234081 20.964480956630904 12.429060346089399 1 -1 0
341 1 3.5320519972746673 7.8125183024742455 17.807157740217768 0 0 0
3265 1 2.871776918479985 15.405149764648398 11.45378179575123 1 0 1
1941 1 17.85765454635755 23.351763327237755 12.515124357957436 0 1 1
1860 1 3.4280672632939164 15.846347097138226 4.491349209535159 0 0 0
4952 1 1.0426906406323877 1.6105254027346116 18.0610028652564 0 0 0
5181 1 23.91060381647659 8.492079165560831 4.907780786825298 0 0 0
5178 1 20.10668959807164 16.051941516955253 20.56727075133962 0 1 0
203 1 0.32792504565642405 20.6041771803593 7.006342938171249 0 0 0
105 1 0.6653611305875019 9.361031806471654 14.760389604940094 0 0 0
2899 1 23.69407286949235 6.507207738295938 17.998163554665354 0 1 0
4803 1 0.925941880447215 0.5017059454123618 20.655530789699238 2 0 0
3156 1 12.810762214361764 13.782955392832362 21.227542023783087 -1 0 0
1777 1 22.20591584339279 12.653864281221878 3.796524832327617 0 0 0
64 1 5.546466515679054 16.419681953957905 20.93194559227244 0 0 0
3466 1 23.110191027952368 20.50337170134405 21.05523465848329 0 0 0
6101 1 11.346480039590856 19.07332837482944 21.11867679082459 0 0 0
5134 1 6.903638131353233 22.928754384468313 21.17865154756819 1 0 0
4575 1 4.070223726650005 3.508876314804364 23.875906132017494 1 1 1
4585 1 23.882300438264064 9.5029381113726 36.10999418633669 1 1 0
124 1 24.35465023332951 21.098992928190007 35.95185949299258 0 0 0
284 1 10.131073737153201 3.6069657073146724 24.19343644892184 1 0 1
1830 1 14.683765182085427 2.266999087456011 24.702259323127922 0 1 0
334 1 23.02073099497522 6.3664781609546335 36.13369980837004 0 0 0
5128 1 14.07543432054547 15.98233725228455 21.49125337323265 0 1 0
4981 1 1.9231521161635439 2.1358747397497035 24.33120704824929 1 1 0
2871 1 17.144919520840226 3.5204964096024844 24.103707520903914 -1 1 1
3115 1 22.767910616468995 3.545820027315949 35.47441400711135 0 1 0
240 1 24.23150238906617 24.010923911828627 24.08121604207673 0 0 0
3193 1 19.14170193173492 1.1649034208356557 24.681856781960864 1 0 0
92 1 17.70696798705332 0.6231172725209561 38.23066183554681 -1 0 -1
1750 1 6.540456670047864 0.3160390056659915 24.869045140690652 0 1 0
1833 1 20.69210814069466 3.221130278495098 23.576793936506768 1 0 0
2128 1 8.833648375979376 0.9185497912251924 23.592823416985475 0 0 0
4663 1 19.041571683068245 6.719203487954901 21.715324876343743 0 0 1
322 1 20.991255040318798 19.014276492685553 21.935084962546206 1 0 1
1914 1 7.169107303596625 3.5830144441394993 24.712935679653334 0 -1 1
6040 1 23.011957269239804 17.78811997663556 35.568395418390466 0 1 -1
4679 1 12.878980797028621 4.431923161594858 24.058887175864747 0 1 1
1760 1 22.340990607997906 1.2274680224090324 24.691285034642398 0 1 0
1739 1 0.1971112982341822 21.33123240622792 35.98789135979547 1 0 -1
3673 1 8.87603322381049 21.99857968444956 24.079130848251967 0 0 1
111 1 23.231403695324246 4.809610418257922 24.29939124181649 1 2 1
4835 1 0.07370432821814003 2.7143524192455417 21.89305648845555 0 1 0
413 1 4.021694033118006 8.495383256467408 23.47038159657777 1 0 0
428 1 10.341020157604222 9.40501526121531 22.169200771021732 1 0 1
223 1 6.583557946547491 8.349848509130762 24.093405390786124 1 0 1
6232 1 1.2657478474113824 15.386954139879364 24.417482450592097 1 0 1
3055 1 6.550361545831744 5.62180311061437 22.99602924748371 0 0 0
4804 1 8.947932600754042 4.6153590301264575 21.967158004272434 0 1 1
2856 1 6.266873724450082 0.5218296228616829 35.93467882376662 0 0 0
4439 1 13.897878742555573 23.927152898352027 37.91163504429831 1 0 0
3078 1 13.617726623630796 9.246058970647479 24.448294745587727 0 0 1
170 1 15.75089084273991 10.901588609890906 24.349549337820182 0 0 0
1340 1 10.217500123307913 22.670547043582577 35.73122882737579 2 -1 0
3127 1 16.795926999725136 6.573883457566539 24.44154633925049 1 0 0
3376 1 19.69143230728457 5.762641634482277 24.200277407203544 0 1 1
297 1 20.110709941972456 8.934449227794797 24.13777171032438 1 1 1
4787 1 23.086729924187633 7.640638561136781 23.790018933132185 0 0 1
4766 1 2.039648241341716 10.623932023737751 24.100159465430245 0 1 1
4604 1 3.1677730198698684 12.943738856756635 24.239986459532307 1 0 1
5039 1 8.26166524446204 10.564357428264245 24.64017488808878 1 0 0
293 1 11.230533271049033 10.539064040942595 24.81870243270347 0 0 0
1479 1 20.02222450265979 2.738405296039493 35.581779741829806 0 0 0
1424 1 23.857133957595664 0.37601888295909114 21.81040556649781 0 0 1
3626 1 14.515783269643178 13.86325086784039 24.444797286882427 0 0 0
3080 1 17.315335592543487 9.10068490318872 23.071287253138703 0 1 1
379 1 19.32970483276678 11.5245492304804 22.629465348169376 0 1 0
2864 1 18.858285785553306 21.516592365354054 36.21070284100665 0 0 0
2116 1 23.478378586083938 10.592632937150395 24.35139580058396 0 1 0
6063 1 3.706681421650585 18.778901782142697 38.41800805705121 0 1 0
243 1 1.4709865508842155 0.941631904812627 35.87832332388206 1 0 0
395 1 1.6214524505559749 10.512126207387803 21.315338734236192 1 0 0
6137 1 20.34541841164383 19.3763250584267 38.44126964672047 0 -1 0
3621 1 20.97929644722368 0.08022769480928035 22.30473164218611 0 0 0
537 1 5.925937887712971 12.484875522430231 23.878008149883325 0 1 1
1984 1 18.269067115389856 4.824020236746061 35.93933432618542 0 1 0
3047 1 9.574945596350412 14.837279010148341 23.862567577722515 0 0 1
246 1 7.01127337750124 14.803259902326985 24.806687725564977 1 1 0
497 1 11.779500423632497 13.341426219163402 24.394411355844714 -1 1 1
3498 1 1.81106922056833 23.795057591279722 24.33591060156394 1 -1 0
1757 1 17.71652998408934 13.425941314649899 24.043098522047504 0 1 0
4571 1 9.111890456333244 6.164943971189967 37.5062867935719 0 0 0
1851 1 21.81068438541754 12.946283667500554 23.860824993256045 0 1 1
3598 1 18.174998072738116 15.708368375741847 22.681398116254588 1 0 0
5103 1 22.877915918111775 15.573600413288805 24.16506324747925 0 1 0
374 1 15.692816296872639 22.309418985458862 24.216805215315755 0 -1 0
60 1 19.662414059528242 24.284133501297507 24.520801438028023 0 1 1
4995 1 2.1825986395760886 20.80867597467825 24.49425201493928 0 0 0
1704 1 6.217007833388276 21.04019225863441 35.6022534209663 0 1 -1
3296 1 3.205673804618644 17.790957133356272 24.331635693148378 1 0 0
2061 1 5.658928782519889 16.99472755380757 23.717068677476707 0 0 0
2897 1 3.538493135871613 0.4754965495412771 21.485769576117967 0 1 1
3404 1 21.04556671781012 23.24709256344357 38.43538306704552 1 0 -1
5954 1 2.1500209282072773 7.092238874865264 38.48172090664936 0 0 0
1800 1 13.666061758287006 16.835183646464603 23.92216771047998 1 0 0
3469 1 14.913738328597406 1.1572424698727548 21.82908081432567 -1 0 0
1401 1 14.695466842934334 12.085784623460995 21.95192191440744 0 0 1
420 1 17.48372838168928 20.14449705344099 23.974592927191598 -1 0 0
2002 1 20.455161285850835 16.753170931733944 24.432494644706022 0 0 0
1722 1 20.328743087818435 19.607318865793655 24.637098386730045 1 0 1
3056 1 5.120338652972876 21.154612861057757 24.0044456521735 -1 0 1
3303 1 21.40250387538784 20.07659686952871 35.554257811602625 1 1 -1