
# Create simulation box and atoms

read_data data.ML_graphite_m500atm_250K
  orthogonal box = (0 0 1.82651) to (49.22 49.0196 26.1135)
  8 by 5 by 2 MPI processor grid
  reading atoms ...
  4063 atoms
  reading velocities ...
  4063 velocities
group water type 1
1303 atoms in group water
group graphite type 2
2760 atoms in group graphite

# Define potential

pair_style sw
pair_coeff * * MLC_e.sw mW C


# Fix graphite atoms in place

fix 5 graphite setforce 0.0 0.0 0.0
velocity graphite set 0.0 0.0 0.0


# Equilibration of molecular water

# Add velocity/set timestep

velocity	    water create ${TEMP} ${SEED} rot yes dist gaussian
velocity	    water create 250 ${SEED} rot yes dist gaussian
velocity	    water create 250 28880 rot yes dist gaussian
timestep	    5.0

# Define output

compute			1 water msd
compute			3 water temp
thermo	    	50
thermo_style	custom step temp press vol etotal ke pe c_1[4] c_3

# Neighbor lists

neigh_modify    delay 0 every 1 check yes

# Set fixes

fix             1 water momentum 10 linear 1 1 1 rescale
fix             2 water nve
fix             3 water temp/csvr ${TEMP} ${TEMP} 500.0 ${SEED}
fix             3 water temp/csvr 250 ${TEMP} 500.0 ${SEED}
fix             3 water temp/csvr 250 250 500.0 ${SEED}
fix             3 water temp/csvr 250 250 500.0 28880
fix             4 water press/berendsen z ${PRES} ${PRES} 1000.0 modulus 20000
fix             4 water press/berendsen z -500 ${PRES} 1000.0 modulus 20000
fix             4 water press/berendsen z -500 -500 1000.0 modulus 20000

# Run 0.5 ns equilibration

dump		    1 all atom 2000 ${DIR}/eq.${NAME}-${TEMP}.dump
dump		    1 all atom 2000 run_16/eq.${NAME}-${TEMP}.dump
dump		    1 all atom 2000 run_16/eq.het_freeze_16-${TEMP}.dump
dump		    1 all atom 2000 run_16/eq.het_freeze_16-250.dump

reset_timestep  0

run	            100000
Neighbor list info ...
  update every 1 steps, delay 0 steps, check yes
  max neighbors/atom: 2000, page size: 100000
  master list distance cutoff = 6.67472
  ghost atom cutoff = 6.67472
  binsize = 3.33736, bins = 15 15 8
  1 neighbor lists, perpetual/occasional/extra = 1 0 0
  (1) pair sw, perpetual
      attributes: full, newton on
      pair build: full/bin/atomonly
      stencil: full/bin/3d
      bin: standard
Per MPI rank memory allocation (min/avg/max) = 4.096 | 4.284 | 4.472 Mbytes
Step Temp Press Volume TotEng KinEng PotEng c_1[4] c_3 
       0    80.132939   -1249.8493    58598.323   -12595.461    970.25367   -13565.715            0          250 
      50    80.935285   -1397.9216     58531.71   -12579.861    979.96851   -13559.829   0.54234931    252.50317 
     100    82.999306   -1042.7252    58494.389   -12574.455    1004.9598   -13579.415    0.9091962    258.94253 
     150    82.056534   -1306.6548    58502.156   -12577.527    993.54465   -13571.072    1.1884763    256.00126 
     200    81.967218   -805.64885    58494.225   -12573.968    992.46321   -13566.431    1.4782478    255.72261 
     250    78.779127   -1057.3676    58511.228    -12605.13    953.86165   -13558.991    1.7790433    245.77636 
     300    76.360859   -1021.7752    58556.959   -12631.492    924.58113   -13556.073    1.9681429     238.2318 
     350    80.377473   -917.15336    58534.156   -12589.273    973.21449   -13562.487    2.1403088     250.7629 
     400    82.077087   -1161.1568    58534.534   -12529.552    993.79351   -13523.345    2.3931554    256.06538 
     450    82.822226   -999.29712    58586.433   -12550.373    1002.8157   -13553.189    2.5372517    258.39008 
     500    82.806133   -1109.8995    58570.494   -12548.877    1002.6208   -13551.498    2.7138472    258.33987 
     550    81.336184   -1405.1728    58601.056   -12570.449    984.82262   -13555.272    2.9576067     253.7539 
     600    80.532434   -1167.6682    58616.206   -12579.513    975.09077   -13554.604    3.2617521    251.24635 
     650    80.663671   -961.47232    58650.438   -12593.477    976.67979   -13570.157    3.4924456    251.65578 
     700     81.19752   -1205.1633    58631.035   -12590.395    983.14367   -13573.538    3.7956161     253.3213 
     750     79.60148   -1106.9724     58614.55   -12596.069    963.81873   -13559.888    4.0994425    248.34194 
     800    79.390074    -1525.245    58615.757   -12604.014    961.25902   -13565.273    4.4086668     247.6824 
     850    80.749155   -1293.2989    58564.313   -12598.292    977.71484   -13576.007    4.5607111    251.92248 
     900    77.686993   -1498.1856    58510.635   -12625.412    940.63803    -13566.05    4.8633639     242.3691 
     950    80.067172   -1363.2662    58439.443   -12586.875    969.45735   -13556.332    5.1657527    249.79482 
    1000    80.936575   -889.90736    58413.951   -12566.828    979.98414   -13546.812     5.429266     252.5072 
    1050    83.381897   -691.99757    58373.869   -12577.087    1009.5922   -13586.679    5.7053912    260.13615 
    1100    79.528752   -838.04992    58370.165   -12621.661    962.93814   -13584.599    5.9475241    248.11505 
    1150    77.992586   -1125.9273    58338.468   -12655.118    944.33816   -13599.456    6.1649064    243.32249 
    1200     76.18185   -1163.4128    58323.182   -12635.888    922.41368   -13558.302    6.3709717    237.67333 
    1250    79.225825   -708.41644    58351.481   -12621.035    959.27029   -13580.305    6.5538103    247.16997 
    1300    80.058076   -1182.9271    58368.383   -12618.704    969.34722   -13588.052    6.6107032    249.76644 
    1350    82.303462    -1196.663     58375.49   -12591.418    996.53447   -13587.952    6.7448246    256.77163 
    1400    78.545353   -1024.3388    58397.362   -12606.313     951.0311   -13557.344    6.9667754    245.04702 
    1450    78.617169   -1048.0001    58361.119   -12593.871    951.90065   -13545.772      7.17656    245.27108 
    1500    79.940281   -1249.2112    58364.016   -12585.127    967.92096   -13553.048    7.4053392    249.39894 
    1550    80.151118   -921.33016    58409.408   -12590.628    970.47378   -13561.101    7.4908958    250.05672 
    1600    82.479737   -646.74005    58466.273   -12571.578    998.66881   -13570.246    7.7691696    257.32157 
    1650     81.37489   -939.88965    58487.354    -12533.36    985.29127   -13518.651    8.0370974    253.87466 
    1700    80.957321   -737.39413    58504.483   -12554.591    980.23532   -13534.826     8.151605    252.57192 
    1750    81.684908   -978.78041    58555.528   -12557.327    989.04498   -13546.372    8.2857019    254.84185 
    1800    80.782067   -674.69033     58598.51   -12576.742    978.11334   -13554.856    8.6439732    252.02516 
    1850    79.606203    -1147.674    58585.494   -12604.364    963.87593    -13568.24    8.8507118    248.35668 
    1900    82.067195    -956.0699    58535.167   -12627.604    993.67374   -13621.278    9.1645704    256.03452 
    1950    79.586007   -836.19387    58504.383   -12627.191    963.63138   -13590.823    9.3353453    248.29367 
    2000    80.945841   -842.68864    58446.532   -12619.722    980.09632   -13599.818    9.7116982     252.5361 
    2050    81.286367   -751.52159    58500.142   -12617.117    984.21944   -13601.336    9.8523129    253.59848 
    2100    80.841934   -915.04472    58512.924   -12619.683    978.83821   -13598.522    10.078315    252.21193 
    2150    81.298585     -952.484    58546.742   -12633.949    984.36736   -13618.317    10.364001     253.6366 
    2200    79.401222   -1418.0716    58514.964   -12633.408    961.39401   -13594.802      10.7111    247.71718 
    2250    78.871873   -1696.0196    58514.601    -12661.19    954.98462   -13616.174    10.956725    246.06571 
    2300    77.610687   -1084.9802    58454.812   -12646.071    939.71411   -13585.785    11.153008    242.13104 
    2350     80.02684   -1114.4473    58491.902   -12652.682    968.96902   -13621.651    11.290922    249.66899 
    2400     80.15576   -1033.0456    58592.444   -12680.274    970.52999   -13650.804    11.555616     250.0712 
    2450    79.413227   -1240.3744    58618.254   -12663.391    961.53936    -13624.93    11.547587    247.75463 
    2500    80.468355    -926.6121    58672.925   -12672.686     974.3149   -13647.001    11.496696    251.04643 
    2550    78.096552   -1131.5376    58686.366   -12656.069    945.59699   -13601.666    11.510339    243.64685 
    2600    76.740987   -1066.5346    58736.101   -12619.158    929.18375   -13548.342    11.700591    239.41774 
    2650    80.214317   -1147.3253    58765.815   -12613.676    971.23899   -13584.915    11.946542    250.25388 
    2700    81.055262   -621.02966    58778.904   -12611.621    981.42119   -13593.042    12.099438    252.87747 
    2750    79.855616   -1423.3577     58727.33   -12627.352    966.89583   -13594.248    12.344876     249.1348 
    2800    76.191866   -1214.2454     58695.15   -12649.677    922.53495   -13572.212    12.432436    237.70458 
    2850    78.399454   -1068.6951    58641.876   -12675.631    949.26454   -13624.895    12.745424    244.59184 
    2900    79.991153   -1149.3647    58668.183   -12644.754    968.53691   -13613.291     13.01101    249.55765 
    2950     79.99232   -722.13944    58680.307   -12632.137    968.55104   -13600.688    13.148172    249.56129 
    3000    78.542854   -1293.6508    58699.596   -12652.983    951.00083   -13603.984    13.385708    245.03923 
    3050    81.121934   -931.00907    58737.631   -12633.133    982.22846   -13615.361    13.463071    253.08548 
    3100     79.53838   -749.23644    58707.437   -12614.129    963.05471   -13577.184    13.633908    248.14508 
    3150    80.082711   -1275.1691     58724.71   -12627.048    969.64551   -13596.694    13.859729     249.8433 
    3200    79.575734   -1329.9101    58680.127    -12596.63      963.507   -13560.137    13.947456    248.26162 
    3250    83.320042    -683.8921    58731.673   -12602.673    1008.8433   -13611.516      14.1869    259.94317 
    3300    79.832913   -1110.1109    58795.529   -12627.318    966.62094   -13593.938    14.450607    249.06397 
    3350    77.477507   -1116.2309    58813.594   -12629.931    938.10156   -13568.032    14.415575    241.71554 
    3400    78.380849   -832.55036    58834.742   -12650.248    949.03927   -13599.287    14.455582     244.5338 
    3450      77.9521   -1193.5995    58812.583   -12656.351    943.84795   -13600.199    14.554638    243.19618 
    3500     80.45039   -1140.3185    58832.884   -12650.749    974.09737   -13624.847    14.968993    250.99039 
    3550    76.497467   -859.99974    58851.676    -12683.38    926.23519   -13609.615    15.191997      238.658 
    3600    79.039542   -1120.2712     58869.47   -12698.598    957.01476   -13655.613    15.687583     246.5888 
    3650    78.831988   -986.95235    58862.659   -12697.449    954.50168   -13651.951    15.858853    245.94127 
    3700    79.468613   -1039.4459    58856.736   -12671.814    962.20997   -13634.024    16.193701    247.92742 
    3750    75.459534   -1278.6308    58862.288    -12670.35    913.66784   -13584.017    16.438681    235.41984 
    3800    80.587908   -858.12367     58879.14   -12644.902    975.76246   -13620.665    16.860824    251.41942 
    3850    80.035238   -875.23039    58904.117   -12661.273     969.0707   -13630.343    16.978257    249.69519 
    3900      79.2773   -1150.1763    58873.316   -12645.113    959.89355   -13605.007     17.36468    247.33056 
    3950    78.553019   -1154.2766    58881.761   -12633.283    951.12392   -13584.407    17.499374    245.07094 
    4000    79.881281   -1068.5699    58816.119   -12611.756    967.20658   -13578.962    17.686266    249.21487 
    4050    79.993041   -894.14065    58762.236   -12616.498    968.55978   -13585.058    17.984705    249.56354 
    4100    78.490309   -1117.9554    58721.164   -12637.771    950.36462   -13588.136    18.391779     244.8753 
    4150    79.495974   -1017.3007    58685.541   -12633.049    962.54126    -13595.59    18.632666    248.01279 
    4200    80.492256   -1149.2833    58648.809   -12603.611     974.6043   -13578.215    18.737451      251.121 
    4250    81.643859   -927.37533    58657.281   -12615.322    988.54797    -13603.87    18.723651    254.71379 
    4300    79.538147   -1202.6604    58674.651   -12606.256     963.0519   -13569.308    18.835705    248.14436 
    4350    79.042424   -1143.2825    58665.909   -12646.766    957.04966   -13603.816    18.979164    246.59779 
    4400    76.974132   -1017.0139    58662.367    -12606.79    932.00667   -13538.797    19.250144     240.1451 
    4450     80.99843    -851.3612    58685.886   -12595.358    980.73307   -13576.091    19.477852    252.70017 
    4500     79.90745   -1046.8013    58663.327   -12583.292    967.52344   -13550.816    19.689964    249.29651 
    4550    77.677357    -1053.246    58678.749   -12627.162    940.52135   -13567.683    20.006102    242.33904 
    4600    78.009319   -698.10187    58711.761   -12625.171    944.54076   -13569.712    20.350102    243.37469 
    4650    81.548982   -926.13025    58670.808   -12607.736    987.39919   -13595.135    20.425822    254.41779 
    4700    77.741586   -774.11685    58655.097   -12605.828    941.29905   -13547.128    20.593229    242.53942 
    4750    79.654929   -829.40834    58752.595   -12616.142     964.4659   -13580.608     20.74972     248.5087 
    4800    77.980285   -1198.9668    58781.031   -12621.389    944.18922   -13565.578    21.095964    243.28412 
    4850    81.847568   -801.64759     58790.08   -12604.432    991.01448   -13595.447    21.315063    255.34932 
    4900    78.779309   -584.26717    58805.228   -12603.931    953.86385   -13557.794    21.457579    245.77692 
    4950    82.877186   -902.65657    58755.456   -12598.189    1003.4811   -13601.671    21.795739    258.56154 
    5000    79.292463   -732.80372    58657.141   -12620.298    960.07714   -13580.375     22.28874    247.37787 
    5050    81.377498   -858.20908     58709.49   -12619.824    985.32285   -13605.147    22.586648    253.88279 
    5100    79.097462   -841.97815    58679.894   -12626.264    957.71606    -13583.98     22.90032     246.7695 
    5150    78.656143   -1221.2609    58710.152   -12630.995    952.37255   -13583.367      23.2035    245.39267 
    5200     79.49629   -1244.5313    58747.948    -12609.57    962.54508   -13572.115    23.435849    248.01377 
    5250     78.11742     -848.112    58755.529   -12580.972    945.84966   -13526.822    23.521966    243.71195 
    5300    78.825289   -1116.6892    58832.987   -12572.995    954.42058   -13527.416    23.434841    245.92037 
    5350    80.158408   -1254.3676    58790.499   -12578.178    970.56204    -13548.74    23.521247    250.07946 
    5400    81.772453   -1717.3594    58676.872   -12571.946    990.10499   -13562.051    23.626952    255.11498 
    5450    83.100229   -828.26262     58614.51   -12564.283    1006.1818   -13570.465    23.745758     259.2574 
    5500    80.772539   -1756.7435    58558.631   -12561.458    977.99797   -13539.456    24.108556    251.99543 
    5550     80.17114   -1142.0815    58546.418   -12575.137     970.7162   -13545.854    24.125393    250.11918 
    5600    81.821107   -1054.4765    58508.264   -12596.969    990.69409   -13587.663    24.334014    255.26677 
    5650    81.957822   -863.59608    58509.557   -12594.008    992.34944   -13586.358    24.657792     255.6933 
    5700    81.622716   -1048.6183    58514.178   -12589.645    988.29196   -13577.937    24.853591    254.64783 
    5750    80.002212   -1041.3529    58505.986   -12569.616    968.67082   -13538.287    24.884944    249.59215 
    5800    81.123414   -999.28913    58500.087   -12588.376    982.24638   -13570.622    24.817323     253.0901 
    5850    78.753715   -1133.3599    58518.803   -12597.971    953.55395   -13551.525    24.871205    245.69707 
    5900    76.618396   -1377.3631    58468.226   -12619.845     927.6994   -13547.545    25.057134    239.03527 
    5950    76.662575   -1335.8451    58426.886   -12652.429    928.23433   -13580.664    25.337815     239.1731 
    6000    81.767551   -1038.1507    58473.902   -12593.299    990.04564   -13583.345    25.688924    255.09969 
    6050    81.855868   -1303.0952     58524.25   -12623.098    991.11498   -13614.213    26.194626    255.37522 
    6100    79.556348   -890.64867    58525.307   -12631.116    963.27228   -13594.388    26.432391    248.20114 
    6150     79.92683   -1266.4186    58515.377   -12631.363    967.75809   -13599.122    26.857178    249.35698 
    6200    82.985669   -1180.6623     58483.32   -12605.967    1004.7947   -13610.762    27.335522    258.89999 
    6250    80.915912   -879.08036     58490.95   -12570.292    979.73394   -13550.026    27.757546    252.44273 
    6300    80.698148   -1455.7059    58432.536   -12582.113    977.09724   -13559.211    27.874228    251.76335 
    6350    78.717757   -1090.0763    58439.574   -12611.598    953.11857   -13564.717     28.18358    245.58489 
    6400     80.48232   -988.60319    58483.757   -12587.696    974.48399    -13562.18    28.393602       251.09 
    6450    79.166033   -1014.2457    58508.557   -12589.439    958.54632   -13547.986    28.661675    246.98343 
    6500    80.680329   -1115.6824    58488.317   -12575.147    976.88149   -13552.029    28.697893    251.70776 
    6550     77.60291     -1065.75    58480.184   -12582.667    939.61995   -13522.287    28.881037    242.10677 
    6600    81.398224   -1098.7121    58540.063   -12585.191     985.5738   -13570.765    29.275886    253.94746 
    6650    80.521996   -1166.7411    58595.469   -12586.181    974.96438   -13561.146    29.652674    251.21378 
    6700     81.40337   -1226.2473    58582.664   -12590.859    985.63611   -13576.495    29.892337    253.96351 
    6750    81.108606   -1002.3373    58641.536   -12586.444    982.06709   -13568.511    30.230235     253.0439 
    6800    80.623677   -1233.3996    58648.056   -12584.773    976.19555   -13560.969    30.583758    251.53101 
    6850    78.814477   -1233.9847    58584.206   -12581.975    954.28966   -13536.264    30.732422    245.88664 
    6900    81.008089   -1013.6221    58583.276   -12585.242    980.85003   -13566.092    30.947424    252.73031 
    6950    77.422454   -1079.0156    58657.241   -12615.128    937.43497   -13552.563    31.440933    241.54378 
    7000    77.779559   -923.41433    58707.093   -12631.599    941.75882   -13573.358    31.824936    242.65789 
    7050    77.391328   -921.72193    58710.492    -12639.97     937.0581   -13577.028      31.9434    241.44668 
    7100    76.278849    -908.4417     58741.27   -12639.944    923.58815   -13563.532    32.232588    237.97595 
    7150    79.365063   -784.26956    58766.537   -12619.196    960.95618   -13580.152    32.274199    247.60437 
    7200    79.828877   -997.67174    58767.139   -12599.314    966.57207   -13565.886    32.193819    249.05138 
    7250    80.239958   -1208.1323    58798.885   -12603.485    971.54946   -13575.034    32.199176    250.33388 
    7300    81.744178    -1361.017    58797.444   -12591.721    989.76263   -13581.484    32.318242    255.02677 
    7350    78.945452   -1284.6726    58769.628   -12596.523    955.87551   -13552.399    32.364982    246.29526 
    7400    81.650486    -1168.574    58720.218   -12558.734     988.6282   -13547.362    32.562534    254.73447 
    7450    81.371011   -745.65251    58724.978   -12561.808    985.24431   -13547.053    32.742172    253.86256 
    7500    80.906192    -1185.057    58753.059   -12576.703    979.61626   -13556.319      32.6959    252.41241 
    7550    81.872469   -1020.5985    58811.135   -12583.176    991.31599   -13574.492    32.807466    255.42701 
    7600    80.147337   -1326.9043    58765.796   -12574.172    970.42799     -13544.6    33.109751    250.04492 
    7650    84.796431   -1107.0513    58809.784   -12545.686    1026.7195   -13572.405    33.618888    264.54923 
    7700    79.769676   -1057.6658     58760.68   -12550.538    965.85526   -13516.394    34.200441    248.86668 
    7750    81.242012   -1709.9067    58706.537   -12585.257    983.68237   -13568.939    34.423586     253.4601 
    7800    78.466314   -1041.4681    58657.214   -12573.374    950.07409   -13523.448    34.807213    244.80044 
    7850    80.298848   -658.77659    58663.381   -12563.153     972.2625   -13535.415    35.165823     250.5176 
    7900    79.591255    -976.0264    58652.012   -12553.398    963.69492   -13517.093    35.286237    248.31004 
    7950    80.347879   -633.78895    58658.126   -12580.748    972.85617   -13553.604    35.484092    250.67057 
    8000    79.169643   -821.38108     58648.29   -12575.122    958.59003   -13533.712    35.864626    246.99469 
    8050     80.66777   -1230.0013    58693.891   -12563.619    976.72943   -13540.349    35.985208    251.66857 
    8100    82.741186   -929.82218    58701.949   -12563.905    1001.8345   -13565.739     36.29292    258.13725 
    8150    81.385166   -1073.1101     58665.03   -12559.054    985.41569    -13544.47    36.397005    253.90672 
    8200    80.067318   -812.76935    58658.626   -12578.076    969.45912   -13547.535    36.490178    249.79527 
    8250    80.392228   -710.50654    58662.138   -12607.712    973.39316   -13581.105    36.572179    250.80893 
    8300    79.670026   -717.48155    58714.529   -12637.455     964.6487   -13602.103    36.716805     248.5558 
    8350    80.118404   -620.08645     58781.22   -12645.742    970.07768    -13615.82    37.191223    249.95465 
    8400    79.060646   -834.66564    58804.398   -12649.461    957.27028   -13606.731    37.584698    246.65464 
    8450    77.091499   -1252.5919     58749.19   -12674.552    933.42775   -13607.979    37.834357    240.51127 
    8500     78.13621   -952.30931    58682.463   -12650.518    946.07717   -13596.595    38.310291    243.77057 
    8550    80.102244   -1008.4345    58665.799   -12631.499      969.882   -13601.381    38.298598    249.90423 
    8600    78.228578   -1099.3806    58689.046   -12615.145    947.19557   -13562.341    38.235366    244.05874 
    8650      84.9504   -1184.4763    58693.045   -12602.985    1028.5837   -13631.568      38.6173    265.02959 
    8700    78.934078    -877.8631    58658.435   -12624.317     955.7378   -13580.055    38.497587    246.25977 
    8750    83.049801   -1253.1783    58630.877   -12591.296    1005.5712   -13596.868    38.572485    259.10007 
    8800    79.022166   -881.42459    58624.055   -12580.176    956.80437   -13536.981    38.686253    246.53459 
    8850    81.515885   -815.95793    58679.009   -12578.825    986.99844   -13565.824    38.813414    254.31453 
    8900    78.504209   -1029.2845    58713.581   -12600.744    950.53292   -13551.277    39.175936    244.91866 
    8950    80.977282   -657.25306    58760.388    -12570.63    980.47702   -13551.107    39.498942    252.63419 
    9000     83.51975    -770.8474    58755.537   -12562.701    1011.2613   -13573.963    39.680326    260.56622 
    9050    81.150704   -842.30164    58745.757   -12564.781    982.57682   -13547.358    40.198413    253.17524 
    9100    78.660788   -786.40995    58705.822   -12581.472    952.42879   -13533.901    40.346519    245.40716 
    9150    83.578673   -918.98363    58748.619   -12594.033    1011.9748   -13606.008    40.492951    260.75005 
    9200    80.500776   -915.33365    58825.589   -12618.943    974.70746    -13593.65    40.637013    251.14758 
    9250    78.023805   -808.82169    58899.023   -12642.779    944.71617   -13587.496    40.647456    243.41989 
    9300    80.075104   -1227.1044    58854.533   -12630.347     969.5534     -13599.9    40.760385    249.81957 
    9350    81.744855   -1452.4113    58807.353   -12611.126    989.77083   -13600.897    40.672263    255.02888 
    9400    83.110862   -779.97777    58769.345   -12573.511    1006.3105   -13579.821    40.522746    259.29057 
    9450      79.9078   -960.11724    58785.921   -12554.464    967.52767   -13521.992    41.087354    249.29761 
    9500    82.234127   -1030.1108    58809.495     -12568.4    995.69495   -13564.095    41.183163    256.55532 
    9550    79.786709   -1246.9865    58754.862   -12589.859    966.06149   -13555.921      41.4542    248.91982 
    9600    78.467692   -964.93875    58747.187   -12608.553    950.09077   -13558.644    41.781523    244.80474 
    9650    78.071813   -948.33364    58756.754     -12622.3    945.29745   -13567.598    42.019216    243.56967 
    9700    79.870387   -1463.8531     58761.59   -12648.362    967.07468   -13615.437     42.05994    249.18089 
    9750    74.674756   -1108.9537     58747.89   -12643.221    904.16571   -13547.387    42.396061    232.97147 
    9800     78.34344   -1118.4303    58749.732   -12618.835    948.58632   -13567.421    42.752181    244.41709 
    9850    80.492334   -1222.1331    58753.076   -12578.931    974.60523   -13553.537    42.901374    251.12124 
    9900    80.229886   -1382.7993    58747.357   -12577.638    971.42751   -13549.066    42.953896    250.30246 
    9950    79.705865   -1001.4629    58719.191   -12593.918    965.08263   -13559.001    43.122036    248.66761 
   10000    79.136863   -705.34112    58690.835   -12572.071    958.19313   -13530.264     43.63084    246.89243 
   10050    79.558228   -1247.2974    58706.324   -12549.302    963.29504   -13512.598    43.419235    248.20701 
   10100    82.595763   -638.07881    58749.703   -12558.601    1000.0737   -13558.674    43.438371    257.68356 
   10150    78.589681   -1089.6913     58801.15   -12568.501    951.56782   -13520.069    43.885831    245.18532 
   10200    81.116352   -796.78413    58769.907    -12543.21    982.16088   -13525.371    44.265163    253.06807 
   10250    77.510682   -578.63509     58741.31   -12562.551    938.50324   -13501.054    44.681948    241.81904 
   10300    77.847744   -881.80139    58746.047   -12597.631    942.58441   -13540.215    45.221767    242.87061 
   10350    77.776679   -917.05416    58799.883   -12615.891    941.72396   -13557.615    45.718317     242.6489 
   10400    78.160275   -674.23025    58862.028   -12610.381    946.36856    -13556.75    46.094359    243.84565 
   10450    80.131531   -815.26039    58830.296   -12588.183    970.23662    -13558.42    46.421237    249.99561 
   10500    79.308591   -934.29231    58833.352   -12596.909    960.27242   -13557.181    46.559844    247.42818 
   10550    81.372729   -1179.2804    58883.276   -12570.068    985.26511   -13555.333    46.975457    253.86792 
   10600    79.168326   -927.00036    58912.929   -12575.227    958.57409   -13533.801    47.058109    246.99059 
   10650    78.697065   -1398.8694    58873.792   -12616.771    952.86803   -13569.639    47.371182    245.52034 
   10700    77.057135   -955.33754    58875.047   -12619.792    933.01167   -13552.804    47.101566    240.40406 
   10750    80.577005   -1432.6432     58849.25   -12593.431    975.63044   -13569.061    47.252542     251.3854 
   10800    82.550284   -1391.7152     58774.88   -12601.101      999.523   -13600.624    47.838604    257.54167 
   10850    84.305821   -993.72316    58760.549   -12606.953    1020.7791   -13627.732    48.362787    263.01862 
   10900    81.308855   -897.71885    58793.901   -12603.555    984.49171   -13588.046    49.061301    253.66864 
   10950    82.077673   -771.04627    58895.235   -12581.859     993.8006    -13575.66    49.472093    256.06721 
   11000    78.833083   -858.82681    58860.312   -12595.687    954.51494   -13550.201     49.46885    245.94469 
   11050    81.616503   -1312.2222    58827.062   -12614.079    988.21674   -13602.296    50.018811    254.62845 
   11100    82.514475   -924.61404    58821.547   -12578.595    999.08943   -13577.684    50.262748    257.42995 
   11150    81.435103   -1122.3759    58766.606   -12579.204    986.02033   -13565.225    50.344117    254.06251 
   11200    81.393044   -788.22786    58774.959   -12588.485    985.51108   -13573.996    50.516778    253.93129 
   11250    83.017321   -918.94479    58804.033   -12585.494    1005.1779   -13590.672     50.91481    258.99874 
   11300    78.846843   -1017.9271    58865.683   -12587.287    954.68155   -13541.968    50.845333    245.98762 
   11350    81.489617   -672.09552    58859.073    -12572.13    986.68039   -13558.811    51.038755    254.23258 
   11400    78.504646   -1084.4695    58799.982   -12606.924    950.53822   -13557.462    51.461453    244.92003 
   11450    78.769182   -1095.5025    58750.244    -12633.49    953.74123   -13587.231     51.72713    245.74533 
   11500    78.876772   -926.77143    58695.012   -12650.222    955.04394   -13605.266    51.789622    246.08099 
   11550    80.848045   -775.10571    58711.565   -12635.546    978.91221   -13614.458    52.350141      252.231 
   11600    79.452779     -1144.86     58695.86   -12662.768    962.01825   -13624.786     52.58493    247.87802 
   11650    79.739569   -721.83938    58675.005   -12668.269    965.49072    -13633.76     52.81782    248.77276 
   11700    78.670637   -709.25277    58747.433   -12635.798    952.54804   -13588.346    53.326186    245.43789 
   11750    77.657606   -745.50952    58781.545   -12666.455    940.28221   -13606.737    53.596903    242.27742 
   11800    81.714935   -957.82719    58736.012   -12612.568    989.40855   -13601.977    53.901969    254.93553 
   11850     81.90474   -1198.1157    58723.431   -12600.565    991.70672   -13592.271    54.267624    255.52769 
   11900    81.558716   -942.78035    58705.973   -12616.633    987.51705    -13604.15    54.285616    254.44816 
   11950    79.936455   -969.56947    58762.659   -12641.762    967.87463   -13609.637    54.491847      249.387 
   12000    78.507014   -515.05462    58763.708   -12641.766    950.56688   -13592.333    54.775475    244.92741 
   12050     78.66405    -949.5975     58783.72   -12649.108    952.46828   -13601.576    54.949198    245.41733 
   12100    77.731075   -809.85505    58794.125    -12645.96    941.17178   -13587.132    54.787414    242.50663 
   12150    79.316563   -1028.9529    58784.629   -12681.501    960.36894    -13641.87    54.946221    247.45306 
   12200    81.192741    -702.7966    58795.966   -12692.492     983.0858   -13675.578    55.423802    253.30639 
   12250    76.794792   -714.25353    58826.057     -12670.9    929.83521   -13600.735    55.825391    239.58559 
   12300    77.689527   -1164.6151    58816.201   -12670.702    940.66871    -13611.37    55.941764      242.377 
   12350     81.20645   -1392.6886     58794.32   -12627.659    983.25179   -13610.911     56.40572    253.34915 
   12400    79.472465   -975.08162    58817.454   -12605.298    962.25661   -13567.555    56.589315    247.93944 
   12450    80.368342   -922.25124    58862.644   -12606.197    973.10394   -13579.301    57.059387    250.73441 
   12500    80.337564   -1174.0481    58909.737    -12611.31    972.73128   -13584.041    57.240559    250.63839 
   12550    80.919937   -1282.4755    58931.952   -12629.541    979.78268   -13609.324    57.161693    252.45529 
   12600    78.488043   -1600.7928    58915.038   -12637.262    950.33718   -13587.599    57.228812    244.86823 
   12650    78.356685   -1136.6176     58864.23   -12651.339     948.7467   -13600.085    57.229355    244.45842 
   12700    81.254277   -1133.9603    58876.502   -12615.055    983.83088   -13598.886    57.332553    253.49837 
   12750    81.296938   -633.72571     58917.83   -12581.719    984.34743   -13566.066    57.469246    253.63146 
   12800    80.133425   -940.90365    58890.702   -12570.153    970.25955   -13540.412    57.563533    250.00152 
   12850    82.356628   -711.67387    58901.668    -12589.72    997.17821   -13586.899    57.505192     256.9375 
   12900    79.692061   -1203.2395    58897.906   -12594.935    964.91549    -13559.85    57.571716    248.62454 
   12950    82.091547   -815.36832    58853.337    -12551.56    993.96859   -13545.529    57.909448    256.11049 
   13000    81.654817   -967.85208    58851.575   -12554.788    988.68065   -13543.469    58.269187    254.74798 
   13050    80.030122    -952.9613    58927.137   -12597.535    969.00875   -13566.544    58.626735    249.67923 
   13100    79.386504    -903.4272    58930.668   -12597.016     961.2158   -13558.232     58.80754    247.67126 
   13150    78.927741   -1173.5028    58869.292   -12591.355    955.66107   -13547.016    58.760171       246.24 
   13200    82.316203   -1081.5145      58899.5   -12585.372    996.68873    -13582.06    59.214009    256.81138 
   13250    79.851462   -913.20254    58853.415   -12597.202    966.84553   -13564.048    59.293477    249.12184 
   13300    79.467101   -817.73937    58853.097   -12621.128    962.19167   -13583.319    59.465475    247.92271 
   13350    77.130023   -771.36957    58886.486   -12650.562    933.89421   -13584.456    59.817674    240.63145 
   13400    78.866462   -804.97938    58889.073   -12650.213     954.9191   -13605.132    60.363581    246.04882 
   13450     81.80133   -1034.4976     58901.71    -12642.87    990.45463   -13633.324    60.465019    255.20507 
   13500    78.424784   -971.26247    58836.567   -12637.329    949.57124     -13586.9    60.762252    244.67087 
   13550    79.619846   -968.95989    58841.358    -12631.57    964.04111   -13595.611     60.98795    248.39924 
   13600    79.516295   -902.71549    58768.871   -12644.305     962.7873   -13607.092    60.995329    248.07618 
   13650    80.482344   -1291.6441    58793.147   -12648.937    974.48428   -13623.421    61.027902    251.09008 
   13700    81.211978   -1179.5873    58761.742   -12637.224    983.31872   -13620.543    61.169253     253.3664 
   13750    82.220436    -1095.207    58768.788   -12617.578    995.52918   -13613.107    61.274798     256.5126 
   13800    80.110038   -686.28705    58796.108   -12620.987    969.97638   -13590.964    61.237271    249.92855 
   13850    77.812886   -836.15029    58864.938   -12671.005    942.16235   -13613.168    61.412687    242.76186 
   13900     76.24873   -825.18267    58894.843   -12675.455    923.22347   -13598.679    61.752183    237.88198 
   13950    79.651523   -1217.9701     58932.12   -12674.871    964.42466   -13639.296    61.960945    248.49807 
   14000    78.427165   -857.60975    58932.328   -12672.768    949.60006   -13622.368    62.096786     244.6783 
   14050    80.016967   -1136.8933    58910.508   -12641.619    968.84947   -13610.468    62.740014    249.63819 
   14100    76.299352   -1352.3943    58880.954   -12695.462     923.8364   -13619.299    62.986106    238.03991 
   14150    78.282773   -877.35662    58876.699   -12677.165    947.85177   -13625.017    63.067775    244.22782 
   14200    79.188151   -899.66216    58929.043   -12685.374    958.81413   -13644.188    63.676261    247.05244 
   14250    79.252838   -1144.6559    58924.593    -12671.43    959.59736   -13631.028    64.377956    247.25425 
   14300    78.637495   -1186.9898    58968.684   -12673.978    952.14675   -13626.125    64.575051    245.33449 
   14350    80.313335   -1054.2978    58976.176    -12659.59    972.43791   -13632.028    64.953792     250.5628 
   14400    77.104613   -1167.0567    59022.823   -12659.552    933.58654   -13593.138    65.128779    240.55218 
   14450    77.872104    -1550.832    58999.261   -12666.332    942.87936   -13609.211    65.176639    242.94661 
   14500    79.744973   -909.42025    59008.745   -12627.408    965.55615   -13592.964    65.096683    248.78962 
   14550    78.769948   -840.57717    59021.528   -12631.985     953.7505   -13585.735    65.034152    245.74772 
   14600    79.588709     -1126.31    59074.936   -12621.677     963.6641   -13585.341    65.036428     248.3021 
   14650    81.344938   -1062.2497    59131.974   -12622.924    984.92861   -13607.853    65.019443    253.78121 
   14700    80.864659   -808.71674    59137.736   -12616.634    979.11337   -13595.747    64.907462    252.28283 
   14750    82.037714   -1042.9488    59195.498   -12600.392    993.31678   -13593.709     65.01426    255.94254 
   14800     80.77926   -859.73496    59144.497   -12620.574    978.07935   -13598.654    64.963384     252.0164 
   14850    83.472244   -1225.6717    59093.713   -12591.809    1010.6861   -13602.495    65.028509    260.41802 
   14900    81.401926   -1183.1204    59039.982   -12648.295    985.61862   -13633.913    64.933451      253.959 
   14950    80.659153   -1158.7686    58992.444   -12617.986    976.62509   -13594.611     64.97168    251.64169 
   15000    81.302504   -1189.9735    58991.517   -12629.697    984.41482   -13614.111    65.558103    253.64883 
   15050      80.9326   -954.34571    59002.371   -12597.207      979.936   -13577.143    65.930892    252.49479 
   15100     83.21161   -888.82524    59003.513   -12601.047    1007.5304   -13608.578    65.786569    259.60489 
   15150    79.792265   -724.01172    59028.788   -12627.616    966.12877   -13593.745    65.956334    248.93716 
   15200    79.538852   -1029.9672    59042.516    -12602.58    963.06044   -13565.641    65.906601    248.14656 
   15250    81.663034   -1629.7642    59025.323   -12617.378    988.78013   -13606.158    65.588212    254.77361 
   15300    82.592855   -1166.2585    59009.843   -12621.166    1000.0385   -13621.204    65.732632    257.67448 
   15350    76.987672    -1069.281    58985.308   -12660.184    932.17062   -13592.355    65.848491    240.18735 
   15400    83.157039   -548.09829    59042.032   -12614.957    1006.8696   -13621.827    65.896676    259.43463 
   15450    79.657501   -1246.4771      59061.1   -12618.377    964.49704   -13582.874    66.218243    248.51672 
   15500    79.397057   -1152.9332    59027.241   -12614.243    961.34357   -13575.587    66.239459    247.70418 
   15550     80.16209   -1017.5981    59054.227   -12582.429    970.60663   -13553.035    66.483074    250.09094 
   15600    78.738026   -1239.6171    59084.067   -12575.369    953.36399   -13528.733    66.862548    245.64813 
   15650    79.260692   -861.43096    59054.443   -12593.155    959.69246   -13552.848    66.808232    247.27875 
   15700    80.423747   -1686.6865    59022.976   -12598.152    973.77479   -13571.927    66.862288    250.90727 
   15750    81.904695   -967.79611    59024.789   -12574.308    991.70618   -13566.014    67.267333    255.52755 
   15800    81.322046   -1348.4796    58955.896   -12607.404    984.65143   -13592.055    67.283652    253.70979 
   15850    80.443372   -1145.4791    58983.172   -12586.976    974.01241   -13560.988    67.277766    250.96849 
   15900    79.292313   -990.60132    58994.197   -12596.862    960.07532   -13556.937    67.311569     247.3774 
   15950    81.790598   -1173.4862    59017.371   -12555.465    990.32468   -13545.789    67.321352    255.17159 
   16000    77.464839   -1417.2196    58969.939   -12583.981    937.94818   -13521.929    67.888194    241.67602 
   16050    81.410796   -1356.0591    58958.692   -12622.434    985.72603    -13608.16    67.955619    253.98668 
   16100    82.509966   -1241.6708    58982.118   -12602.548    999.03483   -13601.583     67.98894    257.41588 
   16150    81.570889   -843.27023    58977.397   -12597.019    987.66444   -13584.684     68.17216    254.48614 
   16200    82.449734   -1314.0088    58986.294   -12620.947    998.30554   -13619.252    68.454439    257.22797 
   16250    79.479457   -945.11541    59041.552   -12654.325    962.34128   -13616.666    68.645383    247.96126 
   16300    76.783149   -1207.3725    59003.409   -12669.725    929.69424   -13599.419    68.996151    239.54927 
   16350    77.137754    -1268.925    59007.913   -12690.697    933.98781   -13624.685    68.909721    240.65557 
   16400    79.627472   -1000.6342    58977.347   -12668.347    964.13345   -13632.481    68.958697    248.42304 
   16450    81.760171   -1118.2683    58951.272   -12638.893    989.95627   -13628.849    69.073563    255.07666 
   16500     82.11118    -1291.367    58946.502   -12637.314    994.20631    -13631.52    69.469901    256.17175 
   16550     79.81478   -959.94631    58999.151   -12647.924    966.40138   -13614.326    69.841826     249.0074 
   16600    79.259789   -888.33281    58986.564   -12621.725    959.68152   -13581.406    69.994573    247.27593 
   16650    84.744194   -539.99667    59017.638   -12613.193     1026.087    -13639.28    70.147404    264.38626 
   16700    79.514398   -1262.7464    59029.929   -12636.786    962.76434    -13599.55    70.186725    248.07027 
   16750    84.668976   -972.59412     59079.92   -12597.086    1025.1762   -13622.262    70.271452     264.1516 
   16800     84.26148   -1238.6598    59106.331    -12589.69    1020.2422   -13609.932    70.526884    262.88028 
   16850    83.138552   -852.28856    59112.131   -12586.508    1006.6458   -13593.154     70.51062    259.37696 
   16900    82.900562   -1070.3691    59145.217   -12598.047    1003.7642   -13601.811     70.89883    258.63447 
   16950    82.996396   -851.29527    59121.417   -12620.306    1004.9245   -13625.231    71.427914    258.93346 
   17000    80.003026   -880.52597     59137.38   -12609.521    968.68067   -13578.202    71.976322    249.59469 
   17050    77.811487   -901.75269    59136.984   -12637.604    942.14541    -13579.75    71.851464     242.7575 
   17100    81.004135    -1112.104    59078.431   -12655.605    980.80215   -13636.407    72.240745    252.71797 
   17150    81.780302    -972.9226    59087.221    -12599.33    990.20002    -13589.53    72.765622    255.13947 
   17200     86.91672   -721.05272    59053.973   -12560.116     1052.392   -13612.508     73.46064    271.16415 
   17250    83.518651   -939.14705    59068.134   -12578.212     1011.248    -13589.46    74.001155    260.56279 
   17300     82.41075   -764.17576    59056.611   -12598.303    997.83352   -13596.137    74.349621    257.10635 
   17350    77.998406    -1162.467    59001.875   -12624.165    944.40864   -13568.573    74.166513    243.34065 
   17400    79.831185   -1330.7949    58992.405   -12630.549    966.60001   -13597.149    74.319807    249.05858 
   17450    80.738281   -1389.2032    58954.384   -12630.835    977.58317   -13608.418    74.225794    251.88855 
   17500    78.958673   -1280.8731     58940.53   -12643.202    956.03559   -13599.238    74.221949     246.3365 
   17550    79.208177    -985.5686    58986.097   -12631.148     959.0566   -13590.205    74.673045    247.11491 
   17600    77.971612   -673.32774    59008.387    -12646.17    944.08421   -13590.254    74.941479    243.25706 
   17650    78.119998   -1035.6523    59052.033   -12662.861    945.88088   -13608.742    75.195856    243.71999 
   17700    78.748603   -1336.7717    59070.445    -12617.71    953.49206   -13571.202    75.568412    245.68113 
   17750    79.771826   -1165.0572    59002.215   -12598.561    965.88129   -13564.442    75.552273    248.87339 
   17800     82.11435   -1197.7027    59012.587   -12608.911    994.24469   -13603.155    75.927547    256.18164 
   17850    81.861377   -1103.2578    58985.397   -12591.876    991.18168   -13583.057    75.742882    255.39241 
   17900    79.208938   -1041.1876    58998.988       -12574    959.06581   -13533.066    75.436493    247.11728 
   17950    77.535938   -1399.6124    59007.265   -12610.988    938.80905   -13549.797    75.572135    241.89783 
   18000     80.50619   -1413.1083    58969.681   -12633.139    974.77301   -13607.912    75.792832    251.16447 
   18050    81.023961   -1113.5805    58926.674    -12611.22    981.04221   -13592.262    76.245418    252.77982 
   18100    79.042236   -1100.4346    58835.092   -12612.054    957.04737   -13569.102    76.670716    246.59721 
   18150    78.690578   -1136.5496        58756   -12612.028    952.78948   -13564.817    77.372023     245.5001 
   18200    82.013221   -1010.1124    58696.775   -12608.028    993.02022   -13601.048    77.323253    255.86613 
   18250    82.471489   -883.09094    58681.055   -12626.845    998.56895   -13625.414    77.379611    257.29584 
   18300    81.065743   -621.74305     58614.59    -12626.97     981.5481   -13608.518    77.403053    252.91017 
   18350    81.838341   -1169.9679    58592.608   -12586.899    990.90276   -13577.801    77.458359    255.32054 
   18400    80.155794   -1009.9049    58512.462   -12590.531     970.5304   -13561.062    77.565227     250.0713 
   18450    80.208197    -798.7825    58481.371    -12632.25     971.1649   -13603.415    77.709172    250.23479 
   18500    79.840846    -699.1945    58476.025   -12644.848    966.71699   -13611.565     77.45221    249.08872 
   18550    79.550969   -1243.6022    58458.867    -12663.26    963.20715   -13626.467    77.667695    248.18436 
   18600    79.882836   -1294.0987    58446.179   -12624.171    967.22541   -13591.397    77.649173    249.21972 
   18650    80.650335   -1049.3355    58471.494   -12620.122    976.51833    -13596.64    77.560593    251.61418 
   18700    81.601592   -734.26723     58460.94    -12591.05    988.03619   -13579.087    77.712865    254.58192 
   18750    79.452255   -906.55485     58470.82   -12607.252    962.01191   -13569.263    77.645203    247.87639 
   18800    79.790921   -1171.9696     58537.21   -12605.707    966.11249    -13571.82    78.077119    248.93297 
   18850    80.303042   -1290.2153    58545.159   -12608.756    972.31328   -13581.069    78.711322    250.53069 
   18900     79.95126   -888.18475    58506.719   -12638.548    968.05389   -13606.602    79.278994    249.43319 
   18950    78.961654   -1285.8144    58433.738   -12639.047    956.07169   -13595.119    79.396485    246.34581 
   19000     82.66376   -1096.0315    58409.027   -12613.552     1000.897   -13614.449    79.591954    257.89569 
   19050    80.951654   -1014.6489    58420.796   -12613.011     980.1667   -13593.178    79.817031    252.55424 
   19100    80.055716    -1142.733    58481.178   -12630.484    969.31865   -13599.803    79.993191    249.75908 
   19150    79.849244   -1106.8591    58470.567   -12651.458    966.81867   -13618.277    80.115665    249.11492 
   19200    78.660948   -932.53525    58484.901   -12647.577    952.43072   -13600.007    80.226931    245.40766 
   19250    80.078843   -745.04808    58456.491   -12658.138    969.59867   -13627.737    79.952009    249.83123 
   19300    75.791469   -1271.2343    58440.603   -12673.872    917.68693   -13591.559     79.94272    236.45541 
   19350    80.081852   -1038.9668    58482.478   -12633.541     969.6351   -13603.176    80.178528    249.84062 
   19400    79.989833   -1253.2113    58530.857   -12650.076    968.52094   -13618.597    80.442205    249.55354 
   19450     79.75934    -1012.338    58529.551    -12642.09    965.73012    -13607.82    80.873351    248.83444 
   19500    79.604973   -1294.8827    58536.734    -12647.88    963.86103   -13611.741    81.053854    248.35284 
   19550    79.898589   -783.35821    58534.296   -12656.861    967.41614   -13624.278    81.217142    249.26887 
   19600    79.059876   -960.34343    58539.449   -12676.719    957.26097    -13633.98    81.162877    246.65224 
   19650    81.976825   -1171.8103    58587.108   -12629.765    992.57953   -13622.345     80.98174    255.75258 
   19700    81.822537   -969.66694    58651.001    -12604.92     990.7114   -13595.631    80.769358    255.27123 
   19750    82.063909   -894.06406    58690.234   -12597.478    993.63394   -13591.112    80.932947    256.02427 
   19800    80.400313    -909.9308    58664.795   -12598.523    973.49104   -13572.014    80.894414    250.83416 
   19850    81.761313   -928.75507     58651.54   -12591.296     989.9701   -13581.266    81.363186    255.08023 
   19900    79.555363   -1396.8526    58572.447   -12604.739    963.26035   -13567.999     81.60495    248.19807 
   19950     80.76993    -1130.117    58527.833   -12598.647    977.96639   -13576.614     82.47679    251.98729 
   20000    79.475612   -1345.6055    58455.254    -12600.14    962.29471   -13562.434    83.162386    247.94926 
   20050    78.774765   -1204.9141     58431.42   -12586.233    953.80883   -13540.042    83.352403    245.76275 
   20100    80.608624   -567.84062    58478.639   -12557.761    976.01328   -13533.774    83.955405    251.48405 
   20150    82.970586    -915.1154    58532.093    -12577.13     1004.612   -13581.742     84.27206    258.85294 
   20200    78.461599   -982.02055    58542.771   -12606.698      950.017   -13556.715    84.591701    244.78573 
   20250    85.074468   -631.23692    58564.847   -12588.846     1030.086   -13618.932    85.165382    265.41666 
   20300    80.254235   -1005.6862     58590.39   -12555.882    971.72233   -13527.604    85.227069    250.37842 
   20350    83.661996   -916.71232    58607.689   -12553.054    1012.9837   -13566.037    85.847441    261.01001 
   20400    81.449031   -1111.5744    58626.619   -12557.432    986.18897   -13543.621    85.724704    254.10596 
   20450    80.249501   -1342.3383    58565.531   -12596.257    971.66501   -13567.922    85.860835    250.36365 
   20500    79.335821   -1199.2743    58499.826   -12598.154    960.60212   -13558.757    86.136041    247.51314 
   20550    81.375987   -1381.5841    58436.082   -12598.952    985.30455   -13584.257    86.017884    253.87808 
   20600    78.523446   -1102.5897    58443.259   -12630.423    950.76584   -13581.189    86.248996    244.97868 
   20650    79.881436   -988.71485    58402.876   -12633.064    967.20846   -13600.273    86.327246    249.21536 
   20700     80.48242   -1471.1425    58355.433   -12628.375     974.4852   -13602.861    86.625488    251.09032 
   20750    80.155353   -1049.3509    58309.309   -12599.893    970.52505   -13570.418    86.859405    250.06992 
   20800    79.924406   -1090.6602    58317.373   -12602.713    967.72874   -13570.442    86.662039    249.34942 
   20850      82.9302   -835.82814    58325.639   -12571.742     1004.123   -13575.865    86.615674    258.72694 
   20900    80.218747   -1071.4753    58374.066   -12561.122    971.29263   -13532.414    86.741646     250.2677 
   20950    82.356229   -1021.9839    58406.712   -12559.901    997.17337   -13557.074    87.399272    256.93625 
   21000    79.843474   -1120.9725    58389.474    -12559.66     966.7488   -13526.409    87.569247    249.09692 
   21050    81.996101   -1080.2728    58353.294   -12551.378    992.81293   -13544.191    87.829109    255.81272 
   21100    81.269862   -807.74393    58386.612   -12552.371    984.01958   -13536.391    88.097326    253.54699 
   21150    82.490094   -1183.2594    58407.594   -12558.276    998.79422   -13557.071    88.677687    257.35389 
   21200    83.038983   -1346.1756     58324.89   -12568.448    1005.4402   -13573.888    89.219273    259.06632 
   21250    75.879636   -1303.2226    58292.759   -12589.738    918.75446   -13508.492    89.623539    236.73048 
   21300    82.090535   -1153.6897    58250.681   -12592.429    993.95633   -13586.385    89.929614    256.10734 
   21350    78.882041   -1096.2783      58210.3   -12610.723    955.10773    -13565.83    90.554629    246.09743 
   21400    79.832561   -1112.5669    58214.323   -12601.826    966.61668   -13568.442    90.728774    249.06287 
   21450    78.292223   -804.11512    58212.998   -12607.505    947.96618   -13555.471    90.985155     244.2573 
   21500    77.773854   -1292.9681    58181.598   -12613.658    941.68975   -13555.348    91.547698    242.64009 
   21550     79.46363   -1207.6463     58183.82   -12629.445    962.14964   -13591.595    91.689846    247.91188 
   21600    80.246346   -1111.6279    58162.082   -12578.944     971.6268   -13550.571     92.02966    250.35381 
   21650    77.319775   -1045.6893    58112.895   -12562.089    936.19173   -13498.281    92.126516    241.22344 
   21700    80.954264   -1128.8729    58074.936   -12564.884    980.19831   -13545.082    92.843049    252.56238 
   21750    80.140597   -1160.0398    58114.806    -12552.25    970.34639   -13522.597     93.05424    250.02389 
   21800    80.088156   -952.92492     58149.12   -12570.121    969.71143   -13539.832    93.344337    249.86028 
   21850    81.409627   -1165.9426    58138.803   -12557.847    985.71187   -13543.559    93.583678    253.98303 
   21900    77.351566   -883.16908    58144.273   -12570.952    936.57666   -13507.528    93.905999    241.32263 
   21950    78.145489   -951.52876    58204.102   -12567.068    946.18952   -13513.258    93.950085    243.79952 
   22000    80.969993   -905.55336    58255.556   -12566.627    980.38876   -13547.016     94.03654    252.61145 
   22050    79.472206   -1139.5048    58301.367   -12605.735    962.25348   -13567.988    94.260093    247.93863 
   22100    79.115305   -926.10561     58290.32   -12610.295     957.9321   -13568.227    94.446022    246.82517 
   22150    80.440306   -1356.9742    58281.547   -12614.458    973.97528   -13588.433      95.4996    250.95893 
   22200    77.940715   -942.33895    58262.437   -12590.363     943.7101   -13534.073    95.777171    243.16066 
   22250    81.429439   -1182.4878     58268.83   -12564.774    985.95175   -13550.726     96.09495    254.04484 
   22300    81.838373    -947.8206    58285.068   -12544.161    990.90315   -13535.064    96.366222    255.32064 
   22350    80.428557   -922.09057    58346.045   -12534.698    973.83302   -13508.531    96.861386    250.92227 
   22400    77.818325   -1314.5987    58352.245   -12546.012     942.2282   -13488.241    96.709583    242.77883 
   22450    81.049641   -1382.7843    58303.442   -12552.106    981.35314   -13533.459    96.916481    252.85994 
   22500    82.828545    -1284.984     58274.96   -12583.563    1002.8922   -13586.455    96.591609    258.40979 
   22550    76.473379   -1412.4882     58210.96   -12578.592    925.94353   -13504.536      96.9799    238.58285 
   22600    81.328097   -1388.4711    58272.523   -12539.706    984.72469   -13524.431    97.139171    253.72867 
   22650    81.701789   -1365.6612    58179.609     -12535.8    989.24938   -13525.049    97.363742    254.89452 
   22700     78.44311   -846.95359    58191.259    -12587.92    949.79313   -13537.713    97.446661    244.72804 
   22750    81.780799   -866.40965    58232.519   -12569.531    990.20604   -13559.737    97.936522    255.14102 
   22800    79.864552   -1134.3353    58275.994   -12573.277    967.00402   -13540.281    97.843126    249.16268 
   22850    79.882943   -1141.7627    58247.101   -12576.669     967.2267   -13543.895    98.035648    249.22006 
   22900    78.797434   -1182.3875    58199.135   -12616.797    954.08331    -13570.88    98.174561    245.83347 
   22950    77.420534   -979.09481    58202.912   -12571.189    937.41173   -13508.601    98.294756    241.53779 
   23000    80.281163   -1187.6922     58192.57   -12556.596    972.04837   -13528.644    98.510185    250.46243 
   23050    81.269139   -839.15047    58192.036    -12539.84    984.01083   -13523.851    98.732928    253.54473 
   23100    80.318017   -541.49444    58203.688   -12584.294     972.4946   -13556.788    98.666536    250.57741 
   23150    78.159128   -997.61128    58234.604   -12598.201    946.35466   -13544.556    98.754171    243.84207 
   23200    78.543971   -975.87479    58263.655   -12600.201    951.01436   -13551.215    98.368505    245.04271 
   23250    80.284676   -897.86292    58207.984   -12580.196    972.09091   -13552.287    98.554198    250.47339 
   23300    80.463872   -936.99333    58225.394   -12569.605    974.26061   -13543.866    98.444563    251.03245 
   23350    82.568026   -624.65246    58267.133   -12571.523    999.73782   -13571.261     98.39477    257.59702 
   23400     80.15374   -1109.4874    58358.599   -12576.315    970.50553    -13546.82    98.781142    250.06489 
   23450    82.290306    -522.7195    58427.199   -12570.583    996.37517   -13566.958    98.985728    256.73059 
   23500    80.381722   -338.14644    58500.072   -12579.834    973.26594     -13553.1    99.605331    250.77616 
   23550    82.224329   -694.26622    58582.446   -12573.561    995.57632   -13569.138    99.596261    256.52475 
   23600    79.033603   -440.39552    58609.559   -12566.624    956.94285   -13523.567    99.659228    246.57027 
   23650    80.828765   -1011.1799     58635.92   -12547.753    978.67877   -13526.432    100.51305    252.17085 
   23700    79.668673   -731.65967     58637.04   -12562.618    964.63231    -13527.25    100.91008    248.55158 
   23750    76.000044   -956.46667    58657.526   -12588.601    920.21236   -13508.814    101.42726    237.10613 
   23800    78.139688   -793.93665    58689.137   -12565.317    946.11928   -13511.436    101.66366    243.78142 
   23850    78.440851   -825.18536    58716.293   -12564.672    949.76577   -13514.438    101.69176    244.72099 
   23900    80.128379   -1127.8413    58764.721   -12578.661    970.19845    -13548.86    101.90721    249.98577 
   23950     80.48727   -1119.1909    58815.315   -12546.929    974.54392   -13521.472    101.76488    251.10545 
   24000    82.408225   -1189.2838    58828.413   -12544.864    997.80294   -13542.667    101.32268    257.09847 
   24050    80.128084   -1372.0816    58823.889   -12543.663    970.19488   -13513.858    101.34225    249.98485 
   24100    81.131912   -1018.0762     58787.08   -12540.801    982.34928    -13523.15    102.02594    253.11661 
   24150    79.798618    -1076.028     58787.24   -12542.092    966.20568   -13508.298    102.31434    248.95698 
   24200    80.384582   -843.18004    58836.093   -12557.185    973.30057   -13530.486    102.41894    250.78508 
   24250    80.759274   -1410.0265     58843.54    -12557.17    977.83736   -13535.008    102.73652    251.95405 
   24300    79.440287   -985.61376    58829.343   -12565.798      961.867   -13527.665    102.70558    247.83905 
   24350    78.393338   -1312.8153    58809.131   -12587.649    949.19048   -13536.839    102.88938    244.57276 
   24400    81.502463   -771.71864    58797.264       -12572    986.83593   -13558.836      102.944    254.27266 
   24450    82.286754   -1329.2741     58755.07   -12558.732    996.33216   -13555.064    103.21879     256.7195 
   24500    81.157589   -1026.9639    58791.024    -12552.32    982.66018    -13534.98    102.89371    253.19672 
   24550    79.588292   -1080.3185    58806.575   -12592.099    963.65905   -13555.758    103.06806     248.3008 
   24600    80.427559   -1117.3788    58798.162   -12573.568    973.82094   -13547.389    103.06669    250.91916 
   24650    78.832723   -1320.1602    58752.199    -12580.81    954.51058    -13535.32    103.53201    245.94356 
   24700    80.241617   -1114.7227    58715.061   -12558.727    971.56954   -13530.296    103.48298    250.33905 
   24750    82.799559   -881.39855    58711.378   -12520.991    1002.5412   -13523.532     103.3855    258.31936 
   24800    81.427982   -1383.1661    58696.062   -12528.674    985.93411   -13514.608    103.38154    254.04029 
   24850    81.730757   -1383.3832    58743.003   -12532.515    989.60012   -13522.115    103.27301     254.9849 
   24900     82.24221   -1136.5993    58720.576   -12556.044    995.79283   -13551.836    104.19969    256.58054 
   24950    78.911277   -875.46125    58717.689   -12542.483    955.46173   -13497.945    104.93232    246.18864 
   25000    80.714297    -1221.341    58691.539   -12538.617    977.29278   -13515.909    105.31541    251.81373 
   25050     82.67749   -818.22921    58695.089   -12530.729    1001.0632   -13531.792    105.21872    257.93853 
   25100    80.548263   -1293.6041    58681.194   -12558.515    975.28243   -13533.798    105.52844    251.29573 
   25150    80.211621   -1020.7326    58640.351   -12566.761    971.20635   -13537.967    105.74919    250.24547 
   25200    78.752924   -1439.4707     58598.42   -12598.217    953.54437   -13551.762     105.5699    245.69461 
   25250    84.629869   -741.16652    58656.106   -12562.187    1024.7027    -13586.89     105.3443    264.02959 
   25300    81.074609   -1331.5785    58643.652   -12535.151    981.65545   -13516.806    106.11155    252.93783 
   25350    79.403585   -1044.7272    58606.665   -12555.966    961.42261   -13517.388    106.27652    247.72455 
   25400    79.241107    -1136.378    58551.519   -12570.099    959.45532   -13529.554    106.08699    247.21765 
   25450    80.684881   -1236.8093     58498.11   -12571.784     976.9366    -13548.72    106.32294    251.72195 
   25500     82.92904   -1129.7443    58511.453    -12553.52     1004.109   -13557.629    106.62099    258.72332 
   25550    77.634137   -897.94033     58482.53   -12569.714    939.99804   -13509.712    106.94113     242.2042 
   25600    83.612766   -808.56548    58562.349   -12542.129    1012.3876   -13554.517    107.04952    260.85642 
   25650    80.352745   -829.93462    58664.993   -12541.353    972.91508   -13514.268    106.87586    250.68575 
   25700    80.008242   -1079.0558    58713.809   -12538.155    968.74383   -13506.899    106.76593    249.61097 
   25750     84.24802   -1314.1451    58693.717   -12502.507    1020.0793   -13522.586    107.39995    262.83829 
   25800    81.202062   -1560.6399     58659.74   -12527.917    983.19866   -13511.115    107.67073    253.33546 
   25850    81.596998    -915.8989    58635.027   -12495.878    987.98056   -13483.858    107.80052    254.56759 
   25900    81.628288   -1199.4528    58599.722    -12521.63    988.35943   -13509.989    108.56923    254.66521 
   25950    81.824791   -775.83453    58534.511   -12500.142    990.73869    -13490.88    109.18442    255.27826 
   26000    83.679439   -1451.3931    58460.392    -12482.35    1013.1949   -13495.545      109.529    261.06442 
   26050    85.009505   -789.23748    58369.948   -12511.575    1029.2994   -13540.875    110.12447    265.21399 
   26100    83.492573   -1230.1191    58330.788   -12530.525    1010.9323   -13541.457    110.47014    260.48144 
   26150    83.009778   -1624.6594    58324.706   -12517.619    1005.0866   -13522.706     110.3747    258.97521 
   26200    87.504175   -881.32026    58265.371   -12490.929     1059.505   -13550.434    110.29772     272.9969 
   26250     84.35177   -556.06486    58328.647   -12531.254    1021.3355   -13552.589    110.67106    263.16197 
   26300     81.10897    -365.0494    58381.511   -12549.598     982.0715   -13531.669    110.90228    253.04504 
   26350    80.503674    -1295.223    58378.264   -12548.099    974.74255   -13522.841    111.63309    251.15662 
   26400    79.927342   -902.13975    58359.208   -12564.752    967.76428   -13532.516    112.25275    249.35857 
   26450    79.508211   -966.58753    58317.592   -12573.187    962.68943   -13535.877    112.65178    248.05096 
   26500    80.108756   -1184.5758    58305.911   -12589.482    969.96085   -13559.443    112.78309    249.92455 
   26550    79.970791   -1141.4547    58325.732   -12581.392    968.29037   -13549.682    113.15886    249.49413 
   26600     81.92848   -664.70291    58348.376   -12584.098    991.99417   -13576.092    113.51758    255.60176 
   26650    80.359003   -945.44094    58367.841   -12550.511    972.99086   -13523.501    114.00648    250.70528 
   26700    79.022537   -804.83809    58355.798   -12563.723    956.80886   -13520.532    114.39443    246.53575 
   26750    82.610261   -952.74314    58400.433   -12545.902    1000.2492   -13546.152    114.69394    257.72879 
   26800    79.664149   -1195.0835     58444.82   -12579.656    964.57753   -13544.233    114.95561    248.53746 
   26850    82.624687    -1015.489    58464.268   -12563.469    1000.4239   -13563.893    114.98626    257.77379 
   26900    83.070096   -1020.6424    58483.539   -12542.645    1005.8169   -13548.462     114.4648    259.16339 
   26950     81.15629    -887.1402    58510.775   -12527.211    982.64445   -13509.855    114.98284    253.19267 
   27000    81.196649   -1204.5575    58563.943   -12565.108    983.13312   -13548.241    114.88259    253.31858 
   27050    81.517318    -1047.133    58563.427   -12578.022     987.0158   -13565.038    114.31359    254.31901 
   27100    77.072066    -1366.546    58551.938   -12629.437    933.19247    -13562.63    114.32063    240.45064 
   27150    77.926743   -953.33859    58588.784   -12632.329    943.54093    -13575.87    114.33159    243.11707 
   27200    78.371267   -578.89885    58541.403    -12648.62    948.92326   -13597.543    114.03561    244.50391 
   27250    81.465737   -874.00366    58598.046   -12634.049    986.39125   -13620.441    114.49484    254.15808 
   27300      76.2954   -913.13512    58642.815   -12615.508    923.78855   -13539.296    114.97631    238.02758 
   27350    81.397894   -767.30845    58691.696    -12555.72    985.56981    -13541.29     115.5142    253.94643 
   27400    80.938305   -1078.5544    58709.782   -12541.359    980.00508   -13521.364    115.23833    252.51259 
   27450    81.148803   -1237.8506      58704.1   -12557.327     982.5538   -13539.881    115.37293    253.16931 
   27500    83.106139   -1091.4947    58710.611   -12549.916    1006.2533   -13556.169    115.43837    259.27583 
   27550    82.255586   -1246.2863    58683.421   -12557.766    995.95478   -13553.721    115.66471    256.62227 
   27600    82.154453   -857.38638    58699.916   -12547.854    994.73026   -13542.584    115.76031    256.30675 
   27650    82.010358   -889.34995    58702.943   -12535.041    992.98554   -13528.027    115.72265     255.8572 
   27700    79.710835   -933.56151    58654.345   -12590.589    965.14281   -13555.731    115.93857    248.68311 
   27750    80.191587    -835.8846    58621.801   -12575.107    970.96378   -13546.071    116.05942    250.18297 
   27800    81.664016    -797.7848    58621.921   -12577.882    988.79203   -13566.674    117.14473    254.77668 
   27850    80.978324    -964.0141    58646.783   -12573.981    980.48962   -13554.471    117.28499    252.63744 
   27900    80.901132   -985.14819    58701.638   -12573.714    979.55498   -13553.269    117.30782    252.39662 
   27950     84.62018    -716.6128      58656.3   -12565.341    1024.5854   -13589.927    117.33007    263.99936 
   28000    81.094172   -1431.7883    58635.152   -12588.311    981.89232   -13570.204    117.66242    252.99887 
   28050    83.064578   -892.36672    58592.853   -12587.189    1005.7501    -13592.94     116.9105    259.14617 
   28100    79.809232   -1191.4751    58551.167   -12598.982     966.3342   -13565.316    117.15094    248.99009 
   28150    79.496651   -732.69362    58615.112   -12592.065    962.54946   -13554.615    117.63366     248.0149 
   28200    81.429014   -825.24521    58679.505   -12568.589     985.9466   -13554.535    117.88143    254.04351 
   28250     80.61943    -697.3364    58784.597   -12567.572    976.14412   -13543.716     118.1774    251.51776 
   28300     80.11508   -940.34903    58818.204   -12571.877    970.03743   -13541.914    118.31173    249.94428 
   28350    79.555088   -628.02625     58861.14   -12577.744    963.25702   -13541.001      118.804    248.19721 
   28400    80.794317   -858.33184    58944.563     -12549.2    978.26166   -13527.462    119.32077    252.06338 
   28450    79.754653    -973.7003    58955.173   -12587.693    965.67336   -13553.367    119.46552    248.81982 
   28500    81.584222   -1094.4611    58960.381   -12587.942    987.82588   -13575.768    119.43266    254.52773 
   28550    81.046646   -1112.0289    58949.353   -12571.261    981.31687   -13552.578    119.89606    252.85059 
   28600    81.309204   -881.14847    58953.968   -12576.638    984.49594   -13561.134    119.85048    253.66973 
   28650    80.351692   -1047.7642    58937.644   -12587.664    972.90234   -13560.566    119.76842    250.68247 
   28700    80.082195   -849.16412    59012.156   -12594.667    969.63925   -13564.307    119.81705    249.84169 
   28750    79.744819   -981.50956    59074.744   -12603.403    965.55429   -13568.958    119.66224    248.78914 
   28800    82.861319   -1228.8182     59027.98   -12598.658     1003.289   -13601.947    119.70134    258.51204 
   28850    80.412597   -1204.6288    59027.005   -12593.452    973.63978   -13567.092    120.01277    250.87248 
   28900    80.349846   -1225.1223    58976.896   -12563.141    972.87999   -13536.021    120.35499    250.67671 
   28950    84.118596   -1200.7738    58937.737   -12529.143    1018.5122   -13547.656    120.78584    262.43451 
   29000    84.273653    -817.5075    58926.783   -12496.414    1020.3896   -13516.804    121.31478    262.91826 
   29050    79.952614   -1524.0536    58872.889   -12532.094    968.07028   -13500.164    121.87169    249.43742 
   29100    81.430903   -968.85662    58793.143   -12564.419    985.96948   -13550.388    122.00963    254.04941 
   29150    81.340697   -1320.3486    58786.551   -12575.236    984.87726   -13560.114    121.93585    253.76798 
   29200    77.309353   -1186.0232    58721.344   -12589.594    936.06555   -13525.659    121.90808    241.19093 
   29250    81.428422   -1158.5284    58642.976   -12599.273    985.93944   -13585.213    121.82239    254.04167 
   29300    82.871414   -1183.1875    58689.322   -12614.449    1003.4113   -13617.861    122.16258    258.54354 
   29350    77.479566   -1206.3864    58633.993   -12629.039    938.12649   -13567.165    122.59598    241.72196 
   29400     77.91814   -1284.4297    58571.316   -12623.626    943.43677   -13567.063    122.90039    243.09023 
   29450    77.629474    -1151.806    58511.526   -12621.726    939.94158   -13561.667    122.97319    242.18965 
   29500    79.742147   -1224.8227    58479.995   -12632.481    965.52194   -13598.002    123.23682     248.7808 
   29550    79.267257   -1160.9413     58490.98   -12618.018    959.77195    -13577.79    123.63958    247.29923 
   29600    78.501955   -1101.1273    58499.245   -12627.295    950.50563     -13577.8    123.78009    244.91163 
   29650    81.138921   -1099.1989    58454.775   -12619.543    982.43414   -13601.977     123.9609    253.13848 
   29700    81.871798   -901.47159    58396.346   -12622.741    991.30785   -13614.049     124.3041    255.42492 
   29750    81.137259   -896.68752    58424.829    -12614.48    982.41403   -13596.894    124.33907    253.13329 
   29800    80.398444    -598.4126    58420.067   -12627.937    973.46841   -13601.406    124.78669    250.82832 
   29850    81.383626   -704.92808    58468.323   -12620.019    985.39704   -13605.416    124.56782    253.90191 
   29900    80.498929    -659.5562    58551.716   -12627.321    974.68509   -13602.007    124.84266    251.14182 
   29950    82.116343   -962.72425    58654.976   -12600.845    994.26883   -13595.114    125.14996    256.18785 
   30000    80.618518   -987.73168    58698.156   -12605.378    976.13308   -13581.511    125.46828    251.51492 
   30050    80.999091   -736.02093    58749.227   -12608.882    980.74108   -13589.623    125.61077    252.70223 
   30100    81.306631   -818.00462    58838.758    -12609.67    984.46479   -13594.134    125.72702     253.6617 
   30150    76.609797   -721.68225    58862.857   -12664.745    927.59528    -13592.34    125.99648    239.00844 
   30200    79.017642   -952.58232    58870.562   -12654.145     956.7496   -13610.895     126.0841    246.52048 
   30250    81.181768   -1016.6869    58902.489   -12613.047    982.95294       -13596     126.4353    253.27215 
   30300    80.204916   -1205.4111    58879.494   -12614.493    971.12517   -13585.618    126.34218    250.22456 
   30350    80.673701   -1161.9952    58874.239   -12616.392    976.80124   -13593.193    126.53675    251.68708 
   30400     79.36382   -1147.1827    58877.135   -12611.546    960.94113   -13572.487    126.53173    247.60049 
   30450    81.881553   -1199.9894    58868.811   -12586.299    991.42597   -13577.725    126.67364    255.45535 
   30500    82.185645   -1281.3757    58873.812   -12567.484    995.10793   -13562.592    127.12074    256.40406 
   30550    81.771761   -951.17973    58833.202   -12567.161     990.0966   -13557.257     127.3363    255.11282 
   30600    80.484553   -1258.3119    58788.657   -12597.146    974.51103   -13571.657    127.78757    251.09697 
   30650    78.180608   -475.25553    58755.855   -12594.688    946.61474   -13541.303    128.07609    243.90909 
   30700    80.321181   -946.23987    58755.877   -12613.063    972.53291   -13585.596    128.23966    250.58728 
   30750    79.704716   -993.55118    58751.973   -12609.847    965.06873   -13574.915    128.51564    248.66402 
   30800     77.57179   -1188.9099    58733.235   -12645.291    939.24315   -13584.534    128.49939    242.00969 
   30850    81.474697   -1247.2687    58762.604   -12608.179    986.49973   -13594.678    128.75527    254.18604 
   30900    82.966173   -1184.5116    58754.151    -12580.93    1004.5586   -13585.489    129.38917    258.83917 
   30950    79.492615   -806.27335    58740.727   -12576.285     962.5006   -13538.786    129.82523    248.00231 
   31000    80.140135   -1411.5646     58776.92   -12626.033    970.34079   -13596.374    130.07031    250.02245 
   31050    81.326246   -1092.1303        58710   -12603.517    984.70228   -13588.219    130.34575     253.7229 
   31100    78.646405   -1234.8307    58692.066    -12583.43    952.25463   -13535.684    130.69381    245.36229 
   31150    81.849967   -1548.3064    58604.061   -12589.356    991.04352     -13580.4    130.61293    255.35681 
   31200    80.693923   -1042.4805    58558.733   -12615.893    977.04608   -13592.939    130.97802    251.75016 
   31250    80.806193   -828.90018    58523.259   -12609.143    978.40546   -13587.548    131.50906    252.10043 
   31300    81.498356    -1057.958    58538.208   -12607.619     986.7862   -13594.406    131.61134    254.25985 
   31350    80.150494   -827.84133    58520.944   -12626.147    970.46623   -13596.613    131.25136    250.05477 
   31400    79.890137   -877.49905     58486.06   -12601.731    967.31381   -13569.045    131.42164     249.2425 
   31450    80.997684   -896.74818    58536.316   -12600.182    980.72405   -13580.906    131.40773    252.69785 
   31500    77.256556   -1167.1561    58502.961   -12645.321    935.42627   -13580.748    131.64763    241.02621 
   31550    78.165457   -1388.9945     58414.04   -12663.714     946.4313   -13610.145     131.5961    243.86182 
   31600    78.514471   -1016.3324    58382.513   -12638.823    950.65717    -13589.48    132.06314    244.95068 
   31650    77.611131   -1125.9521    58392.013   -12618.918    939.71949   -13558.637    132.04275    242.13242 
   31700    81.355906   -920.85571    58425.328   -12590.967    985.06141   -13576.029    131.85614    253.81543 
   31750    83.650777   -1069.7642    58426.364   -12577.877    1012.8478   -13590.725    131.57523    260.97501 
   31800    78.528203   -1062.1112    58416.012   -12604.666    950.82344    -13555.49    131.85779    244.99352 
   31850    81.618367    -1198.109    58434.838   -12613.029     988.2393   -13601.268    131.79092    254.63426 
   31900    82.070139    -1428.294    58432.627   -12605.514    993.70938   -13599.223    132.05362    256.04371 
   31950    79.336386   -944.72106    58401.233   -12599.262    960.60897   -13559.871      132.598     247.5149 
   32000    81.176524   -1025.5998    58417.312   -12598.859    982.88945   -13581.749    132.87776    253.25579 
   32050    79.635016   -772.98889    58471.859   -12613.794    964.22479   -13578.019     133.0519    248.44657 
   32100    82.989406   -980.42564    58517.639   -12598.767    1004.8399   -13603.607    133.04044    258.91165 
   32150    81.025513   -1074.8132     58553.47   -12613.276      981.061   -13594.337     133.2346    252.78467 
   32200    81.636133   -946.60989    58556.902   -12619.365    988.45441   -13607.819    132.95642    254.68969 
   32250    80.980531     -1368.76    58552.321   -12629.837    980.51635   -13610.353     133.1916    252.64433 
   32300    79.545672    -899.5954    58473.649   -12660.265    963.14301   -13623.408    133.50533    248.16783 
   32350    79.104097   -1491.7259    58468.996   -12648.725     957.7964   -13606.521    133.64008     246.7902 
   32400    78.262743    -1206.937    58376.768    -12675.65    947.60924   -13623.259    133.33619    244.16533 
   32450    78.782999   -839.91719    58398.904   -12635.461    953.90852   -13589.369    133.65277    245.78843 
   32500    81.951143   -859.82887    58397.049   -12625.214    992.26857   -13617.483    133.53219    255.67246 
   32550    81.577859   -1135.0686    58457.149   -12623.552    987.74883   -13611.301    133.78833    254.50788 
   32600    79.725912   -870.70826    58482.313   -12643.408    965.32536   -13608.733    134.04748    248.73015 
   32650    78.502365   -1162.4319    58508.261   -12651.498    950.51059   -13602.009    134.42233    244.91291 
   32700    76.580789   -1118.1355    58492.334   -12680.678    927.24405   -13607.922    134.99755    238.91795 
   32750    77.353349    -995.4729    58492.163   -12688.258    936.59825   -13624.856    135.71172    241.32819 
   32800    77.834647    -1126.246    58484.248   -12655.191    942.42583   -13597.617     136.1959    242.82975 
   32850     80.61039   -1332.7563    58486.625   -12644.532    976.03466   -13620.566    136.20112    251.48956 
   32900    81.022269   -1397.0165    58421.986    -12605.23    981.02172   -13586.252    136.41685    252.77455 
   32950    77.816847   -1292.4589    58373.074   -12615.103    942.21031   -13557.313    137.06309    242.77422 
   33000    76.106036   -1012.2241    58307.507   -12640.812    921.49572   -13562.308    137.29337     237.4368 
   33050    77.655287   -1248.1949    58280.409   -12626.204    940.25412   -13566.458     137.2677    242.27018 
   33100    79.213075   -1255.6073    58252.175   -12608.933     959.1159   -13568.049    136.79778    247.13019 
   33150    78.594804   -778.71115    58253.296   -12606.615    951.62985   -13558.245    136.98707     245.2013 
   33200    78.485114   -1098.1021    58289.423   -12615.475    950.30172   -13565.776    136.88916    244.85909 
   33250    80.344712   -927.56124    58284.814   -12647.589    972.81783   -13620.407    137.04261    250.66069 
   33300    81.891843    -820.6441    58331.844   -12640.596    991.55057   -13632.147    137.68674    255.48746 
   33350    77.971976   -757.97805    58388.789   -12637.953    944.08862   -13582.042    137.97562    243.25819 
   33400    81.635763   -1008.6587    58436.979   -12633.772    988.44993   -13622.222    138.36606    254.68853 
   33450    83.459353   -895.64992    58464.953   -12624.914    1010.5301   -13635.444    139.12984     260.3778 
   33500    78.222875   -866.80972    58517.385   -12622.932    947.12652   -13570.059    140.12436    244.04095 
   33550     80.06721   -1156.5576    58518.653   -12612.872    969.45782    -13582.33    140.65568    249.79494 
   33600    80.248682   -1001.0892    58494.937   -12593.929    971.65509   -13565.585    140.58858     250.3611 
   33650    81.466034   -1226.9672    58502.712   -12557.912    986.39485   -13544.307    140.61615    254.15901 
   33700    84.668894   -996.80916    58483.142   -12517.537    1025.1752   -13542.713    140.18626    264.15134 
   33750    80.229829   -1202.1325     58400.31   -12551.215    971.42681   -13522.642    140.10715    250.30228 
   33800    80.036161   -759.66712    58411.051   -12599.024    969.08187   -13568.106    140.38498    249.69807 
   33850     81.13967     -591.595    58502.837   -12590.913    982.44322   -13573.356    140.68616    253.14081 
   33900    80.380999   -1035.0833    58563.218   -12579.761    973.25718   -13553.018    140.88887     250.7739 
   33950    81.121391   -792.61016    58538.859    -12587.95    982.22189   -13570.172    140.97929    253.08379 
[...]
   92000    76.555378   -783.65294    58291.838    -12615.38    926.93638   -13542.316    372.93459    238.83867 
   92050     79.97881   -913.94098    58273.989   -12614.898    968.38747   -13583.285    372.76698    249.51915 
   92100    79.284101   -445.58521    58306.985   -12585.252     959.9759   -13545.228    372.31429    247.35178 
   92150    81.601984   -550.17223     58360.98   -12588.302    988.04093   -13576.343    372.62821    254.58315 
   92200    82.499217   -1018.2936    58372.288   -12577.262    998.90468   -13576.167    371.97086    257.38235 
   92250     81.44269   -767.08809     58319.91   -12610.212    986.11219   -13596.325     372.1354    254.08618 
   92300     80.87551   -1282.8837    58377.467   -12636.546    979.24476   -13615.791    372.15478    252.31668 
   92350    80.310803   -641.86682      58384.8   -12640.236    972.40725   -13612.643    372.65639     250.5549 
   92400     78.72196   -1045.1557    58385.429   -12648.938    953.16946   -13602.107    372.54514      245.598 
   92450    78.247823   -1169.6619    58360.018   -12645.624    947.42859   -13593.053    372.73391    244.11878 
   92500    79.424616   -1095.9528    58330.791   -12623.514    961.67726   -13585.191    373.22964    247.79016 
   92550     76.94753   -820.12391    58304.078   -12640.488    931.68457   -13572.173       373.41    240.06211 
   92600    78.367959   -356.28114    58315.581     -12634.3     948.8832   -13583.183    374.23292    244.49359 
   92650    80.699683   -474.00221    58373.606   -12613.763    977.11583   -13590.878    374.34413    251.76814 
   92700    79.340239   -558.84264    58430.322   -12594.541    960.65562   -13555.196    374.76374    247.52692 
   92750    80.985839   -768.44234    58471.326   -12585.083    980.58062   -13565.664    374.89296    252.66089 
   92800    79.852836   -1115.4173    58508.656   -12606.451    966.86217   -13573.313    374.52136    249.12613 
   92850    79.449429    -1059.764    58486.458   -12608.919    961.97769   -13570.897    374.39338    247.86757 
   92900    81.157227   -927.06956    58449.627   -12588.803     982.6558   -13571.459     374.6571    253.19559 
   92950    78.697205   -1169.4764    58412.316   -12627.749    952.86972   -13580.618    375.65632    245.52077 
   93000    80.554075   -896.69377    58407.686   -12641.258     975.3528    -13616.61    376.52697    251.31386 
   93050    81.685029    -1081.386     58355.75   -12665.852    989.04645   -13654.899    377.45222    254.84223 
   93100    78.393825   -1190.6512    58351.186   -12630.677    949.19639   -13579.873    377.68584    244.57428 
   93150    81.104107   -1136.9384    58339.474   -12589.128    982.01261    -13571.14    377.45378    253.02986 
   93200    79.217236    -875.9736    58370.538   -12608.383    959.16629   -13567.549    377.77487    247.14317 
   93250     80.37358   -465.46053    58393.004   -12587.712    973.16736    -13560.88    378.17515    250.75075 
   93300    79.816561   -1261.5711    58369.718   -12642.141    966.42295   -13608.563     378.5357    249.01296 
   93350    80.182709   -1187.3746    58376.265   -12662.793    970.85628   -13633.649    378.65891    250.15527 
   93400    79.389428   -744.94948    58375.676   -12620.477     961.2512   -13581.729    378.91934    247.68038 
   93450    79.573676   -552.04076    58411.056   -12654.104    963.48208   -13617.586    378.94547     248.2552 
   93500    80.737331   -638.27841    58448.167   -12623.116    977.57168   -13600.688    378.99059    251.88559 
   93550    79.540578   -840.97035    58474.682     -12622.4    963.08133   -13585.481    379.82676    248.15194 
   93600    79.381131   -1260.1894    58487.268   -12599.273    961.15074   -13560.424    380.34395     247.6545 
   93650    78.260876   -1025.4057    58486.597   -12611.213    947.58663   -13558.799    381.25004    244.15951 
   93700    80.924794   -864.53488    58524.947   -12596.562    979.84148   -13576.404    380.83393    252.47044 
   93750    82.040414   -860.55799    58579.065   -12578.505    993.34947   -13571.854    380.65818    255.95097 
   93800    82.905414   -999.16545    58646.507   -12563.637    1003.8229    -13567.46    380.60185    258.64961 
   93850    79.662972   -1072.2213    58614.131   -12592.173    964.56328   -13556.736    381.22252    248.53379 
   93900    80.099931   -881.14169    58557.068   -12575.863      969.854   -13545.717    382.48132    249.89702 
   93950    83.109747   -906.76313    58617.759   -12550.557     1006.297   -13556.854    383.39845    259.28709 
   94000    82.946882   -519.64656    58673.382   -12554.008     1004.325   -13558.333    384.10468    258.77898 
   94050    81.601235   -797.16432    58721.978   -12553.357    988.03187   -13541.389    384.51752    254.58081 
   94100     82.87198   -1266.3393    58675.072   -12556.195    1003.4181   -13559.613    385.23538     258.5453 
   94150    83.863823   -926.46343    58578.854    -12565.92    1015.4274   -13581.348    385.09587    261.63967 
   94200    79.887692    -1023.567    58587.423   -12589.143     967.2842   -13556.427    385.23431    249.23487 
   94250    77.099657   -1021.4347    58530.251   -12608.704    933.52653   -13542.231    384.90361    240.53672 
   94300    78.930309   -1110.9176    58530.678   -12617.855    955.69216   -13573.547    383.88928    246.24801 
   94350    80.573503   -801.45956    58555.571   -12614.205    975.58803   -13589.793     384.0886    251.37448 
   94400    80.561056   -878.60734    58543.585   -12608.114    975.43733   -13583.551    384.31264    251.33564 
   94450    80.125353    -873.3418    58601.639   -12630.929    970.16181   -13601.091    385.01312    249.97633 
   94500    80.544367   -1013.9708    58642.997    -12633.71    975.23525   -13608.945    385.77152    251.28358 
   94550    80.767036   -1012.4353    58604.644   -12607.022    977.93135   -13584.954    385.09369    251.97827 
   94600    81.945178   -921.26523    58584.824   -12548.735    992.19634   -13540.932    385.36075    255.65385 
   94650    81.837926    -977.4864    58562.569   -12541.171    990.89774   -13532.068    385.25029    255.31924 
   94700     81.84147   -846.16769    58582.975   -12581.302    990.94064   -13572.242    386.12203     255.3303 
   94750    80.922261   -1234.2007    58566.615   -12606.755    979.81082   -13586.565     387.0658    252.46254 
   94800    79.930949   -1354.6231    58569.223   -12612.525    967.80796   -13580.333    387.33298    249.36983 
   94850    80.824962   -693.31734    58587.709   -12616.707    978.63272    -13595.34    387.27498    252.15898 
   94900    77.848833   -940.52685    58644.452   -12643.885    942.59759   -13586.483    387.25703    242.87401 
   94950    78.135886   -835.75385    58652.882    -12644.58    946.07325   -13590.653    387.29367    243.76956 
   95000    78.966303   -734.72994    58692.188   -12663.472    956.12798     -13619.6    387.75976    246.36031 
   95050    79.734501   -878.08321    58645.966   -12639.849    965.42936   -13605.279    387.87932    248.75695 
   95100    79.495454   -1143.8579     58640.09   -12630.806    962.53497   -13593.341    388.36788    248.01116 
   95150    77.966385   -1108.4124    58615.439   -12640.356    944.02092   -13584.377    388.46068    243.24075 
   95200    82.395736   -1473.9577    58619.551   -12663.445    997.65173   -13661.097    388.51114    257.05951 
   95250    78.300787   -942.89227    58581.171   -12660.641    948.06988   -13608.711    388.95519    244.28402 
   95300    78.052425   -1309.7534    58633.031   -12699.835     945.0627   -13644.898    389.12097    243.50918 
   95350    77.526677   -843.91147    58646.937   -12657.206    938.69692   -13595.903    388.63758    241.86894 
   95400     77.65317   -1536.7177    58612.268   -12666.515    940.22849   -13606.743    388.99494    242.26358 
   95450    77.271739   -1021.3676     58587.96   -12678.209    935.61011   -13613.819    388.76297    241.07358 
   95500    78.259253   -957.73942    58595.334   -12672.917    947.56699   -13620.484    388.90177    244.15444 
   95550    78.602513   -901.22725    58614.282   -12650.563    951.72319   -13602.286    389.06981    245.22535 
   95600    76.486118   -952.08883    58613.593   -12678.123    926.09777   -13604.221    389.12644    238.62259 
   95650    77.995018   -848.82732    58661.636   -12696.712    944.36761   -13641.079    389.37836    243.33008 
   95700    77.266363   -1121.9313    58675.844   -12707.651    935.54502   -13643.196    389.91392    241.05681 
   95750    78.940506    -953.0241    58682.639   -12678.464    955.81562   -13634.279    389.97187    246.27983 
   95800    78.238628   -1193.3102    58670.457   -12673.852    947.31725   -13621.169    390.29382     244.0901 
   95850    80.668284   -786.26832    58710.524   -12639.419    976.73564   -13616.155    390.71469    251.67017 
   95900     80.98245   -1335.5406     58735.06   -12623.226    980.53959   -13603.766    390.51294    252.65032 
   95950    81.901217   -1229.5911    58701.384    -12579.74    991.66407   -13571.404     390.6681     255.5167 
   96000    83.629715   -1149.4454     58733.27   -12575.784    1012.5928   -13588.376    391.22479     260.9093 
   96050    79.760032   -1588.8465    58674.744   -12606.812    965.73849   -13572.551    391.46102     248.8366 
   96100    79.769557   -647.00881    58685.735   -12609.147    965.85381   -13575.001    391.39722    248.86631 
   96150    81.817888   -878.76647    58693.683   -12633.131    990.65512   -13623.786    391.33438    255.25673 
   96200    78.710286   -885.37519    58703.609   -12636.042    953.02812   -13589.071    390.92804    245.56158 
   96250    79.928762   -903.77164    58672.049   -12655.268    967.78149    -13623.05    391.46362    249.36301 
   96300    77.576258    -609.6302    58706.951   -12675.453    939.29725    -13614.75    390.99918    242.02363 
   96350    78.930223   -764.71581     58741.75   -12670.251    955.69112   -13625.942    390.77469    246.24775 
   96400    78.326871   -1012.5298    58807.989   -12663.943     948.3857   -13612.329     391.3539     244.3654 
   96450    75.730621   -948.64137     58856.07   -12649.429    916.95018   -13566.379    392.44244    236.26558 
   96500    80.139793   -752.24815    58875.598   -12643.909    970.33666   -13614.245    393.19396    250.02138 
   96550    78.283928   -875.80428    58867.476   -12630.206    947.86575   -13578.072    393.45808    244.23143 
   96600    80.906056   -996.43173    58870.078   -12630.706     979.6146    -13610.32    393.52643    252.41198 
   96650    79.716854   -960.77598    58925.905   -12627.222    965.21569   -13592.438    394.05985    248.70189 
   96700    77.718053   -1151.9271    58948.187    -12640.31     941.0141   -13581.324    394.14362      242.466 
   96750    80.897577   -1201.0754    58945.079   -12609.634    979.51194   -13589.146    394.73314    252.38553 
   96800    80.231571   -1545.2292    58903.495   -12622.584     971.4479   -13594.032      395.284    250.30771 
   96850    78.820072   -924.23519    58861.108   -12632.611    954.35741   -13586.969    395.01056     245.9041 
   96900    77.620448    -1241.733    58814.248   -12648.724     939.8323   -13588.557    395.16309    242.16149 
   96950    77.602823   -1281.2966    58840.528   -12652.887    939.61889   -13592.506    394.83003     242.1065 
   97000    79.323682   -1195.6061    58849.867   -12630.503    960.45514   -13590.958    394.60514    247.47526 
   97050    81.520223   -730.21873    58853.255   -12632.039    987.05097    -13619.09    394.70304    254.32807 
   97100    81.047693    -1378.302    58847.082   -12606.962    981.32955   -13588.292     394.1587    252.85386 
   97150      79.1449    -955.4462    58846.506   -12624.509    958.29044     -13582.8     394.3377     246.9175 
   97200    80.168226   -953.08935    58783.751   -12665.914    970.68092   -13636.594    394.63311    250.11009 
   97250    80.692902   -833.52076    58739.257   -12679.894    977.03372   -13656.928    393.98082    251.74698 
   97300    78.774311   -936.94187     58729.68   -12656.328    953.80333   -13610.131    394.05687    245.76133 
   97350     79.31583   -1007.8262    58770.837   -12667.662    960.36007   -13628.022    394.26461    247.45077 
   97400    80.236626   -959.01553    58766.956   -12658.476    971.50911   -13629.985    394.45368    250.32348 
   97450    76.394794   -1292.1152    58712.725   -12703.766    924.99202   -13628.758    394.19591    238.33768 
   97500    79.255115   -1226.3344    58682.868   -12659.089    959.62493   -13618.714    394.65319    247.26135 
   97550    79.811884   -1069.9793    58652.511    -12646.14    966.36631   -13612.506    394.46643    248.99837 
   97600    79.417596   -1066.8395    58629.205   -12632.105    961.59226   -13593.697     395.4076    247.76826 
   97650    80.140064   -1409.0091    58578.582   -12618.405    970.33993   -13588.745    396.44821    250.02223 
   97700    81.602948    -1250.911    58532.143   -12617.379    988.05261   -13605.432    396.05775    254.58616 
   97750    81.739604   -1360.8315    58507.459   -12612.762    989.70725   -13602.469    396.31506     255.0125 
   97800    79.961724    -1086.962    58454.019   -12639.141    968.18058   -13607.322    396.47773    249.46584 
   97850    79.140755   -1221.6306    58429.506   -12625.384    958.24026   -13583.624    397.44648    246.90457 
   97900    80.133227   -1135.9818    58426.031   -12606.248    970.25716   -13576.505     397.9404     250.0009 
   97950    80.669343   -1406.5471    58483.924   -12594.943    976.74847   -13571.691    397.42483    251.67348 
   98000    79.751863   -1342.8241    58469.564   -12631.641    965.63958   -13597.281    398.52307    248.81111 
   98050    80.476674   -1030.9194    58446.784   -12635.749    974.41563   -13610.164     398.1261    251.07239 
   98100    81.033244   -1358.4287    58397.158   -12657.436     981.1546    -13638.59    398.75532    252.80878 
   98150    77.591087   -937.12381    58381.563   -12626.688     939.4768   -13566.164    399.94949    242.06989 
   98200    79.516895   -854.17898    58420.994   -12601.221    962.79458   -13564.015     400.6257    248.07806 
   98250    80.053242    -1221.544    58451.599   -12581.305    969.28869   -13550.594    400.55929    249.75136 
   98300    84.054866   -1085.4334    58534.488   -12530.197    1017.7406   -13547.938     401.0348    262.23569 
   98350    83.386502   -837.20425    58492.913   -12534.353     1009.648   -13544.001    400.26829    260.15051 
   98400    81.083273   -1018.4836    58467.026   -12563.999    981.76036    -13545.76    401.33693    252.96487 
   98450    82.178749   -905.22495    58477.469   -12573.222    995.02443   -13568.246    400.65232    256.38255 
   98500     77.95902   -1062.5162     58516.57   -12612.367    943.93174   -13556.299     400.8806    243.21777 
   98550    79.958033   -759.82987    58541.944   -12595.384     968.1359   -13563.519    400.16174    249.45432 
   98600    81.454537   -886.16176    58603.418    -12584.58    986.25564   -13570.836    399.76604    254.12314 
   98650    78.923278   -840.52589    58579.073   -12604.057    955.60703   -13559.664    400.51737    246.22608 
   98700    81.254675   -732.12371    58664.448   -12585.542     983.8357   -13569.378    400.78529    253.49961 
   98750    81.028344   -680.28341    58703.887   -12582.253    981.09527   -13563.348    400.45045     252.7935 
   98800    79.141314   -696.36615    58745.793   -12603.381    958.24702   -13561.628    400.91621    246.90631 
   98850     81.01226   -1240.7513    58759.029   -12578.168    980.90053   -13559.069    400.98475    252.74332 
   98900    79.606056    -666.1601    58800.079   -12598.684    963.87414   -13562.558    401.08393    248.35622 
   98950    79.674953   -529.53641    58869.913   -12589.942    964.70835    -13554.65    400.52317    248.57117 
   99000    79.591764   -747.31517    58903.017   -12590.963    963.70109   -13554.665    400.50751    248.31163 
   99050    82.879391   -1015.3909    58886.408   -12564.546    1003.5078   -13568.054    401.23109    258.56842 
   99100    79.552354   -1056.1641    58880.878   -12577.573    963.22391   -13540.797    402.03865    248.18868 
   99150    79.478404    -1102.156    58831.061   -12569.525    962.32852   -13531.854    401.14978    247.95797 
   99200    80.304132   -945.32088    58786.748    -12584.54    972.32648   -13556.866    401.36062    250.53409 
   99250     83.69295    -1205.865    58728.803   -12565.233    1013.3585   -13578.591    401.86823    261.10658 
   99300    81.467878   -1151.2049    58709.893   -12603.264    986.41718   -13589.681     402.1892    254.16476 
   99350    80.480925   -1119.5861    58676.626    -12603.14     974.4671   -13577.608    402.83434    251.08565 
   99400    78.186571   -925.03556    58700.687   -12620.434    946.68695   -13567.121    403.57011    243.92769 
   99450    80.397725   -684.00616    58766.822   -12635.398    973.45971   -13608.858    403.80409    250.82608 
   99500    81.988831   -830.26139    58817.478   -12612.522     992.7249   -13605.246    405.01879    255.79004 
   99550     78.41166   -968.01944    58816.849   -12630.713    949.41233   -13580.126    404.61082    244.62993 
   99600    79.913346   -942.58629    58839.142   -12637.546    967.59482   -13605.141    404.16308    249.31491 
   99650    79.478436   -967.11287    58844.416   -12640.748    962.32891   -13603.077    404.37119    247.95807 
   99700    78.583645   -1074.6414     58871.29   -12650.253    951.49474   -13601.748    404.17995    245.16649 
   99750    80.060122   -1084.1307    58841.347   -12671.302    969.37199   -13640.674    403.55933    249.77282 
   99800    79.005468    -840.9453    58851.922   -12640.564    956.60219   -13597.166    403.83261     246.4825 
   99850    81.342959   -1154.4917    58846.914   -12656.936    984.90464   -13641.841    404.23728    253.77504 
   99900    78.857659   -920.68733     58854.44     -12660.9    954.81251   -13615.712    404.93271    246.02136 
   99950    80.078619   -1159.1467    58828.245   -12625.328    969.59595   -13594.924    404.60774    249.83053 
  100000    80.802258   -1131.5959    58778.799   -12627.195    978.35781   -13605.552    405.11048    252.08815 
Loop time of 82.3199 on 80 procs for 100000 steps with 4063 atoms

Performance: 524.782 ns/day, 0.046 hours/ns, 1214.773 timesteps/s
99.5% CPU use with 80 MPI tasks x no OpenMP threads

MPI task timing breakdown:
Section |  min time  |  avg time  |  max time  |%varavg| %total
---------------------------------------------------------------
Pair    | 48.528     | 51.482     | 56.023     |  26.4 | 62.54
Neigh   | 0.46825    | 1.0899     | 1.9972     |  59.0 |  1.32
Comm    | 15.948     | 21.131     | 24.529     |  50.4 | 25.67
Output  | 0.12783    | 0.13162    | 0.25905    |   4.0 |  0.16
Modify  | 6.7302     | 7.5357     | 8.2143     |  11.7 |  9.15
Other   |            | 0.9497     |            |       |  1.15

Nlocal:    50.7875 ave 86 max 20 min
Histogram: 20 20 0 0 0 0 2 9 18 11
Nghost:    718.525 ave 753 max 674 min
Histogram: 2 8 8 9 4 10 10 7 10 12
Neighs:    0 ave 0 max 0 min
Histogram: 80 0 0 0 0 0 0 0 0 0
FullNghs:  5587.23 ave 11036 max 1040 min
Histogram: 40 0 0 0 0 0 0 7 20 13

Total # of neighbors = 446978
Ave neighs/atom = 110.012
Neighbor list builds = 5712
Dangerous builds = 0

write_data		${DIR}/data.eq-${NAME}-${TEMP}
write_data		run_16/data.eq-${NAME}-${TEMP}
write_data		run_16/data.eq-het_freeze_16-${TEMP}
write_data		run_16/data.eq-het_freeze_16-250
undump          1

reset_timestep  0

unfix           2
unfix           3
unfix           4


################################################
#######         Run Simulation         #########
################################################

log				${DIR}/log.run_${NAME}
log				run_16/log.run_${NAME}
log				run_16/log.run_het_freeze_16
