LAMMPS data file via write_data, version 16 Mar 2018, timestep = 100000

4560 atoms
2 atom types

0.0000000000000000e+00 4.9219999999999999e+01 xlo xhi
0.0000000000000000e+00 4.9019635930410494e+01 ylo yhi
1.2798110192741809e+00 3.2660188980727256e+01 zlo zhi

Masses

1 18.015
2 12.01

Atoms # atomic

147 2 0.0000000000000000e+00 2.8417180249513345e+00 3.3600010106739577e+00 0 0 0
149 2 0.0000000000000000e+00 0.0000000000000000e+00 3.3600010106739577e+00 0 0 0
151 2 1.2305000000000001e+00 7.1042950623783474e-01 3.3600010106739577e+00 0 0 0
158 2 1.2305000000000001e+00 2.1312885187134998e+00 3.3600010106739577e+00 0 0 0
160 2 2.4610000000000003e+00 2.8417180249513345e+00 3.3600010106739577e+00 0 0 0
162 2 2.4610000000000003e+00 0.0000000000000000e+00 3.3600010106739577e+00 0 0 0
164 2 3.6915000000000004e+00 7.1042950623783474e-01 3.3600010106739577e+00 0 0 0
179 2 3.6914999999999996e+00 2.1312885187134998e+00 3.3600010106739577e+00 0 0 0
181 2 4.9220000000000006e+00 2.8417180249513332e+00 3.3600010106739577e+00 0 0 0
183 2 4.9220000000000006e+00 0.0000000000000000e+00 3.3600010106739577e+00 0 0 0
185 2 6.1524999999999999e+00 7.1042950623783407e-01 3.3600010106739577e+00 0 0 0
208 2 6.1524999999999999e+00 2.1312885187134989e+00 3.3600010106739577e+00 0 0 0
210 2 7.3829999999999991e+00 2.8417180249513345e+00 3.3600010106739577e+00 0 0 0
212 2 7.3829999999999991e+00 0.0000000000000000e+00 3.3600010106739577e+00 0 0 0
214 2 8.6134999999999984e+00 7.1042950623783407e-01 3.3600010106739577e+00 0 0 0
245 2 8.6134999999999984e+00 2.1312885187135002e+00 3.3600010106739577e+00 0 0 0
247 2 9.8440000000000012e+00 2.8417180249513332e+00 3.3600010106739577e+00 0 0 0
249 2 9.8440000000000012e+00 0.0000000000000000e+00 3.3600010106739577e+00 0 0 0
251 2 1.1074500000000002e+01 7.1042950623783330e-01 3.3600010106739577e+00 0 0 0
290 2 1.1074500000000002e+01 2.1312885187135002e+00 3.3600010106739577e+00 0 0 0
154 2 0.0000000000000000e+00 4.2625770374269996e+00 3.3600010106739577e+00 0 0 0
156 2 1.2305000000000001e+00 4.9730065436648339e+00 3.3600010106739577e+00 0 0 0
171 2 1.2305000000000001e+00 6.3938655561404980e+00 3.3600010106739577e+00 0 0 0
175 2 2.4610000000000003e+00 4.2625770374269996e+00 3.3600010106739577e+00 0 0 0
177 2 3.6914999999999996e+00 4.9730065436648339e+00 3.3600010106739577e+00 0 0 0
200 2 3.6914999999999996e+00 6.3938655561404980e+00 3.3600010106739577e+00 0 0 0
152 2 0.0000000000000000e+00 7.1042950623783341e+00 3.3600010106739577e+00 0 0 0
173 2 2.4610000000000003e+00 7.1042950623783341e+00 3.3600010106739577e+00 0 0 0
204 2 4.9220000000000006e+00 4.2625770374269978e+00 3.3600010106739577e+00 0 0 0
206 2 6.1524999999999999e+00 4.9730065436648339e+00 3.3600010106739577e+00 0 0 0
237 2 6.1524999999999999e+00 6.3938655561404980e+00 3.3600010106739577e+00 0 0 0
241 2 7.3829999999999991e+00 4.2625770374269996e+00 3.3600010106739577e+00 0 0 0
202 2 4.9220000000000006e+00 7.1042950623783341e+00 3.3600010106739577e+00 0 0 0
239 2 7.3830000000000009e+00 7.1042950623783341e+00 3.3600010106739577e+00 0 0 0
243 2 8.6135000000000002e+00 4.9730065436648339e+00 3.3600010106739577e+00 0 0 0
282 2 8.6135000000000002e+00 6.3938655561404980e+00 3.3600010106739577e+00 0 0 0
286 2 9.8440000000000012e+00 4.2625770374270004e+00 3.3600010106739577e+00 0 0 0
288 2 1.1074500000000002e+01 4.9730065436648339e+00 3.3600010106739577e+00 0 0 0
329 2 1.1074500000000002e+01 6.3938655561404980e+00 3.3600010106739577e+00 0 0 0
284 2 9.8440000000000012e+00 7.1042950623783341e+00 3.3600010106739577e+00 0 0 0
167 2 0.0000000000000000e+00 8.5251540748539991e+00 3.3600010106739577e+00 0 0 0
169 2 1.2305000000000001e+00 9.2355835810918343e+00 3.3600010106739577e+00 0 0 0
196 2 2.4610000000000003e+00 8.5251540748539991e+00 3.3600010106739577e+00 0 0 0
198 2 3.6915000000000004e+00 9.2355835810918343e+00 3.3600010106739577e+00 0 0 0
165 2 0.0000000000000000e+00 1.1366872099805333e+01 3.3600010106739577e+00 0 0 0
192 2 1.2305000000000001e+00 1.0656442593567498e+01 3.3600010106739577e+00 0 0 0
194 2 2.4610000000000003e+00 1.1366872099805333e+01 3.3600010106739577e+00 0 0 0
229 2 3.6914999999999996e+00 1.0656442593567499e+01 3.3600010106739577e+00 0 0 0
233 2 4.9220000000000006e+00 8.5251540748539991e+00 3.3600010106739577e+00 0 0 0
235 2 6.1524999999999999e+00 9.2355835810918343e+00 3.3600010106739577e+00 0 0 0
278 2 7.3830000000000009e+00 8.5251540748539991e+00 3.3600010106739577e+00 0 0 0
231 2 4.9220000000000006e+00 1.1366872099805333e+01 3.3600010106739577e+00 0 0 0
274 2 6.1524999999999999e+00 1.0656442593567499e+01 3.3600010106739577e+00 0 0 0
276 2 7.3829999999999991e+00 1.1366872099805333e+01 3.3600010106739577e+00 0 0 0
280 2 8.6134999999999984e+00 9.2355835810918343e+00 3.3600010106739577e+00 0 0 0
325 2 9.8440000000000012e+00 8.5251540748539956e+00 3.3600010106739577e+00 0 0 0
327 2 1.1074500000000002e+01 9.2355835810918343e+00 3.3600010106739577e+00 0 0 0
321 2 8.6134999999999984e+00 1.0656442593567498e+01 3.3600010106739577e+00 0 0 0
323 2 9.8440000000000012e+00 1.1366872099805333e+01 3.3600010106739577e+00 0 0 0
368 2 1.1074500000000002e+01 1.0656442593567498e+01 3.3600010106739577e+00 0 0 0
370 2 1.2304999999999998e+01 1.1366872099805333e+01 3.3600010106739577e+00 0 0 0
148 2 0.0000000000000000e+00 1.4208590124756650e+00 6.3448919156763708e+00 0 0 0
150 2 0.0000000000000000e+00 0.0000000000000000e+00 6.3448919156763708e+00 0 0 0
159 2 1.2305000000000001e+00 2.1312885187134998e+00 6.3448919156763708e+00 0 0 0
161 2 2.4610000000000003e+00 1.4208590124756650e+00 6.3448919156763708e+00 0 0 0
163 2 2.4610000000000003e+00 0.0000000000000000e+00 6.3448919156763708e+00 0 0 0
180 2 3.6914999999999996e+00 2.1312885187134998e+00 6.3448919156763708e+00 0 0 0
157 2 1.2305000000000001e+00 3.5521475311891644e+00 6.3448919156763708e+00 0 0 0
178 2 3.6914999999999996e+00 3.5521475311891644e+00 6.3448919156763708e+00 0 0 0
182 2 4.9220000000000006e+00 1.4208590124756650e+00 6.3448919156763708e+00 0 0 0
184 2 4.9220000000000006e+00 0.0000000000000000e+00 6.3448919156763708e+00 0 0 0
209 2 6.1524999999999999e+00 2.1312885187134989e+00 6.3448919156763708e+00 0 0 0
211 2 7.3829999999999991e+00 1.4208590124756659e+00 6.3448919156763708e+00 0 0 0
213 2 7.3829999999999991e+00 0.0000000000000000e+00 6.3448919156763708e+00 0 0 0
207 2 6.1524999999999999e+00 3.5521475311891644e+00 6.3448919156763708e+00 0 0 0
246 2 8.6134999999999984e+00 2.1312885187135002e+00 6.3448919156763708e+00 0 0 0
248 2 9.8440000000000012e+00 1.4208590124756659e+00 6.3448919156763708e+00 0 0 0
250 2 9.8440000000000012e+00 0.0000000000000000e+00 6.3448919156763708e+00 0 0 0
291 2 1.1074500000000002e+01 2.1312885187135002e+00 6.3448919156763708e+00 0 0 0
244 2 8.6134999999999984e+00 3.5521475311891657e+00 6.3448919156763708e+00 0 0 0
289 2 1.1074500000000002e+01 3.5521475311891644e+00 6.3448919156763708e+00 0 0 0
153 2 0.0000000000000000e+00 5.6834360499026637e+00 6.3448919156763708e+00 0 0 0
155 2 0.0000000000000000e+00 4.2625770374269996e+00 6.3448919156763708e+00 0 0 0
172 2 1.2305000000000001e+00 6.3938655561404980e+00 6.3448919156763708e+00 0 0 0
174 2 2.4610000000000003e+00 5.6834360499026637e+00 6.3448919156763708e+00 0 0 0
176 2 2.4610000000000003e+00 4.2625770374269996e+00 6.3448919156763708e+00 0 0 0
201 2 3.6914999999999996e+00 6.3938655561404980e+00 6.3448919156763708e+00 0 0 0
170 2 1.2305000000000001e+00 7.8147245686161639e+00 6.3448919156763708e+00 0 0 0
199 2 3.6914999999999996e+00 7.8147245686161639e+00 6.3448919156763708e+00 0 0 0
203 2 4.9220000000000006e+00 5.6834360499026637e+00 6.3448919156763708e+00 0 0 0
205 2 4.9220000000000006e+00 4.2625770374269978e+00 6.3448919156763708e+00 0 0 0
238 2 6.1524999999999999e+00 6.3938655561404980e+00 6.3448919156763708e+00 0 0 0
240 2 7.3829999999999991e+00 5.6834360499026637e+00 6.3448919156763708e+00 0 0 0
242 2 7.3829999999999991e+00 4.2625770374269996e+00 6.3448919156763708e+00 0 0 0
236 2 6.1524999999999999e+00 7.8147245686161639e+00 6.3448919156763708e+00 0 0 0
283 2 8.6135000000000002e+00 6.3938655561404980e+00 6.3448919156763708e+00 0 0 0
285 2 9.8440000000000012e+00 5.6834360499026637e+00 6.3448919156763708e+00 0 0 0
287 2 9.8440000000000012e+00 4.2625770374270004e+00 6.3448919156763708e+00 0 0 0
330 2 1.1074500000000002e+01 6.3938655561404980e+00 6.3448919156763708e+00 0 0 0
281 2 8.6135000000000002e+00 7.8147245686161639e+00 6.3448919156763708e+00 0 0 0
328 2 1.1074500000000002e+01 7.8147245686161639e+00 6.3448919156763708e+00 0 0 0
166 2 0.0000000000000000e+00 9.9460130873296642e+00 6.3448919156763708e+00 0 0 0
168 2 0.0000000000000000e+00 8.5251540748539991e+00 6.3448919156763708e+00 0 0 0
195 2 2.4610000000000003e+00 9.9460130873296642e+00 6.3448919156763708e+00 0 0 0
197 2 2.4610000000000003e+00 8.5251540748539991e+00 6.3448919156763708e+00 0 0 0
191 2 1.2305000000000001e+00 1.2077301606043163e+01 6.3448919156763708e+00 0 0 0
193 2 1.2305000000000001e+00 1.0656442593567498e+01 6.3448919156763708e+00 0 0 0
228 2 3.6914999999999996e+00 1.2077301606043163e+01 6.3448919156763708e+00 0 0 0
230 2 3.6914999999999996e+00 1.0656442593567499e+01 6.3448919156763708e+00 0 0 0
232 2 4.9220000000000006e+00 9.9460130873296642e+00 6.3448919156763708e+00 0 0 0
234 2 4.9220000000000006e+00 8.5251540748539991e+00 6.3448919156763708e+00 0 0 0
277 2 7.3830000000000009e+00 9.9460130873296642e+00 6.3448919156763708e+00 0 0 0
279 2 7.3830000000000009e+00 8.5251540748539991e+00 6.3448919156763708e+00 0 0 0
273 2 6.1524999999999999e+00 1.2077301606043163e+01 6.3448919156763708e+00 0 0 0
275 2 6.1524999999999999e+00 1.0656442593567499e+01 6.3448919156763708e+00 0 0 0
322 2 8.6134999999999984e+00 1.0656442593567498e+01 6.3448919156763708e+00 0 0 0
367 2 1.1074500000000002e+01 1.2077301606043163e+01 6.3448919156763708e+00 0 0 0
369 2 1.1074500000000002e+01 1.0656442593567498e+01 6.3448919156763708e+00 0 0 0
324 2 9.8440000000000012e+00 9.9460130873296642e+00 6.3448919156763708e+00 0 0 0
326 2 9.8440000000000012e+00 8.5251540748539956e+00 6.3448919156763708e+00 0 0 0
320 2 8.6135000000000002e+00 1.2077301606043163e+01 6.3448919156763708e+00 0 0 0
476 2 0.0000000000000000e+00 2.8417180249513345e+00 9.3297828206779112e+00 0 0 0
477 2 0.0000000000000000e+00 0.0000000000000000e+00 9.3297828206779112e+00 0 0 0
478 2 1.2305000000000001e+00 7.1042950623783474e-01 9.3297828206779112e+00 0 0 0
482 2 1.2305000000000001e+00 2.1312885187134998e+00 9.3297828206779112e+00 0 0 0
483 2 2.4610000000000003e+00 2.8417180249513345e+00 9.3297828206779112e+00 0 0 0
484 2 2.4610000000000003e+00 0.0000000000000000e+00 9.3297828206779112e+00 0 0 0
485 2 3.6915000000000004e+00 7.1042950623783474e-01 9.3297828206779112e+00 0 0 0
493 2 3.6914999999999996e+00 2.1312885187134998e+00 9.3297828206779112e+00 0 0 0
957 1 2.7256939458940028e+00 2.9032215767304983e+00 1.2018407458305274e+01 1 0 0
2253 1 8.1749060900356260e-02 2.5929612338795276e+00 1.4764209331072411e+01 0 2 -1
494 2 4.9220000000000006e+00 2.8417180249513332e+00 9.3297828206779112e+00 0 0 0
495 2 4.9220000000000006e+00 0.0000000000000000e+00 9.3297828206779112e+00 0 0 0
496 2 6.1524999999999999e+00 7.1042950623783407e-01 9.3297828206779112e+00 0 0 0
508 2 6.1524999999999999e+00 2.1312885187134989e+00 9.3297828206779112e+00 0 0 0
509 2 7.3829999999999991e+00 2.8417180249513345e+00 9.3297828206779112e+00 0 0 0
510 2 7.3829999999999991e+00 0.0000000000000000e+00 9.3297828206779112e+00 0 0 0
1146 1 7.0634033726419982e+00 4.5375564766633225e+00 1.1890353977705987e+01 0 1 -1
2392 1 7.1769829477869473e+00 2.1065900286947579e+00 1.1547406199164449e+01 1 1 0
511 2 8.6134999999999984e+00 7.1042950623783407e-01 9.3297828206779112e+00 0 0 0
527 2 8.6134999999999984e+00 2.1312885187135002e+00 9.3297828206779112e+00 0 0 0
528 2 9.8440000000000012e+00 2.8417180249513332e+00 9.3297828206779112e+00 0 0 0
529 2 9.8440000000000012e+00 0.0000000000000000e+00 9.3297828206779112e+00 0 0 0
530 2 1.1074500000000002e+01 7.1042950623783330e-01 9.3297828206779112e+00 0 0 0
550 2 1.1074500000000002e+01 2.1312885187135002e+00 9.3297828206779112e+00 0 0 0
2361 1 8.1619666868074958e+00 9.1732362689755331e-01 1.4681281817612472e+01 0 0 0
480 2 0.0000000000000000e+00 4.2625770374269996e+00 9.3297828206779112e+00 0 0 0
481 2 1.2305000000000001e+00 4.9730065436648339e+00 9.3297828206779112e+00 0 0 0
489 2 1.2305000000000001e+00 6.3938655561404980e+00 9.3297828206779112e+00 0 0 0
491 2 2.4610000000000003e+00 4.2625770374269996e+00 9.3297828206779112e+00 0 0 0
492 2 3.6914999999999996e+00 4.9730065436648339e+00 9.3297828206779112e+00 0 0 0
504 2 3.6914999999999996e+00 6.3938655561404980e+00 9.3297828206779112e+00 0 0 0
479 2 0.0000000000000000e+00 7.1042950623783341e+00 9.3297828206779112e+00 0 0 0
490 2 2.4610000000000003e+00 7.1042950623783341e+00 9.3297828206779112e+00 0 0 0
4381 1 3.3365672645146360e+00 6.6227509406097109e+00 1.4266051309176502e+01 1 1 0
3588 1 1.6461168037247520e+00 7.5299055780867938e+00 1.1853813772947941e+01 1 0 0
4515 1 4.2665319924060157e+00 5.2038447250558333e+00 1.1942572612629608e+01 1 -1 0
506 2 4.9220000000000006e+00 4.2625770374269978e+00 9.3297828206779112e+00 0 0 0
507 2 6.1524999999999999e+00 4.9730065436648339e+00 9.3297828206779112e+00 0 0 0
523 2 6.1524999999999999e+00 6.3938655561404980e+00 9.3297828206779112e+00 0 0 0
525 2 7.3829999999999991e+00 4.2625770374269996e+00 9.3297828206779112e+00 0 0 0
505 2 4.9220000000000006e+00 7.1042950623783341e+00 9.3297828206779112e+00 0 0 0
524 2 7.3830000000000009e+00 7.1042950623783341e+00 9.3297828206779112e+00 0 0 0
2031 1 9.3556868174087384e+00 6.5083062075285154e+00 1.2102010257875312e+01 0 1 0
3270 1 1.0082468906536162e+01 9.4018868867361096e+00 1.1701351033493600e+01 1 0 0
526 2 8.6135000000000002e+00 4.9730065436648339e+00 9.3297828206779112e+00 0 0 0
546 2 8.6135000000000002e+00 6.3938655561404980e+00 9.3297828206779112e+00 0 0 0
548 2 9.8440000000000012e+00 4.2625770374270004e+00 9.3297828206779112e+00 0 0 0
549 2 1.1074500000000002e+01 4.9730065436648339e+00 9.3297828206779112e+00 0 0 0
570 2 1.1074500000000002e+01 6.3938655561404980e+00 9.3297828206779112e+00 0 0 0
547 2 9.8440000000000012e+00 7.1042950623783341e+00 9.3297828206779112e+00 0 0 0
487 2 0.0000000000000000e+00 8.5251540748539991e+00 9.3297828206779112e+00 0 0 0
488 2 1.2305000000000001e+00 9.2355835810918343e+00 9.3297828206779112e+00 0 0 0
502 2 2.4610000000000003e+00 8.5251540748539991e+00 9.3297828206779112e+00 0 0 0
503 2 3.6915000000000004e+00 9.2355835810918343e+00 9.3297828206779112e+00 0 0 0
486 2 0.0000000000000000e+00 1.1366872099805333e+01 9.3297828206779112e+00 0 0 0
500 2 1.2305000000000001e+00 1.0656442593567498e+01 9.3297828206779112e+00 0 0 0
501 2 2.4610000000000003e+00 1.1366872099805333e+01 9.3297828206779112e+00 0 0 0
519 2 3.6914999999999996e+00 1.0656442593567499e+01 9.3297828206779112e+00 0 0 0
2311 1 5.8244053008044272e-01 1.0122997097777937e+01 1.1737043646324377e+01 1 1 0
933 1 1.0148014792837040e+01 1.0851348579339342e+01 1.6795910458160858e+01 1 0 0
521 2 4.9220000000000006e+00 8.5251540748539991e+00 9.3297828206779112e+00 0 0 0
522 2 6.1524999999999999e+00 9.2355835810918343e+00 9.3297828206779112e+00 0 0 0
544 2 7.3830000000000009e+00 8.5251540748539991e+00 9.3297828206779112e+00 0 0 0
520 2 4.9220000000000006e+00 1.1366872099805333e+01 9.3297828206779112e+00 0 0 0
542 2 6.1524999999999999e+00 1.0656442593567499e+01 9.3297828206779112e+00 0 0 0
543 2 7.3829999999999991e+00 1.1366872099805333e+01 9.3297828206779112e+00 0 0 0
4271 1 6.1155752677756166e+00 1.0510118140400939e+01 1.1880671139793085e+01 1 1 0
3440 1 4.7557110307965456e+00 1.1381864258174692e+00 1.2473229843706862e+01 1 1 0
2016 1 8.2210924799300003e+00 1.1229547749515490e+01 1.2872026184173329e+01 0 1 0
545 2 8.6134999999999984e+00 9.2355835810918343e+00 9.3297828206779112e+00 0 0 0
568 2 9.8440000000000012e+00 8.5251540748539956e+00 9.3297828206779112e+00 0 0 0
569 2 1.1074500000000002e+01 9.2355835810918343e+00 9.3297828206779112e+00 0 0 0
566 2 8.6134999999999984e+00 1.0656442593567498e+01 9.3297828206779112e+00 0 0 0
567 2 9.8440000000000012e+00 1.1366872099805333e+01 9.3297828206779112e+00 0 0 0
590 2 1.1074500000000002e+01 1.0656442593567498e+01 9.3297828206779112e+00 0 0 0
591 2 1.2304999999999998e+01 1.1366872099805333e+01 9.3297828206779112e+00 0 0 0
4512 1 4.3922270810758617e+00 1.9411987931668300e+00 1.6468336116133617e+01 1 0 0
1116 1 2.9006337179635979e+00 3.6766465258004239e+00 1.4711297564681884e+01 -1 0 -1
3265 1 7.7612969407316079e+00 3.6867088174227711e+00 1.4484292262746337e+01 0 0 1
2089 1 1.2050410950933536e+01 1.8137597477100444e+00 1.2202340888289170e+01 0 1 0
3443 1 1.0207744087857229e+01 7.3290641488157093e-01 1.6350003631831633e+01 -1 0 0
1250 1 6.9632721895591487e-01 6.8942784472420291e+00 1.6425689480104737e+01 1 0 0
2286 1 2.4604270113696920e+00 1.1083504802438741e+01 1.4751688877329352e+01 0 0 0
3521 1 8.5277767769627086e+00 9.6167940297272843e+00 1.5082760111971053e+01 0 -1 0
1247 1 1.0001326960844192e+00 8.6950747323235742e+00 1.4407580502194470e+01 1 1 0
1010 1 1.0236242282327456e+01 4.6872592803660798e+00 1.4951100916778017e+01 0 0 0
3363 1 1.0482096422220330e+01 7.4575044029791009e+00 1.4634547735443384e+01 1 0 0
3414 1 1.1853181870300388e+01 4.6299249542161229e+00 1.2056210249048531e+01 0 1 -1
65 1 4.5526427363042066e+00 9.0723711953014146e+00 1.3907110123757398e+01 1 -1 0
4544 1 6.0048356281520388e+00 9.3502559679635500e+00 1.6120902179433195e+01 0 0 0
4361 1 4.5317466961554036e+00 1.1602594766302238e+01 1.6812394412275331e+01 1 0 -1
4375 1 6.4659948523819963e+00 4.0975525178808390e+00 1.6836699090096822e+01 1 1 0
4325 1 9.6401617053148758e+00 8.9020093352220797e-01 1.2137426280564449e+01 1 1 0
4540 1 1.6422947352406705e-01 4.0122026788296239e-03 1.5824581216910540e+01 1 1 0
4382 1 1.9515806056420555e+00 4.3302328412733653e+00 1.9715771009056080e+01 0 2 0
77 1 3.3369962877331694e+00 2.0871298156205129e+00 1.8820650523629840e+01 1 0 0
1113 1 7.6662358603876326e+00 1.7505204981952831e+00 2.0705877109949778e+01 0 0 0
2173 1 1.7029075295914248e-01 8.6376883136614531e+00 2.2072043778598552e+01 1 1 -1
2108 1 1.0851449415922578e+00 6.0670716882105680e+00 2.2749965735546773e+01 0 0 0
3167 1 9.2723729566404811e-01 1.1724999683744883e+01 1.7427827877477689e+01 0 0 -1
948 1 5.5020170225507732e+00 6.9537161078831344e+00 1.9821118200031894e+01 0 0 0
2060 1 8.2879202314781839e+00 6.2844404739756774e+00 1.9975246012001314e+01 -1 0 -1
1044 1 8.3976235352490036e+00 3.7565084420542996e+00 1.8775490007123771e+01 1 1 0
1178 1 1.0656569618486428e+01 3.4468087278014989e+00 1.7712879605589155e+01 0 0 0
11 1 1.1205613010270302e+01 1.6991505529718718e+00 2.0160595544990120e+01 0 1 -1
2292 1 2.8984292574052524e+00 5.3936616894068221e+00 1.7398711473650756e+01 1 0 0
2156 1 5.3375842597512859e+00 6.7500504877743790e+00 1.7200247986118903e+01 0 1 0
4339 1 5.5895313139401210e+00 9.2785863831343391e+00 2.1432865531354459e+01 0 -1 0
3364 1 4.2891536379692443e+00 1.0871981503083083e+01 1.9481694680207287e+01 0 0 0
4311 1 9.5149163885665011e+00 8.5269555916209452e+00 1.8667047468244434e+01 1 1 0
125 1 2.9779407025573414e+00 6.9086960013422214e+00 2.4668254159846803e+01 0 -1 0
3231 1 2.5565556604686921e+00 2.4466548435692737e+00 2.3439732003761822e+01 1 1 0
941 1 5.1330078221277402e+00 3.9356514122918429e+00 2.2859510980088228e+01 0 0 -1
976 1 1.5268238929758735e+00 1.0087405155934007e+01 1.9827219673659993e+01 0 0 0
1019 1 4.7418837713695519e+00 1.4744282231759036e+00 2.1051792313973699e+01 0 0 0
1007 1 7.8420301445223481e+00 3.5087694959746196e+00 2.2562187967710337e+01 1 1 -1
88 1 1.1644323333455743e+01 6.3444843655187766e+00 1.8610838625844291e+01 0 0 0
3578 1 3.6853904213058124e+00 5.6237840674370538e+00 2.1243144292009116e+01 0 0 0
3169 1 8.0596282091325211e+00 1.0325783941475891e+01 2.2715293421456483e+01 0 0 0
4322 1 9.4773911886801372e+00 5.7770518979948067e+00 2.2277406002219077e+01 1 1 -1
1258 1 1.1763883449300945e+01 8.0466105913491237e+00 2.3962909363231219e+01 1 1 0
876 1 3.0680806344285370e+00 1.0737670247264786e+01 2.2564614123617758e+01 1 1 0
1084 1 1.2269257417201530e+01 6.1077580208976920e+00 2.1456775637823345e+01 0 0 0
101 1 1.0083541495812080e+01 1.0176177014896554e+01 2.0999085759207137e+01 0 1 0
2160 1 1.5231276044084550e+00 8.3771464349514949e-02 1.8144952147225716e+01 0 0 0
1028 1 8.9125997191183064e+00 7.7735373409873079e+00 2.4141153782558899e+01 0 0 0
4442 1 7.0565079681009379e+00 3.0137207469277102e-02 1.7819817278382818e+01 1 0 0
3523 1 8.8975996645759636e+00 2.3994708145460901e+00 2.4734247300085766e+01 1 1 0
1189 1 1.8521921366658345e+00 2.5176580769550796e+00 2.6281490159109929e+01 -1 1 0
832 1 6.4248916527925362e+00 9.8656434160605446e+00 2.7027819303628775e+01 0 1 0
3147 1 1.1557293141166105e+00 9.0817555225164721e+00 2.8453183033208809e+01 1 0 0
18 1 3.1038726741947649e+00 1.2045474820310131e+01 3.1843276620949446e+01 1 -1 0
3511 1 3.9834693584413601e+00 2.2557857656494478e+00 3.1453854268383726e+01 1 0 0
4535 1 2.3787637724121496e-01 1.1435701725864654e+01 3.1722029858133521e+01 1 1 -1
3273 1 1.5798153537363728e+00 8.5811089638555984e+00 3.2386524237478739e+01 1 1 0
4460 1 3.3371223064935736e+00 6.9004074367061807e-01 2.7398755208803433e+01 0 0 0
2136 1 3.9498002083925292e+00 8.8370870882933641e+00 2.8725385086137610e+01 1 0 -1
1235 1 7.1854329317892001e+00 6.5696343800313937e+00 2.8269934763274684e+01 2 1 1
2409 1 9.8088223398895735e+00 4.5619644547195239e+00 2.6420295055339736e+01 0 1 0
3192 1 5.4586751860227247e+00 4.3080244793027429e+00 2.5755405478772985e+01 0 0 -1
93 1 5.4809597876150837e+00 8.2539018795666785e-01 2.9410153779869262e+01 1 0 0
2229 1 8.8009889917889765e+00 8.1657489935906291e+00 2.9818233190306952e+01 0 1 0
2011 1 1.7661781829501226e+00 1.8162772615875498e+00 2.9726427377837052e+01 1 0 0
4247 1 1.1549127431015314e+01 8.1655993475360003e+00 2.9836139224478785e+01 0 0 -1
1302 1 1.1024013374966572e+01 9.8680319879551863e+00 2.7429697777449089e+01 0 0 0
3409 1 6.6059979332144794e+00 1.8460106967622505e+00 2.6853572270280189e+01 1 0 0
4481 1 8.8592424073693774e+00 1.0296578561779206e+01 2.5762714791217078e+01 0 0 0
3339 1 8.0085485044712303e+00 4.0272412504276192e+00 2.8778933476765950e+01 0 0 0
852 1 7.9109455425082942e+00 2.3979676932618537e+00 3.2041303836547257e+01 0 1 0
4467 1 4.5413680973649839e+00 6.0518934048980046e+00 2.8724939629896991e+01 0 0 0
2193 1 1.0584639587661103e+01 2.8118339058258233e+00 3.2571561876315783e+01 1 1 0
4490 1 1.1319547895849174e+01 1.9427688937303105e+00 2.9490611274907945e+01 0 1 -1
2197 1 1.0013341100240527e+01 5.5585687664416357e+00 3.2183498844881811e+01 0 1 0
4440 1 8.7657253659071657e+00 1.2696940946176176e+00 2.9456533710640119e+01 1 1 -1
4478 1 6.9390917243969659e+00 4.9392175692519045e+00 3.1391967428501658e+01 -1 1 0
4349 1 1.3924235033832193e+00 4.6593334866304392e+00 2.9054993098557659e+01 1 1 0
4510 1 1.2964165125070239e+00 8.8135562676788162e+00 2.5842770372594181e+01 1 -1 0
4511 1 9.0779552318609138e+00 1.1289578855777362e+01 2.9411196878543006e+01 1 0 0
2122 1 1.4696730271200458e+00 4.3183387273594329e+00 3.2160007824565298e+01 1 0 -1
1973 1 6.5787168072150362e+00 9.9972184520001424e+00 3.1902039959739902e+01 1 0 0
1086 1 4.0003026568506010e+00 5.4991677774846428e+00 3.1459816409351674e+01 1 1 0
4368 1 1.0994961743823151e+01 5.1404081097358452e+00 2.9391569731626845e+01 1 -1 0
1053 1 1.1718070766382043e+01 7.0258833912663006e+00 2.6784810028747678e+01 0 1 0
2199 1 9.3336953201233062e+00 1.1334410796494419e+01 3.2290836084897563e+01 0 0 0
2050 1 1.1453616917682522e+01 9.5364222982541076e+00 3.2163127718009676e+01 0 1 0
1176 1 7.6777896269106760e+00 6.0064973370363113e+00 2.5807053111521647e+01 1 -1 0
1270 1 4.0708364985965746e+00 8.4507596027964187e+00 3.1620574300958740e+01 0 0 0
4505 1 3.0691840516152054e+00 5.0447350375028766e+00 2.6437865171550108e+01 1 0 -1
2123 1 4.2957898554668743e+00 9.6741081506476707e+00 2.5041340496373586e+01 -1 1 0
2148 1 2.5748856696047482e+00 1.1891929609988384e+01 2.6393832113756410e+01 1 1 0
3237 1 8.6547559238352125e+00 7.9702394082647565e+00 3.2552634552779438e+01 0 0 0
1030 1 1.1464070761896375e+01 1.4970742483859654e+00 2.4833636135136775e+01 1 0 -1
188 2 0.0000000000000000e+00 1.2787731112280996e+01 3.3600010106739577e+00 0 0 0
190 2 1.2305000000000001e+00 1.3498160618518829e+01 3.3600010106739577e+00 0 0 0
225 2 2.4610000000000003e+00 1.2787731112280996e+01 3.3600010106739577e+00 0 0 0
227 2 3.6915000000000004e+00 1.3498160618518829e+01 3.3600010106739577e+00 0 0 0
186 2 0.0000000000000000e+00 1.5629449137232333e+01 3.3600010106739577e+00 0 0 0
221 2 1.2305000000000001e+00 1.4919019630994494e+01 3.3600010106739577e+00 0 0 0
223 2 2.4610000000000003e+00 1.5629449137232328e+01 3.3600010106739577e+00 0 0 0
266 2 3.6915000000000004e+00 1.4919019630994494e+01 3.3600010106739577e+00 0 0 0
270 2 4.9220000000000006e+00 1.2787731112280996e+01 3.3600010106739577e+00 0 0 0
272 2 6.1524999999999990e+00 1.3498160618518829e+01 3.3600010106739577e+00 0 0 0
317 2 7.3829999999999991e+00 1.2787731112280996e+01 3.3600010106739577e+00 0 0 0
268 2 4.9220000000000006e+00 1.5629449137232333e+01 3.3600010106739577e+00 0 0 0
313 2 6.1524999999999990e+00 1.4919019630994494e+01 3.3600010106739577e+00 0 0 0
315 2 7.3829999999999991e+00 1.5629449137232333e+01 3.3600010106739577e+00 0 0 0
319 2 8.6135000000000002e+00 1.3498160618518835e+01 3.3600010106739577e+00 0 0 0
364 2 9.8440000000000012e+00 1.2787731112280996e+01 3.3600010106739577e+00 0 0 0
366 2 1.1074500000000002e+01 1.3498160618518829e+01 3.3600010106739577e+00 0 0 0
360 2 8.6135000000000002e+00 1.4919019630994494e+01 3.3600010106739577e+00 0 0 0
362 2 9.8440000000000012e+00 1.5629449137232328e+01 3.3600010106739577e+00 0 0 0
402 2 1.1074500000000002e+01 1.4919019630994494e+01 3.3600010106739577e+00 0 0 0
217 2 0.0000000000000000e+00 1.7050308149707998e+01 3.3600010106739577e+00 0 0 0
262 2 2.4610000000000003e+00 1.7050308149707998e+01 3.3600010106739577e+00 0 0 0
215 2 0.0000000000000000e+00 1.9892026174659328e+01 3.3600010106739577e+00 0 0 0
219 2 1.2305000000000001e+00 1.7760737655945832e+01 3.3600010106739577e+00 0 0 0
258 2 1.2305000000000001e+00 1.9181596668421495e+01 3.3600010106739577e+00 0 0 0
260 2 2.4610000000000003e+00 1.9892026174659328e+01 3.3600010106739577e+00 0 0 0
264 2 3.6914999999999996e+00 1.7760737655945832e+01 3.3600010106739577e+00 0 0 0
305 2 3.6914999999999996e+00 1.9181596668421495e+01 3.3600010106739577e+00 0 0 0
309 2 4.9220000000000006e+00 1.7050308149707998e+01 3.3600010106739577e+00 0 0 0
356 2 7.3830000000000009e+00 1.7050308149707998e+01 3.3600010106739577e+00 0 0 0
307 2 4.9220000000000006e+00 1.9892026174659328e+01 3.3600010106739577e+00 0 0 0
311 2 6.1524999999999999e+00 1.7760737655945832e+01 3.3600010106739577e+00 0 0 0
352 2 6.1524999999999999e+00 1.9181596668421495e+01 3.3600010106739577e+00 0 0 0
354 2 7.3829999999999991e+00 1.9892026174659328e+01 3.3600010106739577e+00 0 0 0
398 2 9.8440000000000012e+00 1.7050308149707998e+01 3.3600010106739577e+00 0 0 0
432 2 1.2304999999999998e+01 1.7050308149707998e+01 3.3600010106739577e+00 0 0 0
358 2 8.6134999999999984e+00 1.7760737655945832e+01 3.3600010106739577e+00 0 0 0
394 2 8.6135000000000002e+00 1.9181596668421495e+01 3.3600010106739577e+00 0 0 0
396 2 9.8440000000000012e+00 1.9892026174659335e+01 3.3600010106739577e+00 0 0 0
400 2 1.1074500000000002e+01 1.7760737655945835e+01 3.3600010106739577e+00 0 0 0
428 2 1.1074500000000002e+01 1.9181596668421495e+01 3.3600010106739577e+00 0 0 0
252 2 0.0000000000000000e+00 2.4154603212086325e+01 3.3600010106739577e+00 0 0 0
254 2 0.0000000000000000e+00 2.1312885187134999e+01 3.3600010106739577e+00 0 0 0
256 2 1.2304999999999993e+00 2.2023314693372832e+01 3.3600010106739577e+00 0 0 0
297 2 1.2304999999999993e+00 2.3444173705848499e+01 3.3600010106739577e+00 0 0 0
299 2 2.4610000000000003e+00 2.4154603212086325e+01 3.3600010106739577e+00 0 0 0
301 2 2.4610000000000003e+00 2.1312885187134995e+01 3.3600010106739577e+00 0 0 0
303 2 3.6914999999999996e+00 2.2023314693372832e+01 3.3600010106739577e+00 0 0 0
344 2 3.6915000000000004e+00 2.3444173705848499e+01 3.3600010106739577e+00 0 0 0
346 2 4.9220000000000006e+00 2.4154603212086325e+01 3.3600010106739577e+00 0 0 0
348 2 4.9220000000000006e+00 2.1312885187134995e+01 3.3600010106739577e+00 0 0 0
350 2 6.1524999999999990e+00 2.2023314693372832e+01 3.3600010106739577e+00 0 0 0
386 2 6.1524999999999999e+00 2.3444173705848499e+01 3.3600010106739577e+00 0 0 0
388 2 7.3830000000000009e+00 2.4154603212086336e+01 3.3600010106739577e+00 0 0 0
390 2 7.3829999999999991e+00 2.1312885187134999e+01 3.3600010106739577e+00 0 0 0
392 2 8.6135000000000002e+00 2.2023314693372832e+01 3.3600010106739577e+00 0 0 0
420 2 8.6134999999999984e+00 2.3444173705848499e+01 3.3600010106739577e+00 0 0 0
422 2 9.8440000000000012e+00 2.4154603212086336e+01 3.3600010106739577e+00 0 0 0
424 2 9.8440000000000012e+00 2.1312885187134999e+01 3.3600010106739577e+00 0 0 0
426 2 1.1074500000000002e+01 2.2023314693372832e+01 3.3600010106739577e+00 0 0 0
446 2 1.1074500000000002e+01 2.3444173705848499e+01 3.3600010106739577e+00 0 0 0
189 2 0.0000000000000000e+00 1.2787731112280996e+01 6.3448919156763708e+00 0 0 0
226 2 2.4610000000000003e+00 1.2787731112280996e+01 6.3448919156763708e+00 0 0 0
187 2 0.0000000000000000e+00 1.4208590124756663e+01 6.3448919156763708e+00 0 0 0
222 2 1.2305000000000001e+00 1.4919019630994494e+01 6.3448919156763708e+00 0 0 0
224 2 2.4610000000000003e+00 1.4208590124756663e+01 6.3448919156763708e+00 0 0 0
267 2 3.6915000000000004e+00 1.4919019630994494e+01 6.3448919156763708e+00 0 0 0
271 2 4.9220000000000006e+00 1.2787731112280996e+01 6.3448919156763708e+00 0 0 0
318 2 7.3829999999999991e+00 1.2787731112280996e+01 6.3448919156763708e+00 0 0 0
269 2 4.9220000000000006e+00 1.4208590124756663e+01 6.3448919156763708e+00 0 0 0
314 2 6.1524999999999990e+00 1.4919019630994494e+01 6.3448919156763708e+00 0 0 0
316 2 7.3830000000000009e+00 1.4208590124756663e+01 6.3448919156763708e+00 0 0 0