LAMMPS data file via write_data, version 16 Mar 2018, timestep = 8000000

4560 atoms
2 atom types

0.0000000000000000e+00 4.9219999999999999e+01 xlo xhi
0.0000000000000000e+00 4.9019635930410494e+01 ylo yhi
7.1760908979192095e-01 3.3222390910211679e+01 zlo zhi

Masses

1 18.015
2 12.01

Atoms # atomic

147 2 0.0000000000000000e+00 2.8417180249513345e+00 2.8723352660836148e+00 0 0 0
149 2 0.0000000000000000e+00 0.0000000000000000e+00 2.8723352660836148e+00 0 0 0
151 2 1.2305000000000001e+00 7.1042950623783474e-01 2.8723352660836148e+00 0 0 0
158 2 1.2305000000000001e+00 2.1312885187134998e+00 2.8723352660836148e+00 0 0 0
160 2 2.4610000000000003e+00 2.8417180249513345e+00 2.8723352660836148e+00 0 0 0
162 2 2.4610000000000003e+00 0.0000000000000000e+00 2.8723352660836148e+00 0 0 0
164 2 3.6915000000000004e+00 7.1042950623783474e-01 2.8723352660836148e+00 0 0 0
179 2 3.6914999999999996e+00 2.1312885187134998e+00 2.8723352660836148e+00 0 0 0
181 2 4.9220000000000006e+00 2.8417180249513332e+00 2.8723352660836148e+00 0 0 0
183 2 4.9220000000000006e+00 0.0000000000000000e+00 2.8723352660836148e+00 0 0 0
185 2 6.1524999999999999e+00 7.1042950623783407e-01 2.8723352660836148e+00 0 0 0
208 2 6.1524999999999999e+00 2.1312885187134989e+00 2.8723352660836148e+00 0 0 0
210 2 7.3829999999999991e+00 2.8417180249513345e+00 2.8723352660836148e+00 0 0 0
212 2 7.3829999999999991e+00 0.0000000000000000e+00 2.8723352660836148e+00 0 0 0
214 2 8.6134999999999984e+00 7.1042950623783407e-01 2.8723352660836148e+00 0 0 0
245 2 8.6134999999999984e+00 2.1312885187135002e+00 2.8723352660836148e+00 0 0 0
247 2 9.8440000000000012e+00 2.8417180249513332e+00 2.8723352660836148e+00 0 0 0
249 2 9.8440000000000012e+00 0.0000000000000000e+00 2.8723352660836148e+00 0 0 0
251 2 1.1074500000000002e+01 7.1042950623783330e-01 2.8723352660836148e+00 0 0 0
290 2 1.1074500000000002e+01 2.1312885187135002e+00 2.8723352660836148e+00 0 0 0
154 2 0.0000000000000000e+00 4.2625770374269996e+00 2.8723352660836148e+00 0 0 0
156 2 1.2305000000000001e+00 4.9730065436648339e+00 2.8723352660836148e+00 0 0 0
171 2 1.2305000000000001e+00 6.3938655561404980e+00 2.8723352660836148e+00 0 0 0
175 2 2.4610000000000003e+00 4.2625770374269996e+00 2.8723352660836148e+00 0 0 0
177 2 3.6914999999999996e+00 4.9730065436648339e+00 2.8723352660836148e+00 0 0 0
200 2 3.6914999999999996e+00 6.3938655561404980e+00 2.8723352660836148e+00 0 0 0
152 2 0.0000000000000000e+00 7.1042950623783341e+00 2.8723352660836148e+00 0 0 0
173 2 2.4610000000000003e+00 7.1042950623783341e+00 2.8723352660836148e+00 0 0 0
204 2 4.9220000000000006e+00 4.2625770374269978e+00 2.8723352660836148e+00 0 0 0
206 2 6.1524999999999999e+00 4.9730065436648339e+00 2.8723352660836148e+00 0 0 0
237 2 6.1524999999999999e+00 6.3938655561404980e+00 2.8723352660836148e+00 0 0 0
241 2 7.3829999999999991e+00 4.2625770374269996e+00 2.8723352660836148e+00 0 0 0
202 2 4.9220000000000006e+00 7.1042950623783341e+00 2.8723352660836148e+00 0 0 0
239 2 7.3830000000000009e+00 7.1042950623783341e+00 2.8723352660836148e+00 0 0 0
243 2 8.6135000000000002e+00 4.9730065436648339e+00 2.8723352660836148e+00 0 0 0
282 2 8.6135000000000002e+00 6.3938655561404980e+00 2.8723352660836148e+00 0 0 0
286 2 9.8440000000000012e+00 4.2625770374270004e+00 2.8723352660836148e+00 0 0 0
288 2 1.1074500000000002e+01 4.9730065436648339e+00 2.8723352660836148e+00 0 0 0
329 2 1.1074500000000002e+01 6.3938655561404980e+00 2.8723352660836148e+00 0 0 0
284 2 9.8440000000000012e+00 7.1042950623783341e+00 2.8723352660836148e+00 0 0 0
167 2 0.0000000000000000e+00 8.5251540748539991e+00 2.8723352660836148e+00 0 0 0
169 2 1.2305000000000001e+00 9.2355835810918343e+00 2.8723352660836148e+00 0 0 0
196 2 2.4610000000000003e+00 8.5251540748539991e+00 2.8723352660836148e+00 0 0 0
198 2 3.6915000000000004e+00 9.2355835810918343e+00 2.8723352660836148e+00 0 0 0
165 2 0.0000000000000000e+00 1.1366872099805333e+01 2.8723352660836148e+00 0 0 0
192 2 1.2305000000000001e+00 1.0656442593567498e+01 2.8723352660836148e+00 0 0 0
194 2 2.4610000000000003e+00 1.1366872099805333e+01 2.8723352660836148e+00 0 0 0
229 2 3.6914999999999996e+00 1.0656442593567499e+01 2.8723352660836148e+00 0 0 0
233 2 4.9220000000000006e+00 8.5251540748539991e+00 2.8723352660836148e+00 0 0 0
235 2 6.1524999999999999e+00 9.2355835810918343e+00 2.8723352660836148e+00 0 0 0
278 2 7.3830000000000009e+00 8.5251540748539991e+00 2.8723352660836148e+00 0 0 0
231 2 4.9220000000000006e+00 1.1366872099805333e+01 2.8723352660836148e+00 0 0 0
274 2 6.1524999999999999e+00 1.0656442593567499e+01 2.8723352660836148e+00 0 0 0
276 2 7.3829999999999991e+00 1.1366872099805333e+01 2.8723352660836148e+00 0 0 0
280 2 8.6134999999999984e+00 9.2355835810918343e+00 2.8723352660836148e+00 0 0 0
325 2 9.8440000000000012e+00 8.5251540748539956e+00 2.8723352660836148e+00 0 0 0
327 2 1.1074500000000002e+01 9.2355835810918343e+00 2.8723352660836148e+00 0 0 0
321 2 8.6134999999999984e+00 1.0656442593567498e+01 2.8723352660836148e+00 0 0 0
323 2 9.8440000000000012e+00 1.1366872099805333e+01 2.8723352660836148e+00 0 0 0
368 2 1.1074500000000002e+01 1.0656442593567498e+01 2.8723352660836148e+00 0 0 0
370 2 1.2304999999999998e+01 1.1366872099805333e+01 2.8723352660836148e+00 0 0 0
148 2 0.0000000000000000e+00 1.4208590124756650e+00 5.9641790846658260e+00 0 0 0
150 2 0.0000000000000000e+00 0.0000000000000000e+00 5.9641790846658260e+00 0 0 0
159 2 1.2305000000000001e+00 2.1312885187134998e+00 5.9641790846658260e+00 0 0 0
161 2 2.4610000000000003e+00 1.4208590124756650e+00 5.9641790846658260e+00 0 0 0
163 2 2.4610000000000003e+00 0.0000000000000000e+00 5.9641790846658260e+00 0 0 0
180 2 3.6914999999999996e+00 2.1312885187134998e+00 5.9641790846658260e+00 0 0 0
157 2 1.2305000000000001e+00 3.5521475311891644e+00 5.9641790846658260e+00 0 0 0
178 2 3.6914999999999996e+00 3.5521475311891644e+00 5.9641790846658260e+00 0 0 0
182 2 4.9220000000000006e+00 1.4208590124756650e+00 5.9641790846658260e+00 0 0 0
184 2 4.9220000000000006e+00 0.0000000000000000e+00 5.9641790846658260e+00 0 0 0
209 2 6.1524999999999999e+00 2.1312885187134989e+00 5.9641790846658260e+00 0 0 0
211 2 7.3829999999999991e+00 1.4208590124756659e+00 5.9641790846658260e+00 0 0 0
213 2 7.3829999999999991e+00 0.0000000000000000e+00 5.9641790846658260e+00 0 0 0
207 2 6.1524999999999999e+00 3.5521475311891644e+00 5.9641790846658260e+00 0 0 0
246 2 8.6134999999999984e+00 2.1312885187135002e+00 5.9641790846658260e+00 0 0 0
248 2 9.8440000000000012e+00 1.4208590124756659e+00 5.9641790846658260e+00 0 0 0
250 2 9.8440000000000012e+00 0.0000000000000000e+00 5.9641790846658260e+00 0 0 0
291 2 1.1074500000000002e+01 2.1312885187135002e+00 5.9641790846658260e+00 0 0 0
244 2 8.6134999999999984e+00 3.5521475311891657e+00 5.9641790846658260e+00 0 0 0
289 2 1.1074500000000002e+01 3.5521475311891644e+00 5.9641790846658260e+00 0 0 0
153 2 0.0000000000000000e+00 5.6834360499026637e+00 5.9641790846658260e+00 0 0 0
155 2 0.0000000000000000e+00 4.2625770374269996e+00 5.9641790846658260e+00 0 0 0
172 2 1.2305000000000001e+00 6.3938655561404980e+00 5.9641790846658260e+00 0 0 0
174 2 2.4610000000000003e+00 5.6834360499026637e+00 5.9641790846658260e+00 0 0 0
176 2 2.4610000000000003e+00 4.2625770374269996e+00 5.9641790846658260e+00 0 0 0
201 2 3.6914999999999996e+00 6.3938655561404980e+00 5.9641790846658260e+00 0 0 0
170 2 1.2305000000000001e+00 7.8147245686161639e+00 5.9641790846658260e+00 0 0 0
199 2 3.6914999999999996e+00 7.8147245686161639e+00 5.9641790846658260e+00 0 0 0
203 2 4.9220000000000006e+00 5.6834360499026637e+00 5.9641790846658260e+00 0 0 0
205 2 4.9220000000000006e+00 4.2625770374269978e+00 5.9641790846658260e+00 0 0 0
238 2 6.1524999999999999e+00 6.3938655561404980e+00 5.9641790846658260e+00 0 0 0
240 2 7.3829999999999991e+00 5.6834360499026637e+00 5.9641790846658260e+00 0 0 0
242 2 7.3829999999999991e+00 4.2625770374269996e+00 5.9641790846658260e+00 0 0 0
236 2 6.1524999999999999e+00 7.8147245686161639e+00 5.9641790846658260e+00 0 0 0
283 2 8.6135000000000002e+00 6.3938655561404980e+00 5.9641790846658260e+00 0 0 0
285 2 9.8440000000000012e+00 5.6834360499026637e+00 5.9641790846658260e+00 0 0 0
287 2 9.8440000000000012e+00 4.2625770374270004e+00 5.9641790846658260e+00 0 0 0
330 2 1.1074500000000002e+01 6.3938655561404980e+00 5.9641790846658260e+00 0 0 0
281 2 8.6135000000000002e+00 7.8147245686161639e+00 5.9641790846658260e+00 0 0 0
328 2 1.1074500000000002e+01 7.8147245686161639e+00 5.9641790846658260e+00 0 0 0
166 2 0.0000000000000000e+00 9.9460130873296642e+00 5.9641790846658260e+00 0 0 0
168 2 0.0000000000000000e+00 8.5251540748539991e+00 5.9641790846658260e+00 0 0 0
195 2 2.4610000000000003e+00 9.9460130873296642e+00 5.9641790846658260e+00 0 0 0
197 2 2.4610000000000003e+00 8.5251540748539991e+00 5.9641790846658260e+00 0 0 0
191 2 1.2305000000000001e+00 1.2077301606043163e+01 5.9641790846658260e+00 0 0 0
193 2 1.2305000000000001e+00 1.0656442593567498e+01 5.9641790846658260e+00 0 0 0
228 2 3.6914999999999996e+00 1.2077301606043163e+01 5.9641790846658260e+00 0 0 0
230 2 3.6914999999999996e+00 1.0656442593567499e+01 5.9641790846658260e+00 0 0 0
232 2 4.9220000000000006e+00 9.9460130873296642e+00 5.9641790846658260e+00 0 0 0
234 2 4.9220000000000006e+00 8.5251540748539991e+00 5.9641790846658260e+00 0 0 0
277 2 7.3830000000000009e+00 9.9460130873296642e+00 5.9641790846658260e+00 0 0 0
279 2 7.3830000000000009e+00 8.5251540748539991e+00 5.9641790846658260e+00 0 0 0
273 2 6.1524999999999999e+00 1.2077301606043163e+01 5.9641790846658260e+00 0 0 0
275 2 6.1524999999999999e+00 1.0656442593567499e+01 5.9641790846658260e+00 0 0 0
367 2 1.1074500000000002e+01 1.2077301606043163e+01 5.9641790846658260e+00 0 0 0
326 2 9.8440000000000012e+00 8.5251540748539956e+00 5.9641790846658260e+00 0 0 0
322 2 8.6134999999999984e+00 1.0656442593567498e+01 5.9641790846658260e+00 0 0 0
324 2 9.8440000000000012e+00 9.9460130873296642e+00 5.9641790846658260e+00 0 0 0
369 2 1.1074500000000002e+01 1.0656442593567498e+01 5.9641790846658260e+00 0 0 0
320 2 8.6135000000000002e+00 1.2077301606043163e+01 5.9641790846658260e+00 0 0 0
476 2 0.0000000000000000e+00 2.8417180249513345e+00 9.0560229032489232e+00 0 0 0
477 2 0.0000000000000000e+00 0.0000000000000000e+00 9.0560229032489232e+00 0 0 0
478 2 1.2305000000000001e+00 7.1042950623783474e-01 9.0560229032489232e+00 0 0 0
482 2 1.2305000000000001e+00 2.1312885187134998e+00 9.0560229032489232e+00 0 0 0
483 2 2.4610000000000003e+00 2.8417180249513345e+00 9.0560229032489232e+00 0 0 0
484 2 2.4610000000000003e+00 0.0000000000000000e+00 9.0560229032489232e+00 0 0 0
485 2 3.6915000000000004e+00 7.1042950623783474e-01 9.0560229032489232e+00 0 0 0
493 2 3.6914999999999996e+00 2.1312885187134998e+00 9.0560229032489232e+00 0 0 0
4262 1 1.5176156224475594e+00 1.4230009658485077e+00 1.1866951677507894e+01 1 -2 -1
4410 1 2.7665281440162857e+00 3.9610179587253529e+00 1.1677494301088926e+01 -2 -4 -1
494 2 4.9220000000000006e+00 2.8417180249513332e+00 9.0560229032489232e+00 0 0 0
495 2 4.9220000000000006e+00 0.0000000000000000e+00 9.0560229032489232e+00 0 0 0
496 2 6.1524999999999999e+00 7.1042950623783407e-01 9.0560229032489232e+00 0 0 0
508 2 6.1524999999999999e+00 2.1312885187134989e+00 9.0560229032489232e+00 0 0 0
509 2 7.3829999999999991e+00 2.8417180249513345e+00 9.0560229032489232e+00 0 0 0
510 2 7.3829999999999991e+00 0.0000000000000000e+00 9.0560229032489232e+00 0 0 0
3572 1 5.4599138978463149e+00 3.7006228878276128e+00 1.1671558329594419e+01 1 2 0
3342 1 6.9226990412163918e+00 1.4553253013119423e+00 1.1645951002942599e+01 -1 -1 0
511 2 8.6134999999999984e+00 7.1042950623783407e-01 9.0560229032489232e+00 0 0 0
527 2 8.6134999999999984e+00 2.1312885187135002e+00 9.0560229032489232e+00 0 0 0
528 2 9.8440000000000012e+00 2.8417180249513332e+00 9.0560229032489232e+00 0 0 0
529 2 9.8440000000000012e+00 0.0000000000000000e+00 9.0560229032489232e+00 0 0 0
530 2 1.1074500000000002e+01 7.1042950623783330e-01 9.0560229032489232e+00 0 0 0
550 2 1.1074500000000002e+01 2.1312885187135002e+00 9.0560229032489232e+00 0 0 0
874 1 1.1050576739701263e+01 3.4704152651897440e+00 1.1786239578173996e+01 0 1 0
2226 1 9.4648191388879095e+00 1.0936430571055864e+00 1.2065955170337324e+01 -3 2 0
480 2 0.0000000000000000e+00 4.2625770374269996e+00 9.0560229032489232e+00 0 0 0
481 2 1.2305000000000001e+00 4.9730065436648339e+00 9.0560229032489232e+00 0 0 0
489 2 1.2305000000000001e+00 6.3938655561404980e+00 9.0560229032489232e+00 0 0 0
491 2 2.4610000000000003e+00 4.2625770374269996e+00 9.0560229032489232e+00 0 0 0
492 2 3.6914999999999996e+00 4.9730065436648339e+00 9.0560229032489232e+00 0 0 0
504 2 3.6914999999999996e+00 6.3938655561404980e+00 9.0560229032489232e+00 0 0 0
479 2 0.0000000000000000e+00 7.1042950623783341e+00 9.0560229032489232e+00 0 0 0
490 2 2.4610000000000003e+00 7.1042950623783341e+00 9.0560229032489232e+00 0 0 0
3557 1 1.4225332757085130e+00 6.1506914477443839e+00 1.1968858834784360e+01 0 -2 0
3442 1 7.2018040466152931e+00 6.1985278264925432e+00 1.1945445017367117e+01 2 -2 -1
506 2 4.9220000000000006e+00 4.2625770374269978e+00 9.0560229032489232e+00 0 0 0
507 2 6.1524999999999999e+00 4.9730065436648339e+00 9.0560229032489232e+00 0 0 0
523 2 6.1524999999999999e+00 6.3938655561404980e+00 9.0560229032489232e+00 0 0 0
525 2 7.3829999999999991e+00 4.2625770374269996e+00 9.0560229032489232e+00 0 0 0
505 2 4.9220000000000006e+00 7.1042950623783341e+00 9.0560229032489232e+00 0 0 0
524 2 7.3830000000000009e+00 7.1042950623783341e+00 9.0560229032489232e+00 0 0 0
3252 1 1.0079172981815521e+01 6.0585756824728794e+00 1.1795548138673839e+01 1 -1 0
526 2 8.6135000000000002e+00 4.9730065436648339e+00 9.0560229032489232e+00 0 0 0
546 2 8.6135000000000002e+00 6.3938655561404980e+00 9.0560229032489232e+00 0 0 0
548 2 9.8440000000000012e+00 4.2625770374270004e+00 9.0560229032489232e+00 0 0 0
549 2 1.1074500000000002e+01 4.9730065436648339e+00 9.0560229032489232e+00 0 0 0
570 2 1.1074500000000002e+01 6.3938655561404980e+00 9.0560229032489232e+00 0 0 0
547 2 9.8440000000000012e+00 7.1042950623783341e+00 9.0560229032489232e+00 0 0 0
4464 1 3.1056516038839255e+00 8.4323154773974114e+00 1.2030506272645068e+01 1 -2 0
487 2 0.0000000000000000e+00 8.5251540748539991e+00 9.0560229032489232e+00 0 0 0
488 2 1.2305000000000001e+00 9.2355835810918343e+00 9.0560229032489232e+00 0 0 0
502 2 2.4610000000000003e+00 8.5251540748539991e+00 9.0560229032489232e+00 0 0 0
503 2 3.6915000000000004e+00 9.2355835810918343e+00 9.0560229032489232e+00 0 0 0
486 2 0.0000000000000000e+00 1.1366872099805333e+01 9.0560229032489232e+00 0 0 0
500 2 1.2305000000000001e+00 1.0656442593567498e+01 9.0560229032489232e+00 0 0 0
501 2 2.4610000000000003e+00 1.1366872099805333e+01 9.0560229032489232e+00 0 0 0
519 2 3.6914999999999996e+00 1.0656442593567499e+01 9.0560229032489232e+00 0 0 0
3435 1 1.9355797745891894e+00 1.0729274457242720e+01 1.1619533334652898e+01 2 2 0
3184 1 5.6814140665585695e+00 8.6731928286719011e+00 1.1353664779816162e+01 1 -2 0
521 2 4.9220000000000006e+00 8.5251540748539991e+00 9.0560229032489232e+00 0 0 0
522 2 6.1524999999999999e+00 9.2355835810918343e+00 9.0560229032489232e+00 0 0 0
544 2 7.3830000000000009e+00 8.5251540748539991e+00 9.0560229032489232e+00 0 0 0
520 2 4.9220000000000006e+00 1.1366872099805333e+01 9.0560229032489232e+00 0 0 0
542 2 6.1524999999999999e+00 1.0656442593567499e+01 9.0560229032489232e+00 0 0 0
543 2 7.3829999999999991e+00 1.1366872099805333e+01 9.0560229032489232e+00 0 0 0
849 1 6.9421614735597128e+00 1.0942052849944428e+01 1.2226264503396207e+01 2 -3 -1
4531 1 1.1091681206674789e+01 8.5826234364516942e+00 1.1548297537254625e+01 -1 -4 0
1092 1 9.4823284425258247e+00 1.1039627767175322e+01 1.1930506179481142e+01 3 0 0
545 2 8.6134999999999984e+00 9.2355835810918343e+00 9.0560229032489232e+00 0 0 0
568 2 9.8440000000000012e+00 8.5251540748539956e+00 9.0560229032489232e+00 0 0 0
569 2 1.1074500000000002e+01 9.2355835810918343e+00 9.0560229032489232e+00 0 0 0
566 2 8.6134999999999984e+00 1.0656442593567498e+01 9.0560229032489232e+00 0 0 0
567 2 9.8440000000000012e+00 1.1366872099805333e+01 9.0560229032489232e+00 0 0 0
590 2 1.1074500000000002e+01 1.0656442593567498e+01 9.0560229032489232e+00 0 0 0
591 2 1.2304999999999998e+01 1.1366872099805333e+01 9.0560229032489232e+00 0 0 0
2389 1 1.3593812100731142e+00 1.6093249844484716e+00 1.4977722055127456e+01 5 -1 0
2380 1 2.6771324718932439e+00 3.9629708633826777e+00 1.4419049305940591e+01 3 -1 0
2124 1 5.4548882698295165e+00 3.9534767766064869e+00 1.4915305311513121e+01 0 -2 -1
2172 1 6.8689741262613522e+00 1.4490203153441272e+00 1.4407655151650308e+01 4 3 -1
2256 1 1.1137829313248270e+01 3.5312980942498364e+00 1.4518442296178067e+01 3 -1 0
3299 1 9.5242043228643976e+00 1.4771196843260959e+00 1.4951900832881009e+01 1 0 0
4537 1 1.5349328211831599e+00 6.2140225942660026e+00 1.5490702135943764e+01 2 1 0
1165 1 6.8604376077723455e+00 6.4604077640816326e+00 1.4676861455651945e+01 -2 2 -1
3370 1 9.8194851636280092e+00 6.2467029281732875e+00 1.4634616251886968e+01 3 1 0
4290 1 1.1113172076650452e+01 8.7620264674251587e+00 1.4316610517680923e+01 -1 2 0
942 1 2.7362387056836184e+00 8.5960836098813189e+00 1.4691553739842647e+01 -1 -2 0
1276 1 1.3170924527230696e+00 1.1001622061118621e+01 1.5283680614953607e+01 1 0 0
3421 1 5.5046699830307029e+00 8.6858577059251907e+00 1.5633599107507667e+01 -3 3 0
2277 1 6.9299347035467722e+00 1.0755952227378501e+01 1.4913885774153330e+01 1 4 0
4238 1 9.5621122717100118e+00 1.0935248274095686e+01 1.5194269416891297e+01 -3 -1 0
4247 1 3.4949079877228519e+00 2.0859141115108866e+00 1.8854371388158004e+01 2 0 -1
2224 1 9.0081378780313692e-01 1.8155588419676447e+00 1.7736359953847654e+01 0 -1 -1
2235 1 5.1142298179253087e+00 3.9332821589280234e+00 1.7854885470512713e+01 4 2 0
4289 1 7.5835309359770493e+00 3.7705040660235598e+00 1.8796165311196010e+01 3 0 0
3315 1 1.1232248261959798e+01 1.3553502906736217e+00 1.8511013248972066e+01 2 2 0
4253 1 8.5958935830551280e+00 1.2082336402124796e+00 1.7672212696523129e+01 -1 1 -1
4400 1 1.2858082913967370e+00 6.6662529766843770e+00 1.8225967401424832e+01 1 1 0
2111 1 3.8962618358471093e+00 6.3657312027389228e+00 1.9052722493654887e+01 -2 1 0
1230 1 9.1591092666358289e+00 5.6670654496273087e+00 1.7447245934904362e+01 -2 2 0
3176 1 1.1813765897868706e+01 5.6966371053032754e+00 1.8446437787250844e+01 0 -1 0
2265 1 1.2126513318457450e+00 1.0988762622508951e+01 1.7961214037955106e+01 2 2 0
2326 1 3.9420864088884664e+00 1.0991365602871404e+01 1.8906079199811863e+01 -2 2 0
4232 1 8.2531763513066512e+00 8.2088555711031770e+00 1.8518609942490347e+01 0 0 0
4251 1 5.4096348536139667e+00 8.5962172708784195e+00 1.8218445538721976e+01 3 -4 0
4500 1 9.6806641211594044e+00 1.0298506488468142e+01 2.2345850957981291e+01 0 2 -1
2417 1 9.8939206750593076e+00 1.0460176100156357e+01 1.8082777752831266e+01 0 5 0
4287 1 3.3921808539934668e+00 1.6273696642174702e+00 2.1639798194559582e+01 0 2 0
3492 1 5.8704074924703409e-01 1.8940903418592401e+00 2.2485696560762836e+01 2 -1 0
2376 1 7.5327163633548428e+00 3.7109050901763094e+00 2.1612086792392770e+01 1 0 -1
2251 1 4.8882294172928020e+00 3.7162067277163970e+00 2.2548003767902660e+01 0 2 -1
1168 1 1.1164101043965291e+01 1.1671319072436785e+00 2.1425591784071539e+01 -1 3 0
4319 1 8.6045705949969182e+00 1.2562263965317206e+00 2.2490481376438275e+01 4 2 0
3420 1 5.0562788096273046e+00 8.5636534874339798e+00 2.4998918542828161e+01 -2 5 -1
1116 1 3.4683055179214359e+00 6.1509756026405471e+00 2.1889085499436003e+01 -1 1 -1
3339 1 9.7130976282491577e-01 6.4099546048088580e+00 2.2716149214209089e+01 0 0 0
3495 1 1.1583603362313122e+01 5.6383109644238658e+00 2.1234613319226892e+01 0 -1 0
2097 1 9.0625600780809457e+00 6.0043253678246264e+00 2.2274874411964461e+01 0 2 -1
910 1 4.1570217396575257e+00 1.0753312606810749e+01 2.1815949039278077e+01 0 1 -1
2056 1 1.4117864148594399e+00 1.1129021091941292e+01 2.2630581801335296e+01 1 -1 0
1206 1 7.8073268993596336e+00 8.5487462022447271e+00 2.1240505921048339e+01 1 -3 0
4418 1 5.2124987091577903e+00 8.1934018718163326e+00 2.2206684418751735e+01 0 0 0
1298 1 1.2257012559251358e+01 1.0086490572256109e+01 2.1158845426761854e+01 -3 2 0
933 1 8.7521260574172572e+00 5.5532465169742782e+00 2.5002776325472666e+01 0 -1 0
2200 1 3.0659801271411879e-02 8.8848313058900459e+00 2.1761182110068869e+01 2 -3 0
4362 1 2.3821756760259771e+00 4.3333177923109547e+00 2.6332490024839977e+01 -2 0 0
4344 1 5.3949964604003586e+00 8.1822327646827890e+00 2.9457964844960951e+01 1 -1 0
2199 1 5.9810213868568693e+00 1.3064661012861813e+00 2.6158869104772872e+01 2 1 0
988 1 6.2477870521850027e+00 1.0617834657673773e+00 2.8802171260303840e+01 0 3 0
3294 1 5.4744884524419026e+00 8.0131260209450659e+00 3.2176255036320391e+01 0 2 0
3587 1 1.0049606584247766e+01 3.2682762427126861e+00 2.5738535128559064e+01 2 3 0
2275 1 1.0326171283168611e+01 3.1086733938139188e+00 2.8590231145294542e+01 -1 -1 -1
3541 1 2.8266659305697570e+00 8.1439598099837998e+00 3.2778761322637642e+01 -1 2 0
3401 1 6.2842971302374773e+00 6.1290936746231663e+00 2.5848908317456701e+01 -1 -3 0
945 1 6.7037981347452096e+00 5.8476141554013559e+00 2.8594172299955481e+01 3 0 0
3182 1 1.0125258153846584e+01 7.6640668449705327e+00 2.5655642648517365e+01 -4 4 0
3230 1 1.0777632315418112e+01 7.4888903198749581e+00 2.8603160254281025e+01 0 -2 -1
134 1 1.3409672178664420e+00 1.0748476275349832e+01 2.9962348113744724e+01 4 1 0
1133 1 2.6070714441290095e+00 8.4995918714999039e+00 2.8954675249113937e+01 -1 -1 0
1031 1 2.5604324782433285e+00 8.5981663062380651e+00 2.6270168700305028e+01 2 1 0
4404 1 1.2592576500829751e+00 1.0819050023049952e+01 2.5305877124982800e+01 0 5 0
2400 1 6.7552178250208739e+00 1.0777333935337948e+01 2.5991044460953741e+01 -1 0 0
4516 1 6.8685544530940215e+00 1.0416790700344578e+01 2.8854057502320138e+01 1 1 0
2354 1 9.7293226517241962e+00 9.9612587876175169e+00 2.9305740129373984e+01 -1 2 0
2387 1 9.7494022826262086e+00 1.0018358274247598e+01 3.2058636068905010e+01 -1 2 0
4503 1 5.7422431010977804e-01 1.9184509494080872e+00 2.9835747574884849e+01 -3 0 -1
2383 1 1.1246677315338996e+01 1.1983816507971477e+01 3.3025826608253738e+01 3 -1 0
114 1 7.0355661440248052e-01 1.6313007353930078e+00 3.2735972603148703e+01 0 1 0
973 1 5.3366341304896023e+00 3.6626686334925673e+00 2.9506110650376606e+01 -1 3 0
1027 1 5.2859723294036174e+00 3.4485248659264203e+00 3.2140894251727588e+01 2 -4 0
4484 1 6.3601131642163482e+00 1.2409825056960226e+00 3.3154266263305779e+01 2 -1 -1
4473 1 8.7080429957208043e+00 8.1252173486162205e-01 2.9617215485313640e+01 -4 3 -1
1259 1 8.8484710698020947e+00 5.2649279256077697e-01 3.2449746733778468e+01 0 0 0
4277 1 1.5016990757460582e+00 1.0346354895468355e+01 3.2477069994885312e+01 2 -3 0
3398 1 2.5649383302537734e+00 3.8801197554525424e+00 2.8901479982154349e+01 0 1 -1
2135 1 9.9766162593084251e-01 6.3598186189120467e+00 2.9864614441896112e+01 -1 1 0
2126 1 1.1075048050107335e+00 6.0178097597646696e+00 3.2755788636382178e+01 1 0 0
2041 1 2.4195521992952527e+00 3.5110892513434320e+00 3.3096903760342762e+01 2 -1 0
1981 1 4.7219668814011850e+00 3.7571847169168806e+00 2.5395204434859071e+01 -2 0 0
3253 1 9.3275920044457195e+00 5.5127020898176831e+00 3.2318672761585034e+01 0 0 0
4276 1 9.1001338808849788e+00 5.2131414647472081e+00 2.9666381598243895e+01 1 0 -1
3471 1 8.1186311406400047e-01 2.0683728016571821e+00 2.5320592676384912e+01 0 2 1
3443 1 6.9265965885363432e+00 1.0173392883582563e+01 3.3074170073374376e+01 0 0 0
4241 1 1.0805073473508706e+01 7.6315427104107405e+00 3.2991913712997267e+01 2 2 0
1225 1 1.0456116137997094e+01 2.8299044881695492e+00 3.2575946624886328e+01 4 3 0
4469 1 1.0646517295735021e+00 6.6403898322474602e+00 2.5292853449873885e+01 -1 2 0
1001 1 6.7862811474469362e+00 5.7256864822175864e+00 3.2852243076073449e+01 3 3 0
4521 1 8.5687622053858945e+00 1.0555869907658681e+00 2.5163852696873157e+01 -1 3 0
3448 1 9.3096711862913786e+00 1.0447200370274624e+01 2.5234755082026972e+01 -2 1 0
188 2 0.0000000000000000e+00 1.2787731112280996e+01 2.8723352660836148e+00 0 0 0
190 2 1.2305000000000001e+00 1.3498160618518829e+01 2.8723352660836148e+00 0 0 0
225 2 2.4610000000000003e+00 1.2787731112280996e+01 2.8723352660836148e+00 0 0 0
227 2 3.6915000000000004e+00 1.3498160618518829e+01 2.8723352660836148e+00 0 0 0
186 2 0.0000000000000000e+00 1.5629449137232333e+01 2.8723352660836148e+00 0 0 0
221 2 1.2305000000000001e+00 1.4919019630994494e+01 2.8723352660836148e+00 0 0 0
223 2 2.4610000000000003e+00 1.5629449137232328e+01 2.8723352660836148e+00 0 0 0
266 2 3.6915000000000004e+00 1.4919019630994494e+01 2.8723352660836148e+00 0 0 0
270 2 4.9220000000000006e+00 1.2787731112280996e+01 2.8723352660836148e+00 0 0 0
272 2 6.1524999999999990e+00 1.3498160618518829e+01 2.8723352660836148e+00 0 0 0
317 2 7.3829999999999991e+00 1.2787731112280996e+01 2.8723352660836148e+00 0 0 0
268 2 4.9220000000000006e+00 1.5629449137232333e+01 2.8723352660836148e+00 0 0 0
313 2 6.1524999999999990e+00 1.4919019630994494e+01 2.8723352660836148e+00 0 0 0
315 2 7.3829999999999991e+00 1.5629449137232333e+01 2.8723352660836148e+00 0 0 0
319 2 8.6135000000000002e+00 1.3498160618518835e+01 2.8723352660836148e+00 0 0 0
364 2 9.8440000000000012e+00 1.2787731112280996e+01 2.8723352660836148e+00 0 0 0
366 2 1.1074500000000002e+01 1.3498160618518829e+01 2.8723352660836148e+00 0 0 0
360 2 8.6135000000000002e+00 1.4919019630994494e+01 2.8723352660836148e+00 0 0 0
362 2 9.8440000000000012e+00 1.5629449137232328e+01 2.8723352660836148e+00 0 0 0
402 2 1.1074500000000002e+01 1.4919019630994494e+01 2.8723352660836148e+00 0 0 0
217 2 0.0000000000000000e+00 1.7050308149707998e+01 2.8723352660836148e+00 0 0 0
262 2 2.4610000000000003e+00 1.7050308149707998e+01 2.8723352660836148e+00 0 0 0
215 2 0.0000000000000000e+00 1.9892026174659328e+01 2.8723352660836148e+00 0 0 0
219 2 1.2305000000000001e+00 1.7760737655945832e+01 2.8723352660836148e+00 0 0 0
258 2 1.2305000000000001e+00 1.9181596668421495e+01 2.8723352660836148e+00 0 0 0
260 2 2.4610000000000003e+00 1.9892026174659328e+01 2.8723352660836148e+00 0 0 0
264 2 3.6914999999999996e+00 1.7760737655945832e+01 2.8723352660836148e+00 0 0 0
305 2 3.6914999999999996e+00 1.9181596668421495e+01 2.8723352660836148e+00 0 0 0
309 2 4.9220000000000006e+00 1.7050308149707998e+01 2.8723352660836148e+00 0 0 0
356 2 7.3830000000000009e+00 1.7050308149707998e+01 2.8723352660836148e+00 0 0 0
307 2 4.9220000000000006e+00 1.9892026174659328e+01 2.8723352660836148e+00 0 0 0
311 2 6.1524999999999999e+00 1.7760737655945832e+01 2.8723352660836148e+00 0 0 0
352 2 6.1524999999999999e+00 1.9181596668421495e+01 2.8723352660836148e+00 0 0 0
354 2 7.3829999999999991e+00 1.9892026174659328e+01 2.8723352660836148e+00 0 0 0
398 2 9.8440000000000012e+00 1.7050308149707998e+01 2.8723352660836148e+00 0 0 0
432 2 1.2304999999999998e+01 1.7050308149707998e+01 2.8723352660836148e+00 0 0 0
358 2 8.6134999999999984e+00 1.7760737655945832e+01 2.8723352660836148e+00 0 0 0
394 2 8.6135000000000002e+00 1.9181596668421495e+01 2.8723352660836148e+00 0 0 0
396 2 9.8440000000000012e+00 1.9892026174659335e+01 2.8723352660836148e+00 0 0 0
400 2 1.1074500000000002e+01 1.7760737655945835e+01 2.8723352660836148e+00 0 0 0
428 2 1.1074500000000002e+01 1.9181596668421495e+01 2.8723352660836148e+00 0 0 0
252 2 0.0000000000000000e+00 2.4154603212086325e+01 2.8723352660836148e+00 0 0 0
254 2 0.0000000000000000e+00 2.1312885187134999e+01 2.8723352660836148e+00 0 0 0
256 2 1.2304999999999993e+00 2.2023314693372832e+01 2.8723352660836148e+00 0 0 0
297 2 1.2304999999999993e+00 2.3444173705848499e+01 2.8723352660836148e+00 0 0 0
299 2 2.4610000000000003e+00 2.4154603212086325e+01 2.8723352660836148e+00 0 0 0
301 2 2.4610000000000003e+00 2.1312885187134995e+01 2.8723352660836148e+00 0 0 0
303 2 3.6914999999999996e+00 2.2023314693372832e+01 2.8723352660836148e+00 0 0 0
344 2 3.6915000000000004e+00 2.3444173705848499e+01 2.8723352660836148e+00 0 0 0
346 2 4.9220000000000006e+00 2.4154603212086325e+01 2.8723352660836148e+00 0 0 0
348 2 4.9220000000000006e+00 2.1312885187134995e+01 2.8723352660836148e+00 0 0 0
350 2 6.1524999999999990e+00 2.2023314693372832e+01 2.8723352660836148e+00 0 0 0
386 2 6.1524999999999999e+00 2.3444173705848499e+01 2.8723352660836148e+00 0 0 0
388 2 7.3830000000000009e+00 2.4154603212086336e+01 2.8723352660836148e+00 0 0 0
390 2 7.3829999999999991e+00 2.1312885187134999e+01 2.8723352660836148e+00 0 0 0
392 2 8.6135000000000002e+00 2.2023314693372832e+01 2.8723352660836148e+00 0 0 0
420 2 8.6134999999999984e+00 2.3444173705848499e+01 2.8723352660836148e+00 0 0 0
422 2 9.8440000000000012e+00 2.4154603212086336e+01 2.8723352660836148e+00 0 0 0
424 2 9.8440000000000012e+00 2.1312885187134999e+01 2.8723352660836148e+00 0 0 0
426 2 1.1074500000000002e+01 2.2023314693372832e+01 2.8723352660836148e+00 0 0 0
446 2 1.1074500000000002e+01 2.3444173705848499e+01 2.8723352660836148e+00 0 0 0
189 2 0.0000000000000000e+00 1.2787731112280996e+01 5.9641790846658260e+00 0 0 0
226 2 2.4610000000000003e+00 1.2787731112280996e+01 5.9641790846658260e+00 0 0 0
187 2 0.0000000000000000e+00 1.4208590124756663e+01 5.9641790846658260e+00 0 0 0
222 2 1.2305000000000001e+00 1.4919019630994494e+01 5.9641790846658260e+00 0 0 0
224 2 2.4610000000000003e+00 1.4208590124756663e+01 5.9641790846658260e+00 0 0 0
267 2 3.6915000000000004e+00 1.4919019630994494e+01 5.9641790846658260e+00 0 0 0
271 2 4.9220000000000006e+00 1.2787731112280996e+01 5.9641790846658260e+00 0 0 0
318 2 7.3829999999999991e+00 1.2787731112280996e+01 5.9641790846658260e+00 0 0 0
269 2 4.9220000000000006e+00 1.4208590124756663e+01 5.9641790846658260e+00 0 0 0
314 2 6.1524999999999990e+00 1.4919019630994494e+01 5.9641790846658260e+00 0 0 0
316 2 7.3830000000000009e+00 1.4208590124756663e+01 5.9641790846658260e+00 0 0 0
365 2 9.8440000000000012e+00 1.2787731112280996e+01 5.9641790846658260e+00 0 0 0
361 2 8.6135000000000002e+00 1.4919019630994494e+01 5.9641790846658260e+00 0 0 0