LAMMPS data file via write_data, version 29 Sep 2021, timestep = 100000

4065 atoms
2 atom types

0 49.22 xlo xhi
0 49.019635930410494 ylo yhi
1.9816262305641406 25.85920601572043 zlo zhi

Masses

1 18.015
2 12.01

Atoms # atomic

83 2 0 2.8417180249513345 3.419898655234613 0 0 0
85 2 0 0 3.419898655234613 0 0 0
87 2 1.2305000000000001 0.7104295062378347 3.419898655234613 0 0 0
94 2 1.2305000000000001 2.1312885187135 3.419898655234613 0 0 0
96 2 2.4610000000000003 2.8417180249513345 3.419898655234613 0 0 0
98 2 2.4610000000000003 0 3.419898655234613 0 0 0
100 2 3.6915000000000004 0.7104295062378347 3.419898655234613 0 0 0
115 2 3.6914999999999996 2.1312885187135 3.419898655234613 0 0 0
117 2 4.922000000000001 2.841718024951333 3.419898655234613 0 0 0
119 2 4.922000000000001 0 3.419898655234613 0 0 0
90 2 0 4.262577037427 3.419898655234613 0 0 0
111 2 2.4610000000000003 4.262577037427 3.419898655234613 0 0 0
140 2 4.922000000000001 4.262577037426998 3.419898655234613 0 0 0
92 2 1.2305000000000001 4.973006543664834 3.419898655234613 0 0 0
107 2 1.2305000000000001 6.393865556140498 3.419898655234613 0 0 0
113 2 3.6914999999999996 4.973006543664834 3.419898655234613 0 0 0
136 2 3.6914999999999996 6.393865556140498 3.419898655234613 0 0 0
88 2 0 7.104295062378334 3.419898655234613 0 0 0
103 2 0 8.525154074854 3.419898655234613 0 0 0
105 2 1.2305000000000001 9.235583581091834 3.419898655234613 0 0 0
109 2 2.4610000000000003 7.104295062378334 3.419898655234613 0 0 0
132 2 2.4610000000000003 8.525154074854 3.419898655234613 0 0 0
134 2 3.6915000000000004 9.235583581091834 3.419898655234613 0 0 0
138 2 4.922000000000001 7.104295062378334 3.419898655234613 0 0 0
169 2 4.922000000000001 8.525154074854 3.419898655234613 0 0 0
84 2 0 1.420859012475665 6.29644350457588 0 0 0
86 2 0 0 6.29644350457588 0 0 0
95 2 1.2305000000000001 2.1312885187135 6.29644350457588 0 0 0
97 2 2.4610000000000003 1.420859012475665 6.29644350457588 0 0 0
99 2 2.4610000000000003 0 6.29644350457588 0 0 0
412 2 0 2.8417180249513345 9.172988353916434 0 0 0
413 2 0 0 9.172988353916434 0 0 0
414 2 1.2305000000000001 0.7104295062378347 9.172988353916434 0 0 0
418 2 1.2305000000000001 2.1312885187135 9.172988353916434 0 0 0
419 2 2.4610000000000003 2.8417180249513345 9.172988353916434 0 0 0
420 2 2.4610000000000003 0 9.172988353916434 0 0 0
116 2 3.6914999999999996 2.1312885187135 6.29644350457588 0 0 0
118 2 4.922000000000001 1.420859012475665 6.29644350457588 0 0 0
120 2 4.922000000000001 0 6.29644350457588 0 0 0
421 2 3.6915000000000004 0.7104295062378347 9.172988353916434 0 0 0
429 2 3.6914999999999996 2.1312885187135 9.172988353916434 0 0 0
430 2 4.922000000000001 2.841718024951333 9.172988353916434 0 0 0
431 2 4.922000000000001 0 9.172988353916434 0 0 0
91 2 0 4.262577037427 6.29644350457588 0 0 0
93 2 1.2305000000000001 3.5521475311891644 6.29644350457588 0 0 0
112 2 2.4610000000000003 4.262577037427 6.29644350457588 0 0 0
416 2 0 4.262577037427 9.172988353916434 0 0 0
427 2 2.4610000000000003 4.262577037427 9.172988353916434 0 0 0
114 2 3.6914999999999996 3.5521475311891644 6.29644350457588 0 0 0
141 2 4.922000000000001 4.262577037426998 6.29644350457588 0 0 0
442 2 4.922000000000001 4.262577037426998 9.172988353916434 0 0 0
89 2 0 5.683436049902664 6.29644350457588 0 0 0
108 2 1.2305000000000001 6.393865556140498 6.29644350457588 0 0 0
110 2 2.4610000000000003 5.683436049902664 6.29644350457588 0 0 0
417 2 1.2305000000000001 4.973006543664834 9.172988353916434 0 0 0
425 2 1.2305000000000001 6.393865556140498 9.172988353916434 0 0 0
137 2 3.6914999999999996 6.393865556140498 6.29644350457588 0 0 0
139 2 4.922000000000001 5.683436049902664 6.29644350457588 0 0 0
428 2 3.6914999999999996 4.973006543664834 9.172988353916434 0 0 0
440 2 3.6914999999999996 6.393865556140498 9.172988353916434 0 0 0
104 2 0 8.525154074854 6.29644350457588 0 0 0
106 2 1.2305000000000001 7.814724568616164 6.29644350457588 0 0 0
133 2 2.4610000000000003 8.525154074854 6.29644350457588 0 0 0
415 2 0 7.104295062378334 9.172988353916434 0 0 0
423 2 0 8.525154074854 9.172988353916434 0 0 0
424 2 1.2305000000000001 9.235583581091834 9.172988353916434 0 0 0
426 2 2.4610000000000003 7.104295062378334 9.172988353916434 0 0 0
438 2 2.4610000000000003 8.525154074854 9.172988353916434 0 0 0
135 2 3.6914999999999996 7.814724568616164 6.29644350457588 0 0 0
170 2 4.922000000000001 8.525154074854 6.29644350457588 0 0 0
439 2 3.6915000000000004 9.235583581091834 9.172988353916434 0 0 0
441 2 4.922000000000001 7.104295062378334 9.172988353916434 0 0 0
457 2 4.922000000000001 8.525154074854 9.172988353916434 0 0 0
2821 1 1.6048106382981902 1.3069489158027907 12.291800566231384 2 1 -1
3054 1 4.381987885453942 1.1715106782851048 12.44010541434541 0 0 0
3948 1 4.777089977586188 4.319643469075907 11.776657331106762 1 0 0
1098 1 3.8737533118183687 7.356975066362964 11.966085469008494 0 0 1
1090 1 1.2289417112205228 7.328775864094936 11.629202376460709 0 0 0
1057 1 1.8600518018208956 4.125720343749425 11.67510391757363 1 1 -1
2944 1 5.605879169635644 9.455880170522795 11.984827417502618 0 0 1
948 1 5.5886405700385575 8.919632307527998 20.689557824910153 1 1 0
945 1 2.956977652570085 4.512872437230245 15.71660199120344 0 -1 -1
4057 1 0.43707232604706925 8.529898021708865 17.614737246146547 1 1 -1
1105 1 4.420997609182554 2.004027722982955 21.898395347100347 1 1 0
3890 1 4.637897925198177 6.331749828784694 14.611736287029215 1 1 0
2975 1 4.651566222969394 8.678931466405619 15.996739997123957 -1 -1 -1
789 1 1.8827675171165512 5.050251014468738 18.29885649849343 0 1 0
2971 1 4.3168240038346 1.457131434441306 24.601261610851296 0 0 -1
64 1 0.8803176768715288 5.259360685774927 14.180193733464831 0 0 1
1801 1 0.9031500608697707 7.484060263334936 22.216792282470436 1 1 0
4049 1 0.714043459813548 2.415855031372246 19.1457632485425 1 1 -1
2842 1 4.162819676334559 2.1971014909817947 15.229478159793969 1 1 0
2948 1 1.6866729387956527 0.579802685989596 15.029400568560737 1 1 0
973 1 4.316897688955669 4.158575203669843 19.936171411856684 0 0 -1
4037 1 2.9133014780055553 7.662957193792467 18.38278419537773 1 0 -1
1988 1 4.164525393469735 0.3155328630361937 17.400181658640555 0 0 -1
1065 1 3.6311488738973368 5.996359958216803 22.011887674188166 1 1 0
3900 1 2.11526891406781 6.761739310150645 24.868870289517147 1 0 0
4061 1 3.7204453017098413 4.512005847226459 24.671510332248737 0 -1 -1
62 1 5.8168694107738474 7.296608671067646 22.904022290526264 0 1 0
1977 1 1.2734923665780948 3.1510040158800696 24.187096210472667 1 0 0
2960 1 3.646478094923471 9.082591126867019 24.74631090457504 0 1 0
1974 1 0.621987900302892 0.6611220911226938 24.937970124700527 1 1 -1
61 1 0.19731876376098928 7.97349529334639 14.738220359260632 1 1 -1
101 2 0 11.366872099805333 3.419898655234613 0 0 0
124 2 0 12.787731112280996 3.419898655234613 0 0 0
126 2 1.2305000000000001 13.49816061851883 3.419898655234613 0 0 0
128 2 1.2305000000000001 10.656442593567498 3.419898655234613 0 0 0
130 2 2.4610000000000003 11.366872099805333 3.419898655234613 0 0 0
161 2 2.4610000000000003 12.787731112280996 3.419898655234613 0 0 0
163 2 3.6915000000000004 13.49816061851883 3.419898655234613 0 0 0
165 2 3.6914999999999996 10.6564425935675 3.419898655234613 0 0 0
167 2 4.922000000000001 11.366872099805333 3.419898655234613 0 0 0
206 2 4.922000000000001 12.787731112280996 3.419898655234613 0 0 0
208 2 6.152499999999999 13.49816061851883 3.419898655234613 0 0 0
122 2 0 15.629449137232333 3.419898655234613 0 0 0
153 2 0 17.050308149708 3.419898655234613 0 0 0
157 2 1.2305000000000001 14.919019630994494 3.419898655234613 0 0 0
159 2 2.4610000000000003 15.629449137232328 3.419898655234613 0 0 0
198 2 2.4610000000000003 17.050308149708 3.419898655234613 0 0 0
202 2 3.6915000000000004 14.919019630994494 3.419898655234613 0 0 0
204 2 4.922000000000001 15.629449137232333 3.419898655234613 0 0 0
245 2 4.922000000000001 17.050308149708 3.419898655234613 0 0 0
249 2 6.152499999999999 14.919019630994494 3.419898655234613 0 0 0
155 2 1.2305000000000001 17.76073765594583 3.419898655234613 0 0 0
194 2 1.2305000000000001 19.181596668421495 3.419898655234613 0 0 0
200 2 3.6914999999999996 17.76073765594583 3.419898655234613 0 0 0
241 2 3.6914999999999996 19.181596668421495 3.419898655234613 0 0 0
102 2 0 9.946013087329664 6.29644350457588 0 0 0
131 2 2.4610000000000003 9.946013087329664 6.29644350457588 0 0 0
168 2 4.922000000000001 9.946013087329664 6.29644350457588 0 0 0
125 2 0 12.787731112280996 6.29644350457588 0 0 0
127 2 1.2305000000000001 12.077301606043163 6.29644350457588 0 0 0
129 2 1.2305000000000001 10.656442593567498 6.29644350457588 0 0 0
162 2 2.4610000000000003 12.787731112280996 6.29644350457588 0 0 0
422 2 0 11.366872099805333 9.172988353916434 0 0 0
434 2 0 12.787731112280996 9.172988353916434 0 0 0
435 2 1.2305000000000001 13.49816061851883 9.172988353916434 0 0 0
436 2 1.2305000000000001 10.656442593567498 9.172988353916434 0 0 0
437 2 2.4610000000000003 11.366872099805333 9.172988353916434 0 0 0
453 2 2.4610000000000003 12.787731112280996 9.172988353916434 0 0 0
164 2 3.6914999999999996 12.077301606043163 6.29644350457588 0 0 0
166 2 3.6914999999999996 10.6564425935675 6.29644350457588 0 0 0
207 2 4.922000000000001 12.787731112280996 6.29644350457588 0 0 0
454 2 3.6915000000000004 13.49816061851883 9.172988353916434 0 0 0
455 2 3.6914999999999996 10.6564425935675 9.172988353916434 0 0 0
456 2 4.922000000000001 11.366872099805333 9.172988353916434 0 0 0
476 2 4.922000000000001 12.787731112280996 9.172988353916434 0 0 0
477 2 6.152499999999999 13.49816061851883 9.172988353916434 0 0 0
123 2 0 14.208590124756663 6.29644350457588 0 0 0
160 2 2.4610000000000003 14.208590124756663 6.29644350457588 0 0 0
205 2 4.922000000000001 14.208590124756663 6.29644350457588 0 0 0
154 2 0 17.050308149708 6.29644350457588 0 0 0
156 2 1.2305000000000001 16.339878643470165 6.29644350457588 0 0 0
158 2 1.2305000000000001 14.919019630994494 6.29644350457588 0 0 0
199 2 2.4610000000000003 17.050308149708 6.29644350457588 0 0 0
433 2 0 15.629449137232333 9.172988353916434 0 0 0
449 2 0 17.050308149708 9.172988353916434 0 0 0
451 2 1.2305000000000001 14.919019630994494 9.172988353916434 0 0 0
452 2 2.4610000000000003 15.629449137232328 9.172988353916434 0 0 0
472 2 2.4610000000000003 17.050308149708 9.172988353916434 0 0 0
201 2 3.6915000000000004 16.339878643470165 6.29644350457588 0 0 0
203 2 3.6915000000000004 14.919019630994494 6.29644350457588 0 0 0
246 2 4.922000000000001 17.050308149708 6.29644350457588 0 0 0
250 2 6.152499999999999 14.919019630994494 6.29644350457588 0 0 0
474 2 3.6915000000000004 14.919019630994494 9.172988353916434 0 0 0
475 2 4.922000000000001 15.629449137232333 9.172988353916434 0 0 0
496 2 4.922000000000001 17.050308149708 9.172988353916434 0 0 0
498 2 6.152499999999999 14.919019630994494 9.172988353916434 0 0 0
152 2 0 18.471167162183658 6.29644350457588 0 0 0
195 2 1.2305000000000001 19.181596668421495 6.29644350457588 0 0 0
197 2 2.4610000000000003 18.471167162183658 6.29644350457588 0 0 0
450 2 1.2305000000000001 17.76073765594583 9.172988353916434 0 0 0
470 2 1.2305000000000001 19.181596668421495 9.172988353916434 0 0 0
242 2 3.6914999999999996 19.181596668421495 6.29644350457588 0 0 0
244 2 4.922000000000001 18.471167162183658 6.29644350457588 0 0 0
473 2 3.6914999999999996 17.76073765594583 9.172988353916434 0 0 0
494 2 3.6914999999999996 19.181596668421495 9.172988353916434 0 0 0
880 1 1.6719895850901043 10.233471218976211 12.118111066482957 0 0 0
1101 1 3.802615071526715 17.091462160380754 11.606986534988694 0 1 -1
3901 1 3.9407912850130127 11.966055568238584 11.9925230793901 1 0 1
1077 1 2.596985481297853 14.834022795619239 11.637672056040673 1 1 1
939 1 2.4068948071837837 19.357976842142225 11.941538123745799 1 0 0
3882 1 0.38363900169971354 9.915440127257494 21.373687379324146 1 0 1
1836 1 5.6572149431348535 13.310352036747972 17.066295535143077 0 0 0
3017 1 2.294229170299538 14.550139159568266 14.334600242767506 1 0 -1
1066 1 2.1224105626252148 11.341823284313197 17.81260100311554 1 -1 0
2891 1 2.1942076125630523 10.158619504396073 15.1045732882895 1 0 0
1068 1 1.0257722747303026 10.197426813878824 24.29327213048557 1 2 0
3931 1 2.2113621250104 16.63969207011474 16.116993199258772 -1 0 0
2022 1 0.28685718111616076 13.512546009360461 24.853629256214077 1 2 0
1049 1 3.269194971986342 12.406134522945202 24.875685622772494 1 0 0
2894 1 1.9490596834756058 17.904267950999934 24.648006683619926 1 1 -1
1817 1 2.3799321199988444 19.118895202840218 14.829323677690903 1 0 0
1031 1 3.5419828229422605 12.04265129900765 21.797536818756612 0 -1 0
1887 1 3.1088474418741012 15.323977650090557 24.714362944731583 1 1 -1
4008 1 4.687748361802067 16.09975793370742 16.672882371632767 -1 1 0
4036 1 1.4695381996746735 17.93183058869917 21.83865986647261 1 0 0
2930 1 1.5016078389969452 19.218051340162898 19.121211921527433 0 0 0
3867 1 2.835330824020526 14.069736433014953 18.046783024394443 1 -1 -1
20 1 3.1172720184430633 14.640491215802951 20.790668144275358 1 1 0
1930 1 5.9368112116890375 18.993091949350358 24.976902321973995 1 1 -1
3824 1 4.899291722733398 16.298590826551113 21.931982970019412 0 0 -1
3955 1 3.9970673897850952 12.600900807806807 14.962887570902735 0 0 -1
1879 1 5.647652097966235 16.162027811945087 24.576714091621874 1 0 0
1952 1 2.8757795222949794 10.04260580653208 20.056227386179238 0 1 -1
3060 1 0.9581119569934913 15.267349474579696 22.322324311673825 1 1 -1
2023 1 5.465469390229213 18.351344240667085 18.131811938052806 0 -1 1
1954 1 5.179925030806027 18.690392552268328 20.84390311083623 1 1 0
1052 1 6.043149174947039 11.254615403447115 21.833639326378673 -1 1 1
3845 1 0.18085727216012978 15.136930210696637 18.22410600545956 1 0 0
151 2 0 19.89202617465933 3.419898655234613 0 0 0
196 2 2.4610000000000003 19.89202617465933 3.419898655234613 0 0 0
243 2 4.922000000000001 19.89202617465933 3.419898655234613 0 0 0
188 2 0 24.154603212086325 3.419898655234613 0 0 0
190 2 0 21.312885187135 3.419898655234613 0 0 0
192 2 1.2304999999999993 22.023314693372832 3.419898655234613 0 0 0
233 2 1.2304999999999993 23.4441737058485 3.419898655234613 0 0 0
235 2 2.4610000000000003 24.154603212086325 3.419898655234613 0 0 0
237 2 2.4610000000000003 21.312885187134995 3.419898655234613 0 0 0
239 2 3.6914999999999996 22.023314693372832 3.419898655234613 0 0 0
280 2 3.6915000000000004 23.4441737058485 3.419898655234613 0 0 0
282 2 4.922000000000001 24.154603212086325 3.419898655234613 0 0 0
284 2 4.922000000000001 21.312885187134995 3.419898655234613 0 0 0
286 2 6.152499999999999 22.023314693372832 3.419898655234613 0 0 0
1130 2 0 25.575462224561992 3.419898655234613 0 0 0
1132 2 1.2305000000000001 26.285891730799833 3.419898655234613 0 0 0
1140 2 1.230500000000001 27.706750743275496 3.419898655234613 0 0 0
1144 2 2.4610000000000003 25.575462224561992 3.419898655234613 0 0 0
1146 2 3.691499999999999 26.285891730799833 3.419898655234613 0 0 0
1162 2 3.6914999999999996 27.706750743275496 3.419898655234613 0 0 0
1166 2 4.922000000000001 25.575462224561992 3.419898655234613 0 0 0
1192 2 6.152499999999999 27.706750743275496 3.419898655234613 0 0 0
1128 2 0 28.417180249513333 3.419898655234613 0 0 0
1142 2 2.4610000000000003 28.417180249513326 3.419898655234613 0 0 0
1164 2 4.922000000000001 28.417180249513336 3.419898655234613 0 0 0
193 2 1.2305000000000001 20.60245568089716 6.29644350457588 0 0 0
448 2 0 19.89202617465933 9.172988353916434 0 0 0
471 2 2.4610000000000003 19.89202617465933 9.172988353916434 0 0 0
240 2 3.6915000000000004 20.60245568089716 6.29644350457588 0 0 0
495 2 4.922000000000001 19.89202617465933 9.172988353916434 0 0 0
189 2 0 22.733744199610655 6.29644350457588 0 0 0
191 2 0 21.312885187135 6.29644350457588 0 0 0
234 2 1.2304999999999993 23.4441737058485 6.29644350457588 0 0 0
236 2 2.4610000000000003 22.733744199610655 6.29644350457588 0 0 0
238 2 2.4610000000000003 21.312885187134995 6.29644350457588 0 0 0
467 2 0 24.154603212086325 9.172988353916434 0 0 0
468 2 0 21.312885187135 9.172988353916434 0 0 0
469 2 1.2304999999999993 22.023314693372832 9.172988353916434 0 0 0
490 2 1.2304999999999993 23.4441737058485 9.172988353916434 0 0 0
491 2 2.4610000000000003 24.154603212086325 9.172988353916434 0 0 0
492 2 2.4610000000000003 21.312885187134995 9.172988353916434 0 0 0
281 2 3.6915000000000004 23.4441737058485 6.29644350457588 0 0 0
283 2 4.922000000000001 22.733744199610655 6.29644350457588 0 0 0
285 2 4.922000000000001 21.312885187134995 6.29644350457588 0 0 0
493 2 3.6914999999999996 22.023314693372832 9.172988353916434 0 0 0
514 2 3.6915000000000004 23.4441737058485 9.172988353916434 0 0 0
515 2 4.922000000000001 24.154603212086325 9.172988353916434 0 0 0
516 2 4.922000000000001 21.312885187134995 9.172988353916434 0 0 0
517 2 6.152499999999999 22.023314693372832 9.172988353916434 0 0 0
1129 2 0 26.99632123703766 6.29644350457588 0 0 0
1131 2 0 25.575462224561992 6.29644350457588 0 0 0
1133 2 1.2305000000000001 24.865032718324155 6.29644350457588 0 0 0
1141 2 1.230500000000001 27.706750743275496 6.29644350457588 0 0 0
1143 2 2.4610000000000003 26.99632123703766 6.29644350457588 0 0 0
1145 2 2.4610000000000003 25.575462224561992 6.29644350457588 0 0 0
1444 2 0 25.575462224561992 9.172988353916434 0 0 0
1445 2 1.2305000000000001 26.285891730799833 9.172988353916434 0 0 0
1449 2 1.230500000000001 27.706750743275496 9.172988353916434 0 0 0
1451 2 2.4610000000000003 25.575462224561992 9.172988353916434 0 0 0
1147 2 3.6914999999999996 24.865032718324166 6.29644350457588 0 0 0
1163 2 3.6914999999999996 27.706750743275496 6.29644350457588 0 0 0
1165 2 4.922000000000001 26.99632123703766 6.29644350457588 0 0 0
1167 2 4.922000000000001 25.575462224561992 6.29644350457588 0 0 0
1169 2 6.152499999999999 24.865032718324155 6.29644350457588 0 0 0
1193 2 6.152499999999999 27.706750743275496 6.29644350457588 0 0 0
1452 2 3.691499999999999 26.285891730799833 9.172988353916434 0 0 0
1460 2 3.6914999999999996 27.706750743275496 9.172988353916434 0 0 0
1462 2 4.922000000000001 25.575462224561992 9.172988353916434 0 0 0
1475 2 6.152499999999999 27.706750743275496 9.172988353916434 0 0 0
1139 2 1.2304999999999993 29.127609755751163 6.29644350457588 0 0 0
1443 2 0 28.417180249513333 9.172988353916434 0 0 0
1450 2 2.4610000000000003 28.417180249513326 9.172988353916434 0 0 0
1161 2 3.691499999999999 29.127609755751152 6.29644350457588 0 0 0
1191 2 6.152499999999998 29.127609755751152 6.29644350457588 0 0 0
1461 2 4.922000000000001 28.417180249513336 9.172988353916434 0 0 0
3053 1 5.178051440732174 24.596312677383217 11.721708636775803 2 1 -1
3942 1 4.277058323220389 21.727614625489547 11.747453363596644 -1 0 0
3839 1 2.3153273963883207 24.373397445163217 11.940188486250436 0 1 0
2836 1 4.520677519189405 27.67246797546567 12.185743706686443 0 0 -1
15 1 1.7178660978665548 28.475313844877256 12.54519373075469 2 0 1
1872 1 0.8686689245270744 22.017301666714154 12.139090453689667 0 1 -1
71 1 4.503142431062463 22.316877839247564 14.757659813469168 0 1 0
1852 1 3.6537880300799515 20.21596325491595 17.098046948752867 1 0 0
1911 1 3.6008387538017392 27.881459916804538 24.26596118392073 0 0 0
3976 1 2.33158735398943 24.253095514199725 14.718430508365332 -1 0 0
2063 1 3.657559105981849 25.91524093919202 19.35842118531839 0 0 1
2940 1 0.4558379034655868 26.900196456486174 24.523817825016394 1 -1 -1
3805 1 5.765233574268011 24.60020114960951 14.860163294408284 0 2 -2
4059 1 4.849826155250358 23.83433271034044 18.02608424038162 0 0 0
3827 1 1.488233244871286 25.776014070221255 17.52292666623309 0 -1 0
2997 1 3.0407457056661253 28.33199181676441 16.741513606538007 1 1 0
2122 1 4.837475242293149 22.63772602036341 20.639087965251385 1 1 0
3979 1 2.220095726069265 23.911794346145395 20.85806742998485 1 -1 1
3023 1 1.6500980881773797 28.61341345977904 19.636000666340145 -1 -1 0
870 1 0.9224370480095327 21.807996546227585 15.022001991158515 0 0 0
1061 1 3.586243244462114 20.540616638689958 21.78419882930919 1 1 1
2961 1 4.9864066260491855 27.52098037078626 14.8528016427215 1 1 -1
2864 1 1.8411001071216346 26.756029883002025 22.209546779400853 1 0 0
2879 1 4.691993496877098 28.078221028813378 21.234538602034277 0 1 -1
3087 1 0.649634043079225 20.88151927456024 24.469200154874258 0 0 0
993 1 3.8794301303221848 23.583171600398664 24.493235635946156 1 0 0
1081 1 1.3139910048247394 23.66249368164733 23.584289336323693 2 1 0
4018 1 1.8971855607077937 22.170174557981145 18.322919605401232 1 0 -1
2893 1 0.39183389773123317 21.059880031279242 21.42144434977908 1 -1 0
3143 1 3.7567974205180272 20.80783545968548 24.70182971341555 1 1 1
1136 2 0 29.83803926198899 3.419898655234613 0 0 0
1138 2 1.2304999999999993 30.54846876822683 3.419898655234613 0 0 0
1158 2 2.4610000000000003 29.83803926198899 3.419898655234613 0 0 0
1160 2 3.6915000000000004 30.54846876822683 3.419898655234613 0 0 0
1188 2 4.922000000000001 29.83803926198899 3.419898655234613 0 0 0
1134 2 0 32.67975728694033 3.419898655234613 0 0 0
1150 2 0 34.100616299416 3.419898655234613 0 0 0
1154 2 1.2304999999999993 31.969327780702493 3.419898655234613 0 0 0
1156 2 2.4610000000000003 32.67975728694034 3.419898655234613 0 0 0
1180 2 2.4609999999999985 34.100616299416 3.419898655234613 0 0 0
1184 2 3.6914999999999996 31.969327780702493 3.419898655234613 0 0 0
1186 2 4.9220000000000015 32.67975728694034 3.419898655234613 0 0 0
1218 2 4.922000000000001 34.100616299416 3.419898655234613 0 0 0
1152 2 1.230500000000001 34.81104580565383 3.419898655234613 0 0 0
1182 2 3.691500000000002 34.81104580565383 3.419898655234613 0 0 0
1148 2 0 36.94233432436734 3.419898655234613 0 0 0
1172 2 0 38.36319333684299 3.419898655234613 0 0 0
1176 2 1.2304999999999993 36.231904818129486 3.419898655234613 0 0 0
1178 2 2.461000000000002 36.94233432436734 3.419898655234613 0 0 0
1210 2 2.4610000000000003 38.36319333684299 3.419898655234613 0 0 0
1214 2 3.6914999999999996 36.231904818129486 3.419898655234613 0 0 0
1216 2 4.922000000000001 36.942334324367316 3.419898655234613 0 0 0
1255 2 4.922000000000001 38.36319333684299 3.419898655234613 0 0 0
1174 2 1.230500000000001 39.07362284308084 3.419898655234613 0 0 0
1212 2 3.691500000000002 39.07362284308082 3.419898655234613 0 0 0
1135 2 0 31.258898274464656 6.29644350457588 0 0 0
1137 2 0 29.83803926198899 6.29644350457588 0 0 0
1157 2 2.4609999999999985 31.258898274464656 6.29644350457588 0 0 0
1159 2 2.4610000000000003 29.83803926198899 6.29644350457588 0 0 0
1447 2 0 29.83803926198899 9.172988353916434 0 0 0
1448 2 1.2304999999999993 30.54846876822683 9.172988353916434 0 0 0
1458 2 2.4610000000000003 29.83803926198899 9.172988353916434 0 0 0
1187 2 4.921999999999998 31.258898274464656 6.29644350457588 0 0 0
1189 2 4.922000000000001 29.83803926198899 6.29644350457588 0 0 0
1459 2 3.6915000000000004 30.54846876822683 9.172988353916434 0 0 0
1473 2 4.922000000000001 29.83803926198899 9.172988353916434 0 0 0
1151 2 0 34.100616299416 6.29644350457588 0 0 0
1153 2 1.2304999999999993 33.39018679317816 6.29644350457588 0 0 0
1155 2 1.2304999999999993 31.969327780702493 6.29644350457588 0 0 0
1181 2 2.4609999999999985 34.100616299416 6.29644350457588 0 0 0
1446 2 0 32.67975728694033 9.172988353916434 0 0 0
1454 2 0 34.100616299416 9.172988353916434 0 0 0
1456 2 1.2304999999999993 31.969327780702493 9.172988353916434 0 0 0
1457 2 2.4610000000000003 32.67975728694034 9.172988353916434 0 0 0
1469 2 2.4609999999999985 34.100616299416 9.172988353916434 0 0 0
1183 2 3.691499999999998 33.39018679317816 6.29644350457588 0 0 0
1185 2 3.6914999999999996 31.969327780702493 6.29644350457588 0 0 0
1219 2 4.922000000000001 34.100616299416 6.29644350457588 0 0 0
1221 2 6.152499999999999 33.39018679317816 6.29644350457588 0 0 0
1471 2 3.6914999999999996 31.969327780702493 9.172988353916434 0 0 0
1472 2 4.9220000000000015 32.67975728694034 9.172988353916434 0 0 0
1488 2 4.922000000000001 34.100616299416 9.172988353916434 0 0 0
1455 2 1.230500000000001 34.81104580565383 9.172988353916434 0 0 0
1470 2 3.691500000000002 34.81104580565383 9.172988353916434 0 0 0
1149 2 0 35.52147531189165 6.29644350457588 0 0 0
1173 2 0 38.36319333684299 6.29644350457588 0 0 0
1175 2 1.2304999999999993 37.65276383060515 6.29644350457588 0 0 0
1177 2 1.2304999999999993 36.231904818129486 6.29644350457588 0 0 0
1179 2 2.4609999999999985 35.52147531189166 6.29644350457588 0 0 0
1211 2 2.4610000000000003 38.36319333684299 6.29644350457588 0 0 0
1453 2 0 36.94233432436734 9.172988353916434 0 0 0
1465 2 0 38.36319333684299 9.172988353916434 0 0 0
1467 2 1.2304999999999993 36.231904818129486 9.172988353916434 0 0 0
1468 2 2.461000000000002 36.94233432436734 9.172988353916434 0 0 0
1484 2 2.4610000000000003 38.36319333684299 9.172988353916434 0 0 0
1213 2 3.6914999999999996 37.65276383060515 6.29644350457588 0 0 0
1215 2 3.6914999999999996 36.231904818129486 6.29644350457588 0 0 0
1217 2 4.922000000000001 35.52147531189166 6.29644350457588 0 0 0
1256 2 4.922000000000001 38.36319333684299 6.29644350457588 0 0 0
1258 2 6.152499999999998 37.65276383060515 6.29644350457588 0 0 0
1486 2 3.6914999999999996 36.231904818129486 9.172988353916434 0 0 0
1487 2 4.922000000000001 36.942334324367316 9.172988353916434 0 0 0
1506 2 4.922000000000001 38.36319333684299 9.172988353916434 0 0 0
1466 2 1.230500000000001 39.07362284308084 9.172988353916434 0 0 0
1485 2 3.691500000000002 39.07362284308082 9.172988353916434 0 0 0
977 1 0.7805733630237032 31.117708581084766 11.796244411483224 0 -1 -1
952 1 4.828191102083136 35.01082829490417 11.550938924999587 1 1 -1
919 1 3.737557070305491 32.36328022881739 11.964129340966627 1 0 0
3897 1 2.5048827995059457 36.55717844913015 12.03095200193207 -1 0 0
905 1 5.344601665371796 30.25956930463648 11.844300930334079 0 0 0
1059 1 0.420386004302522 36.15647730101198 13.723048286859088 0 1 0
1928 1 4.388957823968429 32.0609228215411 24.749492938374033 0 -1 0
2096 1 4.929570009291452 29.474697795011696 18.723849522986953 -1 0 -1
920 1 4.642927209473078 35.3540987252717 14.817939730722532 1 1 0
1117 1 0.4713011210725464 38.074341673850114 24.610485105949756 1 -1 0
2908 1 0.5551908454557051 33.18959900872382 18.39689348274181 0 -1 0
1126 1 5.756473256716651 38.70290086976787 24.445220410342976 2 0 0
931 1 3.1464111224035003 37.651161948368944 22.189087284047424 1 0 -1
1787 1 1.0983073698201633 38.03525722599079 18.94771840529947 0 0 -1
2988 1 2.3682334988473404 37.07777841636144 15.55183081340746 0 -2 0
1793 1 2.0481980055276034 35.688556672020745 18.04466170857456 0 0 1
7 1 2.323279481333707 31.462490873195105 19.712690432997434 1 0 0
781 1 0.2637306737192011 37.874220297842264 21.656188869163543 0 0 0
1873 1 0.6480020159913349 33.35772775230204 24.678086689746436 1 0 -1
960 1 4.699092279446753 35.64675117630536 18.299188157744574 0 0 -1
2967 1 5.63600188207638 32.425684253588294 18.672922858290818 1 -1 -1
1040 1 3.3415771309533095 32.91215421006769 14.479785714224308 0 0 -1
2939 1 0.853158274869458 33.568216270807106 21.7623574643103 0 -1 -1
937 1 3.3086697334047046 37.40178035855585 24.989811903445997 0 0 0
16 1 0.7338005055121054 32.37532063689494 15.782132163400489 0 0 1
1937 1 5.120348738130577 30.54903328720477 22.554604698045374 1 1 0
926 1 0.8856807745763832 30.669504812358685 22.227671070274774 0 -1 -1
3883 1 3.29694109068932 35.16488105947065 21.246124089222505 1 1 1
3937 1 3.071374560488155 34.58735295198657 24.181883711915518 0 0 -1
3967 1 4.740263704552742 31.117632067375904 15.971918824213494 -1 0 -1
1028 1 2.1746425890684455 30.295942973752513 24.715019201756597 0 1 0
2859 1 5.558873381157629 33.62644404043738 21.57462969298591 2 0 -1
2928 1 1.1521114276932798 29.534380062985583 15.03776332120931 1 -1 0
984 1 5.735063866863955 39.20180080165596 21.651970069484868 1 -1 -1
1170 2 0 41.20491136179432 3.419898655234613 0 0 0
1206 2 1.230500000000001 40.494481855556494 3.419898655234613 0 0 0
1208 2 2.4610000000000003 41.20491136179432 3.419898655234613 0 0 0
1251 2 3.6914999999999996 40.494481855556494 3.419898655234613 0 0 0
1253 2 4.922000000000003 41.20491136179432 3.419898655234613 0 0 0
1296 2 6.152499999999998 40.494481855556494 3.419898655234613 0 0 0
1202 2 0 42.62577037427 3.419898655234613 0 0 0
1204 2 1.2304999999999993 43.33619988050783 3.419898655234613 0 0 0
1247 2 2.4610000000000003 42.62577037427 3.419898655234613 0 0 0
1249 2 3.691500000000002 43.33619988050783 3.419898655234613 0 0 0
1292 2 4.922000000000001 42.62577037426999 3.419898655234613 0 0 0
1200 2 0 45.46748839922133 3.419898655234613 0 0 0
1243 2 1.2304999999999993 44.757058892983494 3.419898655234613 0 0 0
1245 2 2.4610000000000003 45.46748839922133 3.419898655234613 0 0 0
1288 2 3.6914999999999996 44.757058892983494 3.419898655234613 0 0 0
1290 2 4.922000000000001 45.46748839922133 3.419898655234613 0 0 0
1239 2 0 46.888347411697 3.419898655234613 0 0 0
1241 2 1.230500000000001 47.59877691793481 3.419898655234613 0 0 0
1284 2 2.4609999999999985 46.888347411697 3.419898655234613 0 0 0
1286 2 3.6914999999999996 47.598776917934835 3.419898655234613 0 0 0
1329 2 4.922000000000001 46.888347411697 3.419898655234613 0 0 0
1171 2 0 39.78405234931866 6.29644350457588 0 0 0
1205 2 1.230500000000001 41.91534086803216 6.29644350457588 0 0 0
1207 2 1.230500000000001 40.494481855556494 6.29644350457588 0 0 0
1209 2 2.4610000000000003 39.78405234931866 6.29644350457588 0 0 0
1464 2 0 41.20491136179432 9.172988353916434 0 0 0
1482 2 1.230500000000001 40.494481855556494 9.172988353916434 0 0 0
1483 2 2.4610000000000003 41.20491136179432 9.172988353916434 0 0 0
1250 2 3.6914999999999996 41.91534086803216 6.29644350457588 0 0 0
1252 2 3.6914999999999996 40.494481855556494 6.29644350457588 0 0 0
1254 2 4.922000000000001 39.78405234931866 6.29644350457588 0 0 0
1295 2 6.152499999999998 41.91534086803216 6.29644350457588 0 0 0
1297 2 6.152499999999998 40.494481855556494 6.29644350457588 0 0 0
1504 2 3.6914999999999996 40.494481855556494 9.172988353916434 0 0 0