LAMMPS data file via write_data, version 29 Sep 2021, timestep = 8000000

4065 atoms
2 atom types

0 49.22 xlo xhi
0 49.019635930410494 ylo yhi
1.1122151133346971 26.728617132948102 zlo zhi

Masses

1 18.015
2 12.01

Atoms # atomic

83 2 0 2.8417180249513345 2.6552259618216807 0 0 0
85 2 0 0 2.6552259618216807 0 0 0
87 2 1.2305000000000001 0.7104295062378347 2.6552259618216807 0 0 0
94 2 1.2305000000000001 2.1312885187135 2.6552259618216807 0 0 0
96 2 2.4610000000000003 2.8417180249513345 2.6552259618216807 0 0 0
98 2 2.4610000000000003 0 2.6552259618216807 0 0 0
100 2 3.6915000000000004 0.7104295062378347 2.6552259618216807 0 0 0
115 2 3.6914999999999996 2.1312885187135 2.6552259618216807 0 0 0
117 2 4.922000000000001 2.841718024951333 2.6552259618216807 0 0 0
119 2 4.922000000000001 0 2.6552259618216807 0 0 0
90 2 0 4.262577037427 2.6552259618216807 0 0 0
111 2 2.4610000000000003 4.262577037427 2.6552259618216807 0 0 0
140 2 4.922000000000001 4.262577037426998 2.6552259618216807 0 0 0
92 2 1.2305000000000001 4.973006543664834 2.6552259618216807 0 0 0
107 2 1.2305000000000001 6.393865556140498 2.6552259618216807 0 0 0
113 2 3.6914999999999996 4.973006543664834 2.6552259618216807 0 0 0
136 2 3.6914999999999996 6.393865556140498 2.6552259618216807 0 0 0
88 2 0 7.104295062378334 2.6552259618216807 0 0 0
103 2 0 8.525154074854 2.6552259618216807 0 0 0
105 2 1.2305000000000001 9.235583581091834 2.6552259618216807 0 0 0
109 2 2.4610000000000003 7.104295062378334 2.6552259618216807 0 0 0
132 2 2.4610000000000003 8.525154074854 2.6552259618216807 0 0 0
134 2 3.6915000000000004 9.235583581091834 2.6552259618216807 0 0 0
138 2 4.922000000000001 7.104295062378334 2.6552259618216807 0 0 0
169 2 4.922000000000001 8.525154074854 2.6552259618216807 0 0 0
84 2 0 1.420859012475665 5.741247658791979 0 0 0
86 2 0 0 5.741247658791979 0 0 0
95 2 1.2305000000000001 2.1312885187135 5.741247658791979 0 0 0
97 2 2.4610000000000003 1.420859012475665 5.741247658791979 0 0 0
99 2 2.4610000000000003 0 5.741247658791979 0 0 0
412 2 0 2.8417180249513345 8.827269355761743 0 0 0
413 2 0 0 8.827269355761743 0 0 0
414 2 1.2305000000000001 0.7104295062378347 8.827269355761743 0 0 0
418 2 1.2305000000000001 2.1312885187135 8.827269355761743 0 0 0
419 2 2.4610000000000003 2.8417180249513345 8.827269355761743 0 0 0
420 2 2.4610000000000003 0 8.827269355761743 0 0 0
116 2 3.6914999999999996 2.1312885187135 5.741247658791979 0 0 0
118 2 4.922000000000001 1.420859012475665 5.741247658791979 0 0 0
120 2 4.922000000000001 0 5.741247658791979 0 0 0
421 2 3.6915000000000004 0.7104295062378347 8.827269355761743 0 0 0
429 2 3.6914999999999996 2.1312885187135 8.827269355761743 0 0 0
430 2 4.922000000000001 2.841718024951333 8.827269355761743 0 0 0
431 2 4.922000000000001 0 8.827269355761743 0 0 0
91 2 0 4.262577037427 5.741247658791979 0 0 0
93 2 1.2305000000000001 3.5521475311891644 5.741247658791979 0 0 0
112 2 2.4610000000000003 4.262577037427 5.741247658791979 0 0 0
416 2 0 4.262577037427 8.827269355761743 0 0 0
427 2 2.4610000000000003 4.262577037427 8.827269355761743 0 0 0
114 2 3.6914999999999996 3.5521475311891644 5.741247658791979 0 0 0
141 2 4.922000000000001 4.262577037426998 5.741247658791979 0 0 0
442 2 4.922000000000001 4.262577037426998 8.827269355761743 0 0 0
89 2 0 5.683436049902664 5.741247658791979 0 0 0
108 2 1.2305000000000001 6.393865556140498 5.741247658791979 0 0 0
110 2 2.4610000000000003 5.683436049902664 5.741247658791979 0 0 0
417 2 1.2305000000000001 4.973006543664834 8.827269355761743 0 0 0
425 2 1.2305000000000001 6.393865556140498 8.827269355761743 0 0 0
137 2 3.6914999999999996 6.393865556140498 5.741247658791979 0 0 0
139 2 4.922000000000001 5.683436049902664 5.741247658791979 0 0 0
428 2 3.6914999999999996 4.973006543664834 8.827269355761743 0 0 0
440 2 3.6914999999999996 6.393865556140498 8.827269355761743 0 0 0
104 2 0 8.525154074854 5.741247658791979 0 0 0
106 2 1.2305000000000001 7.814724568616164 5.741247658791979 0 0 0
133 2 2.4610000000000003 8.525154074854 5.741247658791979 0 0 0
415 2 0 7.104295062378334 8.827269355761743 0 0 0
423 2 0 8.525154074854 8.827269355761743 0 0 0
424 2 1.2305000000000001 9.235583581091834 8.827269355761743 0 0 0
426 2 2.4610000000000003 7.104295062378334 8.827269355761743 0 0 0
438 2 2.4610000000000003 8.525154074854 8.827269355761743 0 0 0
135 2 3.6914999999999996 7.814724568616164 5.741247658791979 0 0 0
170 2 4.922000000000001 8.525154074854 5.741247658791979 0 0 0
439 2 3.6915000000000004 9.235583581091834 8.827269355761743 0 0 0
441 2 4.922000000000001 7.104295062378334 8.827269355761743 0 0 0
457 2 4.922000000000001 8.525154074854 8.827269355761743 0 0 0
3810 1 2.7802192962422 2.9164351748488184 11.818734129682992 -1 -1 0
1948 1 2.7935614841328937 0.3712511436210311 11.227434137418523 -2 -2 -1
4053 1 4.623530254154717 7.4644048831369565 11.873924480916983 -1 0 0
72 1 2.018910918226509 8.610743839744917 11.556818197738359 1 -3 -1
3870 1 4.784474794976451 4.780323412130449 11.12023772964329 -4 2 1
3828 1 0.3849569509096487 4.288083580218309 11.44743584979401 2 2 0
3843 1 2.552533421620339 3.155175041616549 14.674821251990387 0 1 0
849 1 2.6479871152481524 0.4994378318968513 15.211168802384254 0 -1 -1
1975 1 2.7889469242229628 0.6594579056146318 17.85404562238694 2 -2 0
3972 1 0.5205152217985014 1.6960793014335416 25.26125501191037 -1 -1 0
1067 1 4.494267273884155 7.94985059005333 25.796379365025537 0 2 0
3026 1 4.742883971745668 4.583880048676428 18.132942580529075 1 4 0
3920 1 4.706382303403422 4.769875096332644 15.37444637444623 -2 -1 0
1820 1 4.530157448948949 7.45069172936328 14.566074317592703 -1 0 -1
1028 1 2.3541164863760176 8.723809737693061 15.41510711213726 -1 2 0
943 1 2.4017338774024437 3.7936969397632314 26.02465258783336 3 -1 0
1033 1 2.208750105438702 3.3147863534498128 18.79626238838896 1 -4 0
1823 1 2.4961036156244765 3.6224611097856223 21.679125779209564 -1 0 0
2938 1 0.6130949251405081 1.8353704064488863 22.309087301114317 0 1 0
1906 1 4.923343408947565 2.1689180122795975 22.301143633002603 2 4 0
796 1 2.2841580660728056 8.85337183828158 18.02797370345052 -2 3 0
3831 1 4.763242510258844 7.247471449789114 18.6868018029952 2 0 -2
1989 1 4.6835928000258304 7.870736847461218 21.362375336568405 -2 2 -1
4021 1 2.3015466423627284 6.338992499626211 22.169724060807255 0 -1 -1
2959 1 2.305889094782049 6.363373488062259 24.95519803965886 0 7 -1
817 1 4.905964906930801 2.3235840037762028 25.333780994577893 2 0 0
3840 1 0.09075444405113288 4.537881608129161 18.07631005200981 1 2 0
2084 1 0.04137984450064829 4.134992327274434 15.35844511403546 4 -1 0
1999 1 0.17120970191468388 7.159805009949987 18.819042482370683 -1 -2 0
101 2 0 11.366872099805333 2.6552259618216807 0 0 0
124 2 0 12.787731112280996 2.6552259618216807 0 0 0
126 2 1.2305000000000001 13.49816061851883 2.6552259618216807 0 0 0
128 2 1.2305000000000001 10.656442593567498 2.6552259618216807 0 0 0
130 2 2.4610000000000003 11.366872099805333 2.6552259618216807 0 0 0
161 2 2.4610000000000003 12.787731112280996 2.6552259618216807 0 0 0
163 2 3.6915000000000004 13.49816061851883 2.6552259618216807 0 0 0
165 2 3.6914999999999996 10.6564425935675 2.6552259618216807 0 0 0
167 2 4.922000000000001 11.366872099805333 2.6552259618216807 0 0 0
206 2 4.922000000000001 12.787731112280996 2.6552259618216807 0 0 0
208 2 6.152499999999999 13.49816061851883 2.6552259618216807 0 0 0
122 2 0 15.629449137232333 2.6552259618216807 0 0 0
153 2 0 17.050308149708 2.6552259618216807 0 0 0
157 2 1.2305000000000001 14.919019630994494 2.6552259618216807 0 0 0
159 2 2.4610000000000003 15.629449137232328 2.6552259618216807 0 0 0
198 2 2.4610000000000003 17.050308149708 2.6552259618216807 0 0 0
202 2 3.6915000000000004 14.919019630994494 2.6552259618216807 0 0 0
204 2 4.922000000000001 15.629449137232333 2.6552259618216807 0 0 0
245 2 4.922000000000001 17.050308149708 2.6552259618216807 0 0 0
249 2 6.152499999999999 14.919019630994494 2.6552259618216807 0 0 0
155 2 1.2305000000000001 17.76073765594583 2.6552259618216807 0 0 0
194 2 1.2305000000000001 19.181596668421495 2.6552259618216807 0 0 0
200 2 3.6914999999999996 17.76073765594583 2.6552259618216807 0 0 0
241 2 3.6914999999999996 19.181596668421495 2.6552259618216807 0 0 0
102 2 0 9.946013087329664 5.741247658791979 0 0 0
131 2 2.4610000000000003 9.946013087329664 5.741247658791979 0 0 0
168 2 4.922000000000001 9.946013087329664 5.741247658791979 0 0 0
125 2 0 12.787731112280996 5.741247658791979 0 0 0
127 2 1.2305000000000001 12.077301606043163 5.741247658791979 0 0 0
129 2 1.2305000000000001 10.656442593567498 5.741247658791979 0 0 0
162 2 2.4610000000000003 12.787731112280996 5.741247658791979 0 0 0
422 2 0 11.366872099805333 8.827269355761743 0 0 0
434 2 0 12.787731112280996 8.827269355761743 0 0 0
435 2 1.2305000000000001 13.49816061851883 8.827269355761743 0 0 0
436 2 1.2305000000000001 10.656442593567498 8.827269355761743 0 0 0
437 2 2.4610000000000003 11.366872099805333 8.827269355761743 0 0 0
453 2 2.4610000000000003 12.787731112280996 8.827269355761743 0 0 0
164 2 3.6914999999999996 12.077301606043163 5.741247658791979 0 0 0
166 2 3.6914999999999996 10.6564425935675 5.741247658791979 0 0 0
207 2 4.922000000000001 12.787731112280996 5.741247658791979 0 0 0
454 2 3.6915000000000004 13.49816061851883 8.827269355761743 0 0 0
455 2 3.6914999999999996 10.6564425935675 8.827269355761743 0 0 0
456 2 4.922000000000001 11.366872099805333 8.827269355761743 0 0 0
476 2 4.922000000000001 12.787731112280996 8.827269355761743 0 0 0
477 2 6.152499999999999 13.49816061851883 8.827269355761743 0 0 0
123 2 0 14.208590124756663 5.741247658791979 0 0 0
160 2 2.4610000000000003 14.208590124756663 5.741247658791979 0 0 0
205 2 4.922000000000001 14.208590124756663 5.741247658791979 0 0 0
154 2 0 17.050308149708 5.741247658791979 0 0 0
156 2 1.2305000000000001 16.339878643470165 5.741247658791979 0 0 0
158 2 1.2305000000000001 14.919019630994494 5.741247658791979 0 0 0
199 2 2.4610000000000003 17.050308149708 5.741247658791979 0 0 0
433 2 0 15.629449137232333 8.827269355761743 0 0 0
449 2 0 17.050308149708 8.827269355761743 0 0 0
451 2 1.2305000000000001 14.919019630994494 8.827269355761743 0 0 0
452 2 2.4610000000000003 15.629449137232328 8.827269355761743 0 0 0
472 2 2.4610000000000003 17.050308149708 8.827269355761743 0 0 0
201 2 3.6915000000000004 16.339878643470165 5.741247658791979 0 0 0
203 2 3.6915000000000004 14.919019630994494 5.741247658791979 0 0 0
246 2 4.922000000000001 17.050308149708 5.741247658791979 0 0 0
250 2 6.152499999999999 14.919019630994494 5.741247658791979 0 0 0
474 2 3.6915000000000004 14.919019630994494 8.827269355761743 0 0 0
475 2 4.922000000000001 15.629449137232333 8.827269355761743 0 0 0
496 2 4.922000000000001 17.050308149708 8.827269355761743 0 0 0
498 2 6.152499999999999 14.919019630994494 8.827269355761743 0 0 0
152 2 0 18.471167162183658 5.741247658791979 0 0 0
195 2 1.2305000000000001 19.181596668421495 5.741247658791979 0 0 0
197 2 2.4610000000000003 18.471167162183658 5.741247658791979 0 0 0
450 2 1.2305000000000001 17.76073765594583 8.827269355761743 0 0 0
470 2 1.2305000000000001 19.181596668421495 8.827269355761743 0 0 0
242 2 3.6914999999999996 19.181596668421495 5.741247658791979 0 0 0
244 2 4.922000000000001 18.471167162183658 5.741247658791979 0 0 0
473 2 3.6914999999999996 17.76073765594583 8.827269355761743 0 0 0
494 2 3.6914999999999996 19.181596668421495 8.827269355761743 0 0 0
954 1 4.043561033830566 13.337475030839254 11.489174586384754 -2 1 0
24 1 1.6761085119592583 11.433479953768648 11.698997994322422 -1 0 -1
1934 1 1.6158767706608255 16.87507919757834 11.216707962361905 0 -1 -1
783 1 4.227154515110736 16.09995202415937 11.979650451212475 1 -2 -1
3934 1 4.3710069040770945 13.160387076847732 15.113346637999983 2 4 0
2835 1 2.017918559859543 11.62546923432908 14.576066895723095 4 1 0
1953 1 3.8405436804362347 15.429034632147395 25.254875452429992 1 0 2
3813 1 1.6268161056206845 17.09120628570887 15.150395160503173 -3 0 0
2831 1 4.087266914589866 16.244780784780794 14.722042131184377 2 2 0
1966 1 1.8089494082632693 16.641135489299504 17.82964162500282 2 1 -2
1907 1 4.633151186570872 10.499596374081525 22.353464087950094 0 1 0
1094 1 1.745243420574025 19.253105513831912 18.79980274563674 -1 1 0
3102 1 4.497328317450259 12.991296624910225 17.953391548983497 4 3 -1
3008 1 3.867484722086621 18.13642833901731 25.21291908806235 1 -1 0
827 1 2.33684213611373 11.435349349220358 18.839541014397987 -1 -3 1
2094 1 2.068182041078524 11.333441585216256 21.603604682524164 0 -2 -1
951 1 1.5331625677851282 13.803377041313192 22.73917877029944 -2 1 0
1871 1 0.02062682373500735 9.939239149513151 22.38904999431088 1 2 0
873 1 3.7826044753566297 15.186797619042988 21.974544916698 3 2 -1
69 1 3.903884213242879 15.529912086613292 19.19387402127481 -1 -1 0
1936 1 3.879033059306669 18.059258705329473 22.647209521255668 1 0 0
2091 1 4.496479624684077 10.540685151302455 25.20407574637077 2 0 0
4036 1 1.6163030101994404 14.067762706579284 25.394577762026024 0 2 0
3832 1 2.144280253671057 11.337829156752901 25.74178990266639 0 1 0
1026 1 1.4825105223930723 19.090931891955535 21.484591731586434 4 4 0
3856 1 1.486492541222632 19.255762568677202 25.844194949955316 2 2 -1
3073 1 0.04870076160414527 12.30701305430883 18.010965925310316 0 1 -1
151 2 0 19.89202617465933 2.6552259618216807 0 0 0
196 2 2.4610000000000003 19.89202617465933 2.6552259618216807 0 0 0
243 2 4.922000000000001 19.89202617465933 2.6552259618216807 0 0 0
188 2 0 24.154603212086325 2.6552259618216807 0 0 0
190 2 0 21.312885187135 2.6552259618216807 0 0 0
192 2 1.2304999999999993 22.023314693372832 2.6552259618216807 0 0 0
233 2 1.2304999999999993 23.4441737058485 2.6552259618216807 0 0 0
235 2 2.4610000000000003 24.154603212086325 2.6552259618216807 0 0 0
237 2 2.4610000000000003 21.312885187134995 2.6552259618216807 0 0 0
239 2 3.6914999999999996 22.023314693372832 2.6552259618216807 0 0 0
280 2 3.6915000000000004 23.4441737058485 2.6552259618216807 0 0 0
282 2 4.922000000000001 24.154603212086325 2.6552259618216807 0 0 0
284 2 4.922000000000001 21.312885187134995 2.6552259618216807 0 0 0
286 2 6.152499999999999 22.023314693372832 2.6552259618216807 0 0 0
1130 2 0 25.575462224561992 2.6552259618216807 0 0 0
1132 2 1.2305000000000001 26.285891730799833 2.6552259618216807 0 0 0
1140 2 1.230500000000001 27.706750743275496 2.6552259618216807 0 0 0
1144 2 2.4610000000000003 25.575462224561992 2.6552259618216807 0 0 0
1146 2 3.691499999999999 26.285891730799833 2.6552259618216807 0 0 0
1162 2 3.6914999999999996 27.706750743275496 2.6552259618216807 0 0 0
1166 2 4.922000000000001 25.575462224561992 2.6552259618216807 0 0 0
1192 2 6.152499999999999 27.706750743275496 2.6552259618216807 0 0 0
1128 2 0 28.417180249513333 2.6552259618216807 0 0 0
1142 2 2.4610000000000003 28.417180249513326 2.6552259618216807 0 0 0
1164 2 4.922000000000001 28.417180249513336 2.6552259618216807 0 0 0
193 2 1.2305000000000001 20.60245568089716 5.741247658791979 0 0 0
448 2 0 19.89202617465933 8.827269355761743 0 0 0
471 2 2.4610000000000003 19.89202617465933 8.827269355761743 0 0 0
240 2 3.6915000000000004 20.60245568089716 5.741247658791979 0 0 0
495 2 4.922000000000001 19.89202617465933 8.827269355761743 0 0 0
189 2 0 22.733744199610655 5.741247658791979 0 0 0
191 2 0 21.312885187135 5.741247658791979 0 0 0
234 2 1.2304999999999993 23.4441737058485 5.741247658791979 0 0 0
236 2 2.4610000000000003 22.733744199610655 5.741247658791979 0 0 0
238 2 2.4610000000000003 21.312885187134995 5.741247658791979 0 0 0
467 2 0 24.154603212086325 8.827269355761743 0 0 0
468 2 0 21.312885187135 8.827269355761743 0 0 0
469 2 1.2304999999999993 22.023314693372832 8.827269355761743 0 0 0
490 2 1.2304999999999993 23.4441737058485 8.827269355761743 0 0 0
491 2 2.4610000000000003 24.154603212086325 8.827269355761743 0 0 0
492 2 2.4610000000000003 21.312885187134995 8.827269355761743 0 0 0
281 2 3.6915000000000004 23.4441737058485 5.741247658791979 0 0 0
283 2 4.922000000000001 22.733744199610655 5.741247658791979 0 0 0
285 2 4.922000000000001 21.312885187134995 5.741247658791979 0 0 0
493 2 3.6914999999999996 22.023314693372832 8.827269355761743 0 0 0
514 2 3.6915000000000004 23.4441737058485 8.827269355761743 0 0 0
515 2 4.922000000000001 24.154603212086325 8.827269355761743 0 0 0
516 2 4.922000000000001 21.312885187134995 8.827269355761743 0 0 0
517 2 6.152499999999999 22.023314693372832 8.827269355761743 0 0 0
1129 2 0 26.99632123703766 5.741247658791979 0 0 0
1131 2 0 25.575462224561992 5.741247658791979 0 0 0
1133 2 1.2305000000000001 24.865032718324155 5.741247658791979 0 0 0
1141 2 1.230500000000001 27.706750743275496 5.741247658791979 0 0 0
1143 2 2.4610000000000003 26.99632123703766 5.741247658791979 0 0 0
1145 2 2.4610000000000003 25.575462224561992 5.741247658791979 0 0 0
1444 2 0 25.575462224561992 8.827269355761743 0 0 0
1445 2 1.2305000000000001 26.285891730799833 8.827269355761743 0 0 0
1449 2 1.230500000000001 27.706750743275496 8.827269355761743 0 0 0
1451 2 2.4610000000000003 25.575462224561992 8.827269355761743 0 0 0
1147 2 3.6914999999999996 24.865032718324166 5.741247658791979 0 0 0
1163 2 3.6914999999999996 27.706750743275496 5.741247658791979 0 0 0
1165 2 4.922000000000001 26.99632123703766 5.741247658791979 0 0 0
1167 2 4.922000000000001 25.575462224561992 5.741247658791979 0 0 0
1169 2 6.152499999999999 24.865032718324155 5.741247658791979 0 0 0
1193 2 6.152499999999999 27.706750743275496 5.741247658791979 0 0 0
1452 2 3.691499999999999 26.285891730799833 8.827269355761743 0 0 0
1460 2 3.6914999999999996 27.706750743275496 8.827269355761743 0 0 0
1462 2 4.922000000000001 25.575462224561992 8.827269355761743 0 0 0
1475 2 6.152499999999999 27.706750743275496 8.827269355761743 0 0 0
1139 2 1.2304999999999993 29.127609755751163 5.741247658791979 0 0 0
1443 2 0 28.417180249513333 8.827269355761743 0 0 0
1450 2 2.4610000000000003 28.417180249513326 8.827269355761743 0 0 0
1161 2 3.691499999999999 29.127609755751152 5.741247658791979 0 0 0
1191 2 6.152499999999998 29.127609755751152 5.741247658791979 0 0 0
1461 2 4.922000000000001 28.417180249513336 8.827269355761743 0 0 0
2079 1 3.4919299686658873 21.04027291147911 11.665644231182146 1 3 1
1805 1 2.9306754980433536 23.74673709623326 11.983782012340432 -1 -1 0
3835 1 5.221386072411572 25.759155139857764 11.603748624074509 0 0 0
2085 1 5.153519570464192 28.53086939143567 12.010717952822786 -1 -2 0
2948 1 0.606974277742075 27.562541571536016 11.97165187647063 2 2 0
948 1 0.7436376403139789 24.915748011370223 11.098072257384038 0 1 0
2015 1 2.5434341805538185 29.092835639147832 11.255325667367808 0 0 0
1000 1 5.929997306201019 19.751888722976034 11.55875614595661 -2 0 -1
3009 1 1.1987023281825642 19.66421261405534 11.747826239381897 -1 4 0
797 1 3.462459803564663 21.15565874596668 14.915992221129429 4 0 0
4052 1 3.057424799895721 23.84688165338311 14.726326446699703 3 0 -1
936 1 3.6296878001910327 20.73603466229342 17.81019243720862 0 -2 0
1884 1 0.9580159863482663 25.139736372326123 15.45989995288984 -1 1 0
989 1 5.47594680211791 25.21835855025877 15.589978678655266 4 1 0
2887 1 5.672165545199219 27.74627529487584 14.605522928451679 1 2 0
3056 1 0.6541801325447099 27.549569039432285 14.751806899531369 2 -2 -1
3002 1 1.029383555517208 24.605251147671066 18.063680674608385 -1 -4 -1
2122 1 0.7912042548110437 27.658655057865218 25.710953858839268 4 -1 0
981 1 3.5892238702682278 23.64243426673309 18.818774972294698 -1 0 1
3834 1 3.271557082859312 23.569500535168757 21.535208574480876 -3 0 0
3924 1 5.214654652286923 27.883213926151903 25.57191271341754 5 1 0
2890 1 3.0621425060165994 28.815367965910156 15.644493917900817 -1 1 0
2090 1 6.0273587059886395 25.274640380606716 18.108817769311543 -1 -1 0
2854 1 0.560199034481586 27.154717717557098 21.68201524372099 2 -2 0
1126 1 5.418331993995406 27.84812605051281 21.86973406854967 3 0 0
1855 1 5.411134594909587 27.975399182601812 19.210079951402633 0 0 0
2087 1 0.753889753189588 27.3582094303128 18.921368878991302 -1 -2 1
1127 1 2.9568555520041895 28.87519077924895 18.36036682578792 0 0 0
1040 1 3.074583368997503 26.177296686501744 22.429633699988386 2 -1 -1
2858 1 3.190896780299822 25.964886047179768 25.311564103139993 -1 2 0
2958 1 1.272450095273922 21.46266074696637 22.344118074722914 0 -2 -1
4042 1 1.5949621032613195 21.837289352353853 24.84782542724262 2 0 -1
3050 1 3.6546580597814176 23.31579041654195 25.971974002301273 0 -1 0
2955 1 6.020293679283898 22.2911274708473 25.163998074401157 -1 2 0
1005 1 6.004980030218826 22.41734544807585 22.407835177425092 1 -4 0
33 1 1.165549619410288 19.676712384712722 14.549243156145387 0 3 -1
32 1 5.992037040581099 20.06776848227992 14.39471491779764 3 -1 0
4008 1 6.051845414957905 19.794438750557575 26.18700737763176 -3 1 0
896 1 6.043698350337962 19.721000194651122 21.50903156474409 3 -1 0
1136 2 0 29.83803926198899 2.6552259618216807 0 0 0
1138 2 1.2304999999999993 30.54846876822683 2.6552259618216807 0 0 0
1158 2 2.4610000000000003 29.83803926198899 2.6552259618216807 0 0 0
1160 2 3.6915000000000004 30.54846876822683 2.6552259618216807 0 0 0
1188 2 4.922000000000001 29.83803926198899 2.6552259618216807 0 0 0
1134 2 0 32.67975728694033 2.6552259618216807 0 0 0
1150 2 0 34.100616299416 2.6552259618216807 0 0 0
1154 2 1.2304999999999993 31.969327780702493 2.6552259618216807 0 0 0
1156 2 2.4610000000000003 32.67975728694034 2.6552259618216807 0 0 0
1180 2 2.4609999999999985 34.100616299416 2.6552259618216807 0 0 0
1184 2 3.6914999999999996 31.969327780702493 2.6552259618216807 0 0 0
1186 2 4.9220000000000015 32.67975728694034 2.6552259618216807 0 0 0
1218 2 4.922000000000001 34.100616299416 2.6552259618216807 0 0 0
1152 2 1.230500000000001 34.81104580565383 2.6552259618216807 0 0 0
1182 2 3.691500000000002 34.81104580565383 2.6552259618216807 0 0 0
1148 2 0 36.94233432436734 2.6552259618216807 0 0 0
1172 2 0 38.36319333684299 2.6552259618216807 0 0 0
1176 2 1.2304999999999993 36.231904818129486 2.6552259618216807 0 0 0
1178 2 2.461000000000002 36.94233432436734 2.6552259618216807 0 0 0
1210 2 2.4610000000000003 38.36319333684299 2.6552259618216807 0 0 0
1214 2 3.6914999999999996 36.231904818129486 2.6552259618216807 0 0 0
1216 2 4.922000000000001 36.942334324367316 2.6552259618216807 0 0 0
1255 2 4.922000000000001 38.36319333684299 2.6552259618216807 0 0 0
1174 2 1.230500000000001 39.07362284308084 2.6552259618216807 0 0 0
1212 2 3.691500000000002 39.07362284308082 2.6552259618216807 0 0 0
1135 2 0 31.258898274464656 5.741247658791979 0 0 0
1137 2 0 29.83803926198899 5.741247658791979 0 0 0
1157 2 2.4609999999999985 31.258898274464656 5.741247658791979 0 0 0
1159 2 2.4610000000000003 29.83803926198899 5.741247658791979 0 0 0
1447 2 0 29.83803926198899 8.827269355761743 0 0 0
1448 2 1.2304999999999993 30.54846876822683 8.827269355761743 0 0 0
1458 2 2.4610000000000003 29.83803926198899 8.827269355761743 0 0 0
1187 2 4.921999999999998 31.258898274464656 5.741247658791979 0 0 0
1189 2 4.922000000000001 29.83803926198899 5.741247658791979 0 0 0
1459 2 3.6915000000000004 30.54846876822683 8.827269355761743 0 0 0
1473 2 4.922000000000001 29.83803926198899 8.827269355761743 0 0 0
1151 2 0 34.100616299416 5.741247658791979 0 0 0
1153 2 1.2304999999999993 33.39018679317816 5.741247658791979 0 0 0
1155 2 1.2304999999999993 31.969327780702493 5.741247658791979 0 0 0
1181 2 2.4609999999999985 34.100616299416 5.741247658791979 0 0 0
1446 2 0 32.67975728694033 8.827269355761743 0 0 0
1454 2 0 34.100616299416 8.827269355761743 0 0 0
1456 2 1.2304999999999993 31.969327780702493 8.827269355761743 0 0 0
1457 2 2.4610000000000003 32.67975728694034 8.827269355761743 0 0 0
1469 2 2.4609999999999985 34.100616299416 8.827269355761743 0 0 0
1183 2 3.691499999999998 33.39018679317816 5.741247658791979 0 0 0
1185 2 3.6914999999999996 31.969327780702493 5.741247658791979 0 0 0
1219 2 4.922000000000001 34.100616299416 5.741247658791979 0 0 0
1221 2 6.152499999999999 33.39018679317816 5.741247658791979 0 0 0
1471 2 3.6914999999999996 31.969327780702493 8.827269355761743 0 0 0
1472 2 4.9220000000000015 32.67975728694034 8.827269355761743 0 0 0
1488 2 4.922000000000001 34.100616299416 8.827269355761743 0 0 0
1455 2 1.230500000000001 34.81104580565383 8.827269355761743 0 0 0
1470 2 3.691500000000002 34.81104580565383 8.827269355761743 0 0 0
1149 2 0 35.52147531189165 5.741247658791979 0 0 0
1173 2 0 38.36319333684299 5.741247658791979 0 0 0
1175 2 1.2304999999999993 37.65276383060515 5.741247658791979 0 0 0
1177 2 1.2304999999999993 36.231904818129486 5.741247658791979 0 0 0
1179 2 2.4609999999999985 35.52147531189166 5.741247658791979 0 0 0
1211 2 2.4610000000000003 38.36319333684299 5.741247658791979 0 0 0
1453 2 0 36.94233432436734 8.827269355761743 0 0 0
1465 2 0 38.36319333684299 8.827269355761743 0 0 0
1467 2 1.2304999999999993 36.231904818129486 8.827269355761743 0 0 0
1468 2 2.461000000000002 36.94233432436734 8.827269355761743 0 0 0
1484 2 2.4610000000000003 38.36319333684299 8.827269355761743 0 0 0
1213 2 3.6914999999999996 37.65276383060515 5.741247658791979 0 0 0
1215 2 3.6914999999999996 36.231904818129486 5.741247658791979 0 0 0
1217 2 4.922000000000001 35.52147531189166 5.741247658791979 0 0 0
1256 2 4.922000000000001 38.36319333684299 5.741247658791979 0 0 0
1258 2 6.152499999999998 37.65276383060515 5.741247658791979 0 0 0
1486 2 3.6914999999999996 36.231904818129486 8.827269355761743 0 0 0
1487 2 4.922000000000001 36.942334324367316 8.827269355761743 0 0 0
1506 2 4.922000000000001 38.36319333684299 8.827269355761743 0 0 0
1466 2 1.230500000000001 39.07362284308084 8.827269355761743 0 0 0
1485 2 3.691500000000002 39.07362284308082 8.827269355761743 0 0 0
3914 1 2.1936456374564375 31.505418867520113 12.432729862410373 0 -2 -1
3903 1 4.246706521800338 33.25258819601347 11.366777910787754 1 0 -1
1943 1 3.9483190454601726 36.01865994399207 11.841010216104902 2 -2 -1
841 1 1.4770904887836083 36.85415120750872 11.275488122229174 3 -2 -1
3118 1 6.0930143187276995 37.54974187072601 11.266018656844825 2 -2 1
1856 1 0.14749601795993073 32.74873049745595 11.311950781703924 -3 2 0
1860 1 4.519519759547256 33.5186051147162 15.783609116589808 1 -1 0
877 1 2.6650679765013097 31.617524784104788 15.101767229699952 3 0 0
2987 1 3.719612283555609 38.85939095181357 22.68454964196259 2 0 0
1995 1 1.724494319443807 37.21240388696518 15.71323250201839 -4 -5 1
3988 1 4.024693824223534 36.14087924102531 14.717033101104018 2 4 1
1813 1 2.0438133662731444 34.51483314078038 25.224001430973786 0 1 0
996 1 4.077493619868037 33.41457541847487 18.487383501742727 1 2 -1
1794 1 2.338372539341582 31.46086490077561 19.28437411837598 2 1 -1
886 1 2.790931638264649 31.652843061392783 21.95321869401544 1 -3 -1
956 1 1.6509523198272007 37.43243653279527 18.583843187040053 0 3 0
3887 1 3.936781131333759 35.86285797209503 19.277984329110744 2 -1 -1
800 1 4.0471459879617075 36.037409607629215 21.935962997248993 0 0 0
924 1 5.180223264276873 30.519203409840998 22.52882105676838 -2 -1 0
1025 1 4.819962642504948 30.58753535873532 25.144855803963225 1 2 1
4048 1 2.4147498241554692 31.776846660129664 25.144072938545634 3 1 -1
3806 1 3.919266925844895 39.10003156885247 25.576950405680947 3 -5 -1
2921 1 2.055849332144462 34.38682487548333 22.496262956879143 -1 0 -1
855 1 0.057200875581986256 30.19984970523058 25.30127310807739 0 1 0
2025 1 4.330346706566571 36.116698057562054 25.78478962653388 -3 2 -1
17 1 0.4780720609438148 30.000853742119194 22.46727107062489 1 0 -1
2011 1 5.964502767082064 37.6829644726594 18.34984215578013 -2 3 0
65 1 6.0048634017186595 37.87154033985826 15.516156064182027 4 2 -1
3893 1 0.19318192867076464 32.53504962560901 15.534008173207434 0 0 -1
1170 2 0 41.20491136179432 2.6552259618216807 0 0 0
1206 2 1.230500000000001 40.494481855556494 2.6552259618216807 0 0 0
1208 2 2.4610000000000003 41.20491136179432 2.6552259618216807 0 0 0
1251 2 3.6914999999999996 40.494481855556494 2.6552259618216807 0 0 0
1253 2 4.922000000000003 41.20491136179432 2.6552259618216807 0 0 0
1296 2 6.152499999999998 40.494481855556494 2.6552259618216807 0 0 0
1202 2 0 42.62577037427 2.6552259618216807 0 0 0
1204 2 1.2304999999999993 43.33619988050783 2.6552259618216807 0 0 0
1247 2 2.4610000000000003 42.62577037427 2.6552259618216807 0 0 0
1249 2 3.691500000000002 43.33619988050783 2.6552259618216807 0 0 0
1292 2 4.922000000000001 42.62577037426999 2.6552259618216807 0 0 0
1200 2 0 45.46748839922133 2.6552259618216807 0 0 0
1243 2 1.2304999999999993 44.757058892983494 2.6552259618216807 0 0 0
1245 2 2.4610000000000003 45.46748839922133 2.6552259618216807 0 0 0
1288 2 3.6914999999999996 44.757058892983494 2.6552259618216807 0 0 0
1290 2 4.922000000000001 45.46748839922133 2.6552259618216807 0 0 0
1239 2 0 46.888347411697 2.6552259618216807 0 0 0
1241 2 1.230500000000001 47.59877691793481 2.6552259618216807 0 0 0
1284 2 2.4609999999999985 46.888347411697 2.6552259618216807 0 0 0
1286 2 3.6914999999999996 47.598776917934835 2.6552259618216807 0 0 0
1329 2 4.922000000000001 46.888347411697 2.6552259618216807 0 0 0
1171 2 0 39.78405234931866 5.741247658791979 0 0 0
1205 2 1.230500000000001 41.91534086803216 5.741247658791979 0 0 0
1207 2 1.230500000000001 40.494481855556494 5.741247658791979 0 0 0
1209 2 2.4610000000000003 39.78405234931866 5.741247658791979 0 0 0
1464 2 0 41.20491136179432 8.827269355761743 0 0 0
1482 2 1.230500000000001 40.494481855556494 8.827269355761743 0 0 0
1483 2 2.4610000000000003 41.20491136179432 8.827269355761743 0 0 0
1250 2 3.6914999999999996 41.91534086803216 5.741247658791979 0 0 0
1252 2 3.6914999999999996 40.494481855556494 5.741247658791979 0 0 0
1254 2 4.922000000000001 39.78405234931866 5.741247658791979 0 0 0
1295 2 6.152499999999998 41.91534086803216 5.741247658791979 0 0 0
1297 2 6.152499999999998 40.494481855556494 5.741247658791979 0 0 0
1504 2 3.6914999999999996 40.494481855556494 8.827269355761743 0 0 0