
# Create simulation box and atoms

read_data data.ML_graphite_1atm_240K
Reading data file ...
  orthogonal box = (0.0000000 0.0000000 2.0829560) to (49.220000 49.019636 25.757876)
  8 by 5 by 2 MPI processor grid
  reading atoms ...
  4065 atoms
  reading velocities ...
  4065 velocities
  read_data CPU = 0.014 seconds
group water type 1
1305 atoms in group water
group graphite type 2
2760 atoms in group graphite

# Define potential

pair_style sw
pair_coeff * * MLC_e.sw mW C


# Fix graphite atoms in place

fix 5 graphite setforce 0.0 0.0 0.0
velocity graphite set 0.0 0.0 0.0


# Equilibration of molecular water

# Add velocity/set timestep

velocity	    water create ${TEMP} ${SEED} rot yes dist gaussian
velocity	    water create 240 ${SEED} rot yes dist gaussian
velocity	    water create 240 1288 rot yes dist gaussian
timestep	    5.0

# Define output

compute			1 water msd
compute			3 water temp
thermo	    	50
thermo_style	custom step temp press vol etotal ke pe c_1[4] c_3

# Neighbor lists

neigh_modify    delay 0 every 1 check yes

# Set fixes

fix             1 water momentum 10 linear 1 1 1 rescale
fix             2 water nve
fix             3 water temp/csvr ${TEMP} ${TEMP} 500.0 ${SEED}
fix             3 water temp/csvr 240 ${TEMP} 500.0 ${SEED}
fix             3 water temp/csvr 240 240 500.0 ${SEED}
fix             3 water temp/csvr 240 240 500.0 1288
fix             4 water press/berendsen z ${PRES} ${PRES} 1000.0 modulus 20000
fix             4 water press/berendsen z 1 ${PRES} 1000.0 modulus 20000
fix             4 water press/berendsen z 1 1 1000.0 modulus 20000

# Run 0.5 ns equilibration

dump		    1 all atom 2000 ${DIR}/eq.${NAME}-${TEMP}.dump
dump		    1 all atom 2000 run_16/eq.${NAME}-${TEMP}.dump
dump		    1 all atom 2000 run_16/eq.het_freeze_16-${TEMP}.dump
dump		    1 all atom 2000 run_16/eq.het_freeze_16-240.dump

reset_timestep  0

run	            100000
Neighbor list info ...
  update every 1 steps, delay 0 steps, check yes
  max neighbors/atom: 2000, page size: 100000
  master list distance cutoff = 6.6747184
  ghost atom cutoff = 6.6747184
  binsize = 3.3373592, bins = 15 15 8
  1 neighbor lists, perpetual/occasional/extra = 1 0 0
  (1) pair sw, perpetual
      attributes: full, newton on
      pair build: full/bin/atomonly
      stencil: full/bin/3d
      bin: standard
Per MPI rank memory allocation (min/avg/max) = 4.467 | 4.471 | 4.473 Mbytes
Step Temp Press Volume TotEng KinEng PotEng c_1[4] c_3 
       0    77.007874   -452.08497    57121.581   -12745.801    932.87431   -13678.675            0          240 
      50    78.929753   -1065.7851    57158.068   -12758.461    956.15598   -13714.617   0.52592868    245.98966 
     100    79.423114   -524.50801    57124.856   -12736.694    962.13256   -13698.827   0.89652941    247.52725 
     150    76.202857    -698.9899    57100.801   -12779.729    923.12232   -13702.852    1.2031521    237.49111 
     200    74.727492   -800.60951    57080.464   -12763.512    905.24974   -13668.762    1.4400186    232.89304 
     250    76.203476   -543.15565    57084.836   -12769.197    923.12983   -13692.327    1.5906296    237.49304 
     300    76.686585   -454.39563    57052.742   -12763.569    928.98221   -13692.552    1.8342433    238.99868 
     350    74.748638   -767.40882    57105.959   -12756.078     905.5059   -13661.584    2.1138936    232.95895 
     400    78.142641   -42.240033    57152.722   -12734.945     946.6209   -13681.566    2.3036818    243.53657 
     450    78.732133   -699.97554    57140.823   -12714.687    953.76201   -13668.449    2.5763476    245.37377 
     500    76.374607   -929.77734    57130.806   -12696.346     925.2029   -13621.549    2.8481036    238.02638 
     550    80.011992   -872.57035    57164.716   -12704.839    969.26624   -13674.105    3.0707095    249.36253 
     600    80.917051    -764.6687    57149.507   -12694.178    980.23013   -13674.408    3.3337869     252.1832 
     650    78.487109   -527.59504    57125.331   -12727.374    950.79379   -13678.168     3.575123    244.61013 
     700    76.264467    117.47343    57193.455   -12718.613    923.86867   -13642.482    3.7966093    237.68312 
     750    77.722839   -498.45302    57262.056   -12731.132     941.5354   -13672.667    4.0516158    242.22823 
     800    77.538319   -678.78271    57282.798   -12748.837    939.30013   -13688.137    4.1816657    241.65317 
     850    79.852169   -659.26154    57208.892   -12720.267    967.33014   -13687.597    4.3511773    248.86443 
     900    78.835575   -621.58098    57218.875   -12727.406    955.01511   -13682.422    4.5867712    245.69615 
     950    76.497864   -317.71906    57230.454   -12733.507    926.69605   -13660.203     4.798084    238.41052 
    1000    75.906081   -601.44187    57270.535     -12740.2    919.52718   -13659.727    4.9646297    236.56619 
    1050    75.749931   -865.62059     57248.68   -12729.406    917.63558   -13647.041    5.2661452    236.07954 
    1100    76.657825   -707.57473    57248.981   -12738.536    928.63381    -13667.17    5.5788114    238.90905 
    1150    75.643418   -632.37052    57238.834   -12750.989    916.34528   -13667.335    5.8749905    235.74758 
    1200    76.888379   -504.69815    57215.669   -12748.703    931.42675    -13680.13    6.0341496    239.62759 
    1250    76.877318   -635.77847    57167.226   -12720.282    931.29276   -13651.575    6.3879628    239.59311 
    1300    76.522605   -488.62696    57162.832   -12699.031    926.99576   -13626.027    6.6231982    238.48763 
    1350     76.79494   -776.54166    57111.806   -12685.892    930.29482   -13616.187    6.8950748    239.33638 
    1400    80.125412   -563.10131    57100.254   -12688.043    970.64021   -13658.683      7.12278    249.71601 
    1450    77.342547   -323.16685    57120.858    -12700.15    936.92854   -13637.078    7.4393293    241.04303 
    1500     81.72894    -313.7085    57124.423   -12680.006    990.06536   -13670.072    7.6902341    254.71351 
    1550    81.402094   -83.777727    57129.918   -12679.651    986.10594   -13665.757    7.9446781    253.69487 
    1600    78.846735   -652.91112      57148.1    -12688.08    955.15029   -13643.231     8.097294    245.73093 
    1650    78.063898   -297.68523    57173.135   -12710.806      945.667   -13656.473    8.3510714    243.29117 
    1700    77.748635   -928.26764    57184.501   -12707.546    941.84791   -13649.394    8.5130436    242.30863 
    1750    76.690135   -403.40676    57164.341   -12695.455    929.02522    -13624.48    8.7223128    239.00975 
    1800    79.323326   -404.35892    57218.928   -12688.377    960.92373   -13649.301    8.9648286    247.21626 
    1850     76.68962   -285.15875    57249.952   -12713.927    929.01898   -13642.946    9.1310918    239.00814 
    1900    78.406543   -689.64256     57285.33   -12746.599    949.81781   -13696.416    9.5389434    244.35904 
    1950    78.035013   -73.226403    57250.222   -12739.631    945.31709   -13684.949    9.6292452    243.20115 
    2000     74.37369   -786.15653    57286.438   -12731.897    900.96377   -13632.861    9.8967942    231.79039 
    2050    75.861966   -267.14329    57271.669   -12741.205    918.99277   -13660.198    10.145871     236.4287 
    2100    77.997324   -560.23973    57285.055    -12747.06    944.86053    -13691.92    10.300881    243.08369 
    2150    77.657731   -387.93197    57306.707   -12800.459    940.74668   -13741.205    10.403588    242.02532 
    2200    77.529082   -712.04077    57326.754   -12780.912    939.18824     -13720.1    10.751798    241.62438 
    2250    75.466925   -607.85382    57324.042   -12792.879    914.20723   -13707.086    11.030263    235.19753 
    2300    77.255344   -404.26501    57371.511    -12760.63    935.87217   -13696.502    11.262154    240.77126 
    2350    78.842133   -705.59212    57435.674   -12726.994    955.09455   -13682.088    11.442682    245.71659 
    2400    80.132028   -216.32434    57515.479   -12697.188    970.72036   -13667.908    11.479843    249.73663 
    2450    78.874381   -476.54594    57524.069   -12698.178     955.4852   -13653.663    11.509562    245.81709 
    2500     79.49163   -142.37817    57608.372    -12655.71    962.96257   -13618.673    11.790161    247.74079 
    2550    80.797946   -628.30109    57610.103   -12688.556    978.78729   -13667.343    11.911122      251.812 
    2600    79.402863   -554.81344    57630.323   -12649.551    961.88724   -13611.439    12.343504    247.46414 
    2650       77.424    -691.6694    57641.878   -12692.983    937.91527   -13630.898    12.614677    241.29688 
    2700    77.087657   -446.56632    57658.906   -12700.576    933.84081   -13634.417    12.746222    240.24865 
    2750    77.229351   -422.29579    57673.659   -12710.214    935.55729   -13645.772     12.85844    240.69025 
    2800    77.807566   -469.42965    57730.095   -12709.495    942.56179   -13652.057    13.111422    242.49229 
    2850    78.723898   -573.58693    57728.359   -12733.721    953.66225   -13687.383    13.384614     245.3481 
    2900    77.202627   -924.85107    57643.292   -12756.305    935.23355   -13691.539    13.559699    240.60696 
    2950    74.158301    -855.3374    57706.811   -12767.014    898.35456   -13665.368     13.69936    231.11912 
    3000    77.406547   -333.85705    57725.772   -12765.284    937.70384   -13702.988    13.832148    241.24249 
    3050     75.27707   -843.50078    57682.731   -12789.495    911.90733   -13701.402    13.944115    234.60584 
    3100     75.44799   -802.30204    57655.061   -12800.773    913.97786   -13714.751    14.037161    235.13852 
    3150    74.844161   -1343.7085     57625.07   -12744.518    906.66306   -13651.181    14.186472    233.25665 
    3200    76.905474   -781.92407    57612.861   -12736.084    931.63383   -13667.718    14.338516    239.68086 
    3250    76.831928   -704.73203    57644.004     -12712.7     930.7429   -13643.443    14.520125    239.45165 
    3300    78.182357   -868.78287    57605.518   -12695.023    947.10202   -13642.125    14.618374    243.66035 
    3350    77.961819   -853.88553    57523.116   -12693.324    944.43042   -13637.755    14.822916    242.97303 
    3400    74.468173   -688.33263    57474.576   -12731.325    902.10835   -13633.433    15.067398    232.08486 
    3450    77.247381   -393.49144    57464.222    -12717.06     935.7757   -13652.835    15.489572    240.74644 
    3500    78.183587   -892.18638    57500.383   -12698.479    947.11691   -13645.596    15.853091    243.66418 
    3550    80.615974   -372.25777    57489.737   -12683.653    976.58288   -13660.236    16.091848    251.24487 
    3600    80.002791   -663.48445    57503.976   -12697.018    969.15477   -13666.172    16.285714    249.33385 
    3650    82.156849   -790.00392    57503.505    -12676.85    995.24905   -13672.099    16.425511    256.04711 
    3700    80.054848   -624.09009    57533.998   -12677.444     969.7854   -13647.229    16.709695    249.49609 
    3750    79.004663   -259.97402    57553.779   -12660.541    957.06344   -13617.604    17.036929    246.22312 
    3800    80.033918   -535.26797    57571.277   -12685.949    969.53185   -13655.481    17.208139    249.43086 
    3850    79.294453   -443.98391    57599.346   -12697.295    960.57395   -13657.869    17.280283    247.12627 
    3900     80.48394   -785.44422    57637.015   -12711.297    974.98342   -13686.281    17.362152    250.83338 
    3950    76.813204   -510.33779     57658.47   -12748.719    930.51608   -13679.235    17.562942     239.3933 
    4000    75.483232   -426.04481    57586.935    -12752.48    914.40479   -13666.885    17.601036    235.24836 
    4050    76.952118    -946.1774    57539.188   -12779.096    932.19888   -13711.295    17.815274    239.82623 
    4100    77.138839   -598.80735    57551.436   -12753.642    934.46083   -13688.103    17.953496    240.40816 
    4150    76.208371    -476.8805    57579.195    -12745.84    923.18913   -13669.029    18.020425     237.5083 
    4200    76.804917    -732.5466    57557.462       -12753    930.41569   -13683.416    18.153285    239.36747 
    4250    75.385405   -706.97901    57523.932   -12784.758     913.2197   -13697.978    18.459824    234.94347 
    4300    75.634732   -731.32775    57519.132   -12814.184    916.24005   -13730.424    18.668787    235.72051 
    4350    76.315241   -472.32954    57538.851   -12810.067    924.48375   -13734.551    18.951826    237.84136 
    4400    78.001506   -549.13544    57517.385   -12792.541    944.91118   -13737.452      19.1415    243.09672 
    4450    72.908542   -456.63808    57527.856   -12785.063    883.21495   -13668.277     19.32716    227.22417 
    4500    76.550856   -465.43049    57506.035   -12778.764    927.33799   -13706.102    19.345457    238.57567 
    4550    76.443824   -563.30327    57512.383   -12792.095    926.04141   -13718.137     19.51908     238.2421 
    4600    74.628671    -662.9669    57520.096   -12813.009    904.05262   -13717.062    19.704049    232.58506 
    4650    75.559605   -781.95296    57544.825   -12789.289    915.32997   -13704.619    19.966167    235.48638 
    4700    77.314395   -652.53404    57560.693   -12750.907    936.58751   -13687.495    20.089541    240.95529 
    4750    76.911265   -909.60703    57550.907   -12759.012    931.70398   -13690.716    20.302448    239.69891 
    4800    75.274829   -924.48062    57487.582   -12801.055    911.88019   -13712.935    20.552169    234.59885 
    4850    74.052049   -1155.2963    57439.598    -12783.11    897.06742   -13680.177    20.905847    230.78798 
    4900    76.480667   -608.68664    57382.915   -12762.203    926.48773   -13688.691    21.359388    238.35693 
    4950     78.54397   -832.66519    57373.563   -12723.527     951.4826    -13675.01    21.766012    244.78734 
    5000    76.707907   -505.23257    57389.967   -12731.725    929.24051   -13660.966    22.149709    239.06513 
    5050    76.546629     -694.785    57409.192   -12749.232    927.28678   -13676.519    22.352993     238.5625 
    5100    77.025141   -767.22613    57438.185   -12772.561    933.08348   -13705.645    22.482172    240.05381 
    5150    77.804028   -577.30562    57431.907   -12765.586    942.51893   -13708.104    22.456818    242.48127 
    5200    76.909683   -600.35384    57441.447    -12760.22    931.68483   -13691.905    22.913703    239.69398 
    5250    77.589858   -432.41791    57400.088   -12791.975    939.92447   -13731.899    22.920935    241.81379 
    5300    75.920753   -778.75696    57371.069    -12783.46    919.70492   -13703.165    23.217094    236.61192 
    5350    75.883103   -475.66674    57346.163   -12769.201    919.24882    -13688.45    23.272817    236.49458 
    5400    79.300913     -610.124    57305.107   -12778.659    960.65221   -13739.311    23.387853     247.1464 
    5450    76.110477   -247.98487    57329.997   -12772.754    922.00323   -13694.758    23.587149     237.2032 
    5500     74.25022   -243.79718    57337.051   -12766.397    899.46806   -13665.865    24.020345    231.40559 
    5550    76.582234    -994.8396    57371.366    -12738.37    927.71811   -13666.088    24.209191    238.67347 
    5600    77.363391    -537.1505    57447.596   -12744.445    937.18105   -13681.626    24.554241    241.10799 
    5650    73.967612   -716.74257    57526.764   -12776.272    896.04454   -13672.316    24.399821    230.52483 
    5700    75.644172   -893.38322    57534.354   -12796.483    916.35441   -13712.837    24.680861    235.74993 
    5750    75.648633   -511.91448    57562.815   -12781.231    916.40845   -13697.639    24.779024    235.76384 
    5800    76.003389   -951.71811    57500.547    -12799.45    920.70597   -13720.156    25.043616    236.86946 
    5850    75.508534   -1020.8129    57409.765   -12808.703    914.71129   -13723.415    25.205884    235.32721 
    5900    77.621296   -834.98173    57398.471   -12791.296    940.30531   -13731.602    25.175049    241.91177 
    5950    77.665023   -655.17638     57411.59   -12778.236    940.83503   -13719.071    25.404674    242.04805 
    6000     78.46999   -687.05066    57401.051   -12758.026     950.5864   -13708.612    25.416781    244.55678 
    6050    77.840399   -663.49444    57404.117   -12744.177    942.95953   -13687.137      25.7621    242.59462 
    6100    75.984242   -141.75364    57391.702   -12758.598    920.47402   -13679.072    26.236526    236.80978 
    6150     78.36547    -652.3392     57401.84   -12769.216    949.32024   -13718.536    26.336359    244.23103 
    6200    76.603219   -270.71286    57474.134   -12754.803    927.97232   -13682.775    26.539667    238.73887 
    6250    76.837711   -665.11894      57487.6   -12766.987    930.81296     -13697.8     26.55886    239.46968 
    6300    75.318037   -309.94869    57459.129   -12785.388    912.40361   -13697.792    26.667339    234.73351 
    6350    74.263831   -738.12874    57461.396   -12806.899    899.63294   -13706.532    26.685655    231.44801 
    6400    76.203477   -166.30373    57459.926    -12821.14    923.12984    -13744.27    26.720832    237.49305 
    6450    76.230868   -416.64118    57464.714   -12800.532    923.46165   -13723.994    26.951956    237.57841 
    6500    76.141653   -382.56351    57537.481   -12795.551     922.3809   -13717.932    27.445728    237.30037 
    6550    75.380191   -289.93726    57597.465   -12795.237    913.15654   -13708.394    27.621032    234.92722 
    6600    74.486865   -664.48484    57597.304   -12798.181    902.33478   -13700.516    27.549396    232.14311 
    6650    76.884083    -643.6668    57576.442   -12814.907    931.37471   -13746.281    27.667287     239.6142 
    6700    75.966123   -536.78887    57577.106   -12827.558    920.25453   -13747.812    27.542618    236.75332 
    6750    75.235522   -513.28508    57611.792   -12829.917    911.40402   -13741.321    27.758253    234.47635 
    6800    74.454622   -604.84758    57625.358    -12825.18    901.94419   -13727.124    27.901731    232.04263 
    6850    75.586243   -540.77857    57666.557   -12816.576    915.65266   -13732.229    28.044608    235.56939 
    6900    75.020913   -513.51249    57671.971   -12811.374    908.80424   -13720.178    28.156444    233.80751 
    6950    74.848016   -464.21484    57668.097   -12826.098    906.70976   -13732.807    28.108281    233.26866 
    7000    74.946664   -1067.5658    57656.645   -12849.956    907.90479    -13757.86    28.379578     233.5761 
    7050    72.276304   -553.34853    57621.594   -12864.232    875.55602   -13739.788     28.51925    225.25376 
    7100    76.342709   -783.02704    57606.676   -12804.946     924.8165   -13729.763    28.668328    237.92697 
    7150    75.446707   -52.686085    57650.157   -12815.053    913.96232   -13729.015    28.873566    235.13452 
    7200    76.253467   -735.58355    57688.601    -12819.25    923.73541   -13742.985       28.753    237.64884 
    7250    73.668862   -524.28721     57715.32   -12815.655    892.42549   -13708.081    28.853105    229.59376 
    7300    73.258846   -783.52013     57737.83   -12826.005    887.45854   -13713.464    29.152144    228.31591 
    7350    77.265115   -433.49372    57732.106   -12798.114    935.99053   -13734.105    29.317864    240.80171 
    7400    73.074253   -627.17641    57723.273   -12780.423    885.22238   -13665.646    29.568873    227.74062 
    7450    75.383765    -344.4005    57653.071   -12782.541    913.19984   -13695.741    29.778823    234.93836 
    7500    76.553809   -676.94229    57648.374   -12754.732    927.37377   -13682.105    29.973127    238.58488 
    7550    75.855091   -666.32077    57654.946   -12755.528    918.90948   -13674.438    29.999404    236.40728 
    7600    79.559256   -979.87577    57622.221   -12734.911    963.78178   -13698.693     30.28311    247.95155 
    7650    73.902451   -908.38191    57573.383   -12789.842    895.25518   -13685.097    30.384176    230.32175 
    7700    74.326108   -760.96998    57470.231   -12800.267    900.38737   -13700.655    30.722443     231.6421 
    7750    73.686648   -934.28355    57403.635   -12810.487    892.64094   -13703.128    31.195185    229.64919 
    7800    75.914889    -345.6148    57345.717   -12782.088    919.63388   -13701.722    31.267998    236.59364 
    7850    77.390903   -415.96495    57299.774   -12760.381    937.51433   -13697.896    31.639354    241.19373 
    7900    76.663093   -80.972962     57347.65   -12734.285    928.69763   -13662.983    31.932625    238.92547 
    7950    77.743303   -477.58499    57397.862   -12708.213    941.78331   -13649.997    32.463953    242.29201 
    8000    75.220434   -492.65918    57465.001   -12718.827    911.22124   -13630.048    32.702741    234.42933 
    8050    77.807102   -313.77131    57489.259   -12701.065    942.55617   -13643.621     33.17747    242.49085 
    8100    77.416198   -188.77852    57525.041   -12698.735    937.82076   -13636.556    33.460739    241.27257 
    8150    79.767097    -504.0764    57598.838   -12709.667    966.29957   -13675.966    33.495664     248.5993 
    8200    78.496753   -247.97071    57635.829   -12712.421    950.91061   -13663.331    33.696751    244.64019 
    8250    74.654893   -312.38725    57674.204   -12731.061    904.37028   -13635.431     33.79688    232.66678 
    8300    75.656837   -345.36625    57646.997    -12753.15    916.50783   -13669.658    33.744842     235.7894 
    8350    77.267394   -576.01875    57631.897   -12747.762    936.01814    -13683.78    33.855991    240.80881 
    8400    74.644742   -572.87787    57579.773    -12754.46     904.2473   -13658.708    33.893065    232.63515 
    8450    73.579148   -888.95748    57491.606   -12770.756    891.33868   -13662.095    34.231863    229.31415 
    8500    75.753658   -648.52839    57488.038   -12768.064    917.68072   -13685.745    34.384718    236.09115 
    8550    78.104872    -789.1695    57450.958   -12736.085    946.16336   -13682.248    34.571528    243.41886 
    8600    77.910752   -645.98614    57452.942   -12733.783    943.81179   -13677.594    34.924732    242.81388 
    8650    76.681985   -631.44312    57433.571   -12701.873    928.92649     -13630.8    35.155085    238.98435 
    8700    79.535781   -793.99328    57379.284   -12718.679     963.4974   -13682.176    35.693814    247.87838 
    8750    79.548455   -509.20336    57332.732   -12749.662    963.65094   -13713.313    36.054268    247.91788 
    8800    74.745825   -544.76893    57307.067   -12759.884    905.47182   -13665.356    36.205159    232.95018 
    8850    74.775158   -338.87896    57346.713   -12756.699    905.82716   -13662.526    36.549025     233.0416 
    8900    78.789439   -657.21718    57396.129   -12745.248    954.45621   -13699.704     36.60967    245.55236 
    8950    76.408084   -660.53597    57423.565   -12777.578    925.60845   -13703.186     36.92696    238.13072 
    9000    76.107764   -537.79531    57416.818   -12770.048    921.97037   -13692.019    37.483716    237.19475 
    9050    75.337474   -492.12198    57443.511   -12780.849    912.63906   -13693.488    37.576515    234.79409 
    9100    80.439687   -355.73249    57487.088   -12747.339    974.44733   -13721.786    37.657592    250.69547 
    9150    76.699361   -302.14157    57508.268   -12720.261    929.13698   -13649.398    38.100292     239.0385 
    9200    77.567121    -741.1775    57490.111   -12736.034    939.64904   -13675.683    38.372707    241.74293 
    9250    80.434489   -612.70683     57479.15   -12698.861    974.38437   -13673.245    38.826396    250.67927 
    9300    80.291375   -395.10445    57504.724   -12698.622    972.65069   -13671.273    39.233361    250.23324 
    9350    79.081076   -348.55558    57569.917    -12714.67    957.98911   -13672.659    39.701884    246.46127 
    9400    75.158521   -228.32729    57622.875    -12762.59    910.47122   -13673.061    40.033236    234.23637 
    9450    79.023489   -447.64316    57669.259   -12736.817     957.2915   -13694.108    40.283136    246.28179 
    9500    77.137466   -402.26415    57716.467   -12692.774    934.44419   -13627.218     40.56601    240.40388 
    9550    78.399296   -678.23638    57746.386   -12703.824    949.73001   -13653.554    40.508421    244.33646 
    9600    77.576983   -776.94401    57738.528   -12729.914     939.7685   -13669.682    40.530617    241.77366 
    9650    76.310258   -1170.3444    57727.251   -12732.417    924.42338    -13656.84    40.805675    237.82583 
    9700      76.3847   -742.56428    57737.616   -12746.067    925.32518   -13671.392    41.047008    238.05784 
    9750    74.147283   -629.89838    57732.791     -12753.8    898.22107   -13652.021    41.580716    231.08478 
    9800    75.782173   -989.11413    57771.291   -12759.524    918.02616   -13677.551    41.857389    236.18002 
    9850    73.338837   -965.48611    57729.127   -12766.471    888.42755   -13654.899    42.090339    228.56521 
    9900    75.740583   -570.53485    57741.241   -12781.902    917.52234   -13699.424    42.546335    236.05041 
    9950    74.729654   -282.42191      57770.4    -12755.61    905.27593   -13660.886    42.778634    232.89978 
   10000    75.449392   -334.10076    57765.007   -12758.265    913.99484    -13672.26    43.227999    235.14289 
   10050    76.139282   -537.47317     57790.87   -12746.568    922.35218    -13668.92    43.510659    237.29298 
   10100     75.31067    -978.7098    57827.575    -12724.64    912.31436   -13636.954    43.835413    234.71055 
   10150    75.020177   -817.35575    57753.902   -12740.938    908.79533   -13649.733    43.543444    233.80522 
   10200    76.237402    -775.1247    57696.975   -12737.831    923.54081   -13661.372    43.436533    237.59878 
   10250    76.872982   -510.95516    57683.826   -12736.635    931.24022   -13667.875    43.643012     239.5796 
   10300    75.376424   -829.68885    57647.074   -12754.265    913.11091   -13667.376    43.577852    234.91548 
   10350    78.016236    -1111.352    57607.126   -12771.681    945.08962   -13716.771    43.812508    243.14262 
   10400    75.120887   -692.33454    57513.676   -12781.378    910.01533   -13691.393    44.037364    234.11908 
   10450    75.783771   -884.27235    57513.082   -12762.039    918.04551   -13680.084    44.026232      236.185 
   10500    77.927524   -639.54446    57524.673   -12741.013    944.01496   -13685.028    44.251316    242.86615 
   10550    75.584577   -585.39343    57507.023   -12749.201    915.63248   -13664.833    44.449984     235.5642 
   10600    75.673458   -747.00373    57464.448   -12763.762    916.70918   -13680.471    44.599684    235.84121 
   10650    76.799003   -414.78997    57497.578   -12755.048    930.34405   -13685.392    44.987608    239.34904 
   10700     76.68378   -229.79219    57517.509   -12760.656    928.94823   -13689.604    45.535611    238.98994 
   10750    75.775558   -128.93272    57588.654   -12771.845    917.94603   -13689.791     45.67952    236.15941 
   10800    79.263954   -481.32843    57632.029   -12734.707    960.20449   -13694.912     46.21144    247.03122 
   10850    77.425734   -848.91765    57600.359   -12760.047    937.93627   -13697.983    46.601156    241.30229 
   10900    79.605699    -139.2805    57611.588   -12748.205     964.3444   -13712.549    46.771464    248.09629 
   10950    77.051543    -364.5619     57638.54   -12788.941    933.40332   -13722.344    47.186368     240.1361 
   11000    74.697795    -425.3194    57674.918   -12796.024    904.88999   -13700.914    47.413316    232.80049 
   11050    73.206623     -641.903    57670.113     -12807.3    886.82591   -13694.126    47.134188    228.15316 
   11100     77.99291   -847.61093    57658.821   -12788.433    944.80705    -13733.24    47.700373    243.06993 
   11150    78.701104   -488.24525    57607.836   -12760.926    953.38612   -13714.312    48.274827    245.27706 
   11200    77.777768   -592.91197     57633.09   -12759.394    942.20082   -13701.594    48.632081    242.39942 
   11250    77.267203   -584.00585    57624.742   -12780.467    936.01583   -13716.483    48.687608    240.80822 
   11300    79.398904   -555.27803    57628.383   -12750.794    961.83929   -13712.634    48.704886     247.4518 
   11350      78.0256   -485.96584    57636.966   -12753.984    945.20306   -13699.187    48.738779    243.17181 
   11400    76.277952   -328.23682    57631.634     -12768.5    924.03203   -13692.532    48.716446    237.72515 
   11450    76.144236   -570.96178    57685.811   -12771.015    922.41219   -13693.427    48.822372    237.30842 
   11500    78.149348   -440.95799    57768.211   -12778.736    946.70214   -13725.438    48.905657    243.55748 
   11550    75.187615   -725.18074    57733.686   -12794.349    910.82367   -13705.172    49.153421    234.32704 
   11600    78.421145   -704.52034    57739.634   -12779.084    949.99469   -13729.078    49.470873    244.40455 
   11650    74.528965   -562.49866    57699.134   -12797.382    902.84478   -13700.226    49.464767    232.27432 
   11700    77.824004   -701.23379     57693.94   -12778.678    942.76092   -13721.439     49.41177    242.54352 
   11750    77.209725   -579.83114    57677.101   -12770.399    935.31954   -13705.718    49.081086    240.62908 
   11800    77.489592   -684.40059    57647.194    -12760.48    938.70985    -13699.19    49.382162     241.5013 
   11850    80.211112   -635.68857    57641.869   -12745.117    971.67838   -13716.795    49.820005     249.9831 
   11900    77.792176   -505.71438    57639.099    -12763.27    942.37536   -13705.645    50.388288    242.44433 
   11950    77.664598   -458.30014    57658.057   -12780.181    940.82988   -13721.011    50.627632    242.04672 
   12000    76.321634   -1137.4811    57664.641   -12788.859    924.56119   -13713.421    51.357733    237.86129 
   12050    73.209691   -471.27128    57651.949   -12770.168    886.86308   -13657.031    51.714562    228.16272 
   12100    79.420875   -654.25162    57677.091    -12776.56    962.10543   -13738.666    52.082282    247.52027 
   12150    77.891951   -601.80225    57700.978   -12745.459    943.58403   -13689.043    52.459967    242.75528 
   12200    77.763495   -617.47782    57692.447   -12727.407    942.02792   -13669.435    52.947402    242.35494 
   12250    75.694146   -242.22501    57661.538   -12733.836     916.9598   -13650.795    53.107719    235.90568 
   12300    77.760316   -858.56207    57633.063   -12755.936    941.98941   -13697.925    53.671096    242.34504 
   12350    77.070335   -902.28035    57642.509   -12721.143    933.63097   -13654.774    54.050223    240.19466 
   12400    78.871294   -849.62191    57654.661   -12727.723    955.44781    -13683.17    54.011096    245.80747 
   12450    79.978911   -656.32686    57642.108   -12732.618    968.86549   -13701.484    54.449816    249.25943 
   12500    80.051359   -601.23537    57663.922   -12718.051    969.74313   -13687.794    54.689821    249.48522 
   12550    78.319928   -520.82304     57674.41   -12720.975    948.76856   -13669.743    54.864542     244.0891 
   12600    77.882121   -439.13363    57675.668    -12726.73    943.46496   -13670.195    55.031042    242.72465 
   12650    76.059468   -556.98503    57723.364   -12737.984    921.38531   -13659.369    55.256648    237.04423 
   12700    77.610928      -880.62    57751.383   -12745.927    940.17972   -13686.106    55.319019    241.87946 
   12750    76.334214   -272.47273    57751.363   -12776.996    924.71359    -13701.71    55.816717     237.9005 
   12800    75.951955   -568.89003    57750.043   -12785.855     920.0829   -13705.938    56.112082    236.70916 
   12850    77.699351   -712.14288    57755.594   -12787.951    941.25088   -13729.202    56.357287    242.15503 
   12900    77.701677   -419.66008    57738.106   -12803.788    941.27905   -13745.067    56.599919    242.16228 
   12950     75.53174   -478.71616    57725.798   -12792.667    914.99241    -13707.66    56.877918    235.39953 
   13000    75.587399   -358.83497    57764.308   -12813.382    915.66666   -13729.049    57.336949      235.573 
   13050    74.623527   -763.23213    57697.599   -12807.968    903.99031   -13711.958    57.680281    232.56903 
   13100    74.821244   -702.04078     57684.33    -12811.57    906.38545   -13717.955    58.218165    233.18523 
   13150    75.923779   -867.73145    57706.664   -12805.952    919.74157   -13725.693    58.430583    236.62135 
   13200    77.013823   -221.64152    57655.648   -12791.315    932.94637   -13724.261    58.526172    240.01854 
   13250    74.853178   -601.47963    57664.382   -12806.505     906.7723   -13713.277    58.794008    233.28475 
   13300    76.904617   -625.57884    57629.558   -12791.661    931.62346   -13723.284     58.73816    239.67819 
   13350    74.490698   -811.80015    57672.807    -12779.75    902.38122   -13682.131    58.895387    232.15506 
   13400    78.064872   -249.53874    57613.228   -12745.214     945.6788   -13690.893    58.990574     243.2942 
   13450    76.559965   -485.16614    57632.229   -12740.549    927.44834   -13667.998    59.404065    238.60406 
   13500    76.519362   -632.06762    57706.674   -12738.274    926.95648    -13665.23    59.521339    238.47752 
   13550    75.356568   -953.09001    57694.094   -12748.183    912.87037   -13661.053     59.67366     234.8536 
   13600    77.843374   -795.36776    57696.049   -12736.068    942.99557   -13679.063    59.669059    242.60389 
   13650    77.286511   -690.20758     57680.29   -12772.057    936.24973   -13708.306    59.798157    240.86839 
   13700    76.528258   -340.18032    57683.084   -12777.694    927.06424   -13704.758    60.124997    238.50525 
   13750    75.894196    42.014189    57690.596   -12802.677     919.3832    -13722.06    60.446671    236.52915 
   13800     76.02249   -414.37527    57677.809   -12820.429    920.93736   -13741.366    60.527811    236.92899 
   13850    74.552888   -807.79106    57667.739   -12846.615    903.13459    -13749.75    60.226819    232.34888 
   13900     75.42732   -226.35001    57654.875    -12815.79    913.72747   -13729.518    60.195791     235.0741 
   13950    76.939146   -642.43582    57735.039   -12820.014    932.04175   -13752.055    60.325218    239.78581 
   14000    75.691439    -416.7678    57789.114   -12791.063    916.92701    -13707.99    60.468403    235.89725 
   14050    76.949306   -519.53469    57742.156   -12765.165    932.16482    -13697.33    60.554021    239.81747 
   14100    75.277267    -740.5354    57775.909   -12764.864    911.90972   -13676.774    60.635458    234.60645 
   14150    78.848768   -455.23519    57778.539   -12759.765    955.17493    -13714.94    61.157431    245.73727 
   14200    75.521435   -622.38198    57782.236   -12775.387    914.86758   -13690.255    61.066915    235.36742 
   14250    75.497884   -538.01891    57751.784   -12767.258    914.58227    -13681.84    61.126283    235.29402 
   14300    77.726996   -663.43303    57727.703   -12763.609    941.58577   -13705.195    61.319477    242.24119 
   14350    80.737011   -568.92823    57662.911   -12771.622    978.04913   -13749.671     61.26748     251.6221 
   14400    78.394282   -739.63537    57632.119   -12762.209    949.66927   -13711.879    61.383603    244.32083 
   14450    78.092454   -223.71082    57669.219   -12747.939    946.01292   -13693.952    61.292771    243.38016 
   14500    79.033491   -546.91013    57670.294   -12760.182    957.41266   -13717.594    61.465624    246.31296 
   14550    78.642129   -471.15406    57711.924   -12754.397     952.6717   -13707.068    61.441495    245.09326 
   14600    78.081755   -901.49969    57696.031    -12775.57    945.88332   -13721.454    61.384457    243.34682 
   14650    77.991658   -707.78534    57657.433   -12785.451    944.79189   -13730.243    61.254091    243.06603 
   14700    73.576173    -575.6485    57638.662   -12790.386    891.30265   -13681.688     61.40193    229.30488 
   14750    75.084168   -294.56748    57636.587    -12780.46    909.57052   -13690.031    61.782108    234.00465 
   14800    76.971221   -538.64727    57596.601   -12792.559     932.4303   -13724.989    62.116669    239.88577 
   14850    75.274469   -411.73152    57570.179   -12832.909    911.87583   -13744.784    62.257866    234.59773 
   14900    73.809424   -537.97435    57558.456   -12817.345    894.12825   -13711.474     62.26521    230.03182 
   14950    74.403591   -496.52839    57469.383    -12832.82      901.326   -13734.146    62.434359    231.88358 
   15000    76.825306   -747.02766    57516.951   -12784.447    930.66268    -13715.11    62.530563    239.43102 
   15050    76.202319   -230.16171    57571.352   -12778.086    923.11581   -13701.202    62.721933    237.48944 
   15100     76.96429   -709.41923    57575.661    -12804.81    932.34634   -13737.156     62.77831    239.86417 
   15150    73.801011   -277.98367    57533.167   -12828.037    894.02634   -13722.063    62.812468    230.00561 
   15200     72.54586   -439.20877    57540.029   -12837.453    878.82143   -13716.274    62.823413    226.09385 
   15250    75.858143   -565.60952    57567.141   -12841.582    918.94645   -13760.528    62.972251    236.41679 
   15300    72.525267   -695.23359    57555.742   -12834.308    878.57196    -13712.88    63.372147    226.02967 
   15350    73.741968   -670.09529    57521.053   -12824.057    893.31108   -13717.368    63.959907    229.82159 
   15400     76.18643   -382.82879    57516.651   -12802.085    922.92333   -13725.008    64.320793    237.43992 
   15450    78.005732   -587.22587    57485.306   -12770.131    944.96238   -13715.094    64.978978    243.10989 
   15500    76.586713   -766.84834    57459.939    -12762.77    927.77237   -13690.542    65.534183    238.68743 
   15550    79.418071   -730.79653     57442.43   -12753.517    962.07147   -13715.589    65.784022    247.51154 
   15600    78.810621   -537.43666     57443.96   -12745.967    954.71281    -13700.68    66.443856    245.61838 
   15650     77.24133   -510.25968    57406.792   -12747.764     935.7024   -13683.466    66.715898    240.72758 
   15700    73.433402   -844.81467    57385.573   -12749.882    889.57311   -13639.456    66.681565    228.85993 
   15750    77.048363   -426.04476    57365.213   -12728.869    933.36479   -13662.234    66.980535    240.12619 
   15800    77.258963   -843.41215    57343.585   -12713.878      935.916   -13649.794    67.366533    240.78253 
   15850    77.580734   -523.17803    57370.953   -12738.179    939.81394   -13677.993    67.536659    241.78535 
   15900    76.572032   -561.31686    57443.603   -12750.034    927.59452   -13677.629    67.473551    238.64167 
   15950      74.8258   -1172.1403    57456.051    -12732.05    906.44064   -13638.491    67.219946    233.19942 
   16000    76.859233   -499.03544    57393.836    -12722.02    931.07368   -13653.094    67.295222    239.53675 
   16050    76.742415   -621.10005    57417.941   -12705.026    929.65855   -13634.685    67.829696    239.17268 
   16100    77.373632   -684.26148    57452.277   -12677.266    937.30511   -13614.571    68.330283    241.13991 
   16150    77.224507   -274.87671    57401.162   -12676.982    935.49861   -13612.481    68.660372    240.67515 
   16200    79.474903   -401.02558     57408.92   -12690.823    962.75993   -13653.583     68.49995    247.68865 
   16250    75.965075   -493.04679    57427.384   -12690.868    920.24183    -13611.11    68.616994    236.75005 
   16300    77.287765   -643.97431    57460.033   -12700.683    936.26492   -13636.948    69.074782     240.8723 
   16350    76.361873   -383.00081    57484.734   -12691.157    925.04865   -13616.206    69.363174     237.9867 
   16400    78.574874   -364.26619    57490.248   -12706.619    951.85697   -13658.476    69.738222    244.88366 
   16450    78.493237   -848.59097    57471.241   -12712.391    950.86801   -13663.259    70.159769    244.62923 
   16500    77.774082   -610.24048    57381.601   -12712.978    942.15617   -13655.134    70.336403    242.38794 
   16550    79.027797    -369.5172    57366.439    -12678.68    957.34369   -13636.024     70.88225    246.29522 
   16600    82.031389   -441.42218    57364.913   -12676.906    993.72923   -13670.635    71.275972    255.65611 
   16650    78.638739   -370.96565    57376.283    -12666.23    952.63063   -13618.861    71.622298     245.0827 
   16700    78.678251   -216.32803    57408.808   -12665.803    953.10928   -13618.912    71.933858    245.20584 
   16750    78.354151   -355.38533    57420.107   -12667.386    949.18313    -13616.57    71.624894    244.19576 
   16800    82.210161   -494.09453    57389.442   -12647.055    995.89488    -13642.95    71.657991    256.21326 
   16850    78.790903   -321.06042    57420.231   -12651.584    954.47395   -13606.058    71.714472    245.55692 
   16900    80.076172   -291.28297     57380.93   -12664.088    970.04371   -13634.131    71.641162    249.56255 
   16950    79.861855   -234.48143    57413.021   -12670.621    967.44747   -13638.069    71.696575    248.89462 
   17000    79.288428    13.906561    57476.497   -12690.719    960.50098    -13651.22    71.566669    247.10749 
   17050    77.145087   -156.87306    57538.945    -12707.88    934.53652   -13642.417    72.245377    240.42763 
   17100    76.211284   -127.65366     57574.03   -12720.174    923.22441   -13643.398    71.911699    237.51738 
   17150    78.983321   -594.99213    57638.364   -12705.732     956.8049   -13662.537    71.704303    246.15661 
   17200    78.355417   -74.397555    57637.292   -12671.003    949.19847   -13620.202    71.558817    244.19971 
   17250    75.583748   -256.84487    57657.613   -12707.024    915.62243   -13622.646     71.73158    235.56162 
   17300    80.078254   -529.10431    57623.657   -12707.197    970.06894   -13677.266    71.628197    249.56904 
   17350    78.552468   -522.57152    57611.589   -12725.449    951.58555   -13677.034    72.080247    244.81383 
   17400    78.309733   -715.63929    57573.078   -12706.394    948.64505   -13655.039    72.262986    244.05733 
   17450    82.567235   -105.65757     57569.35   -12696.425    1000.2205   -13696.646    72.509897    257.32611 
   17500    77.607876   -848.05855    57582.551   -12741.218    940.14274   -13681.361    72.964873    241.86994 
   17550    78.461601   -591.15765    57621.731   -12741.793    950.48478   -13692.278    73.401772    244.53063 
   17600    77.153194   -227.56874    57639.255   -12746.323    934.63472   -13680.958    73.716273     240.4529 
   17650    76.233833   -787.15582    57660.758   -12762.355    923.49757   -13685.853    74.083507    237.58765 
   17700    76.522688   -934.81188    57621.872   -12781.654    926.99677   -13708.651    74.024541    238.48789 
   17750    76.582134   -163.31785    57641.295   -12755.534     927.7169   -13683.251    73.987185    238.67315 
   17800    78.878466   -333.02726    57683.606   -12761.204    955.53468   -13716.739    74.320314    245.82982 
   17850    78.322173   -697.53994    57701.174   -12768.155    948.79574   -13716.951    74.757181     244.0961 
   17900    80.608213   -627.34757    57752.358   -12761.506    976.48887   -13737.995    75.186204    251.22069 
   17950    77.728583   -599.22491    57742.548    -12757.35    941.60499   -13698.955    74.829751    242.24613 
   18000    74.438538   -736.82144    57725.639   -12748.936    901.74934   -13650.686    74.991163     231.9925 
   18050    77.475776   -619.49137    57733.369   -12721.161    938.54248   -13659.703    75.106399    241.45825 
   18100    77.828036   -697.27628    57691.842   -12736.206    942.80976   -13679.016    75.359632    242.55609 
   18150    76.708372   -787.47274    57625.197   -12736.366    929.24615   -13665.612    75.300964    239.06658 
   18200    79.239228   -531.16838    57595.979   -12737.278    959.90496   -13697.183    75.666948    246.95416 
   18250    77.390583   -438.59908    57594.494   -12716.665    937.51045   -13654.175    75.848223    241.19274 
   18300    79.146198   -734.40071    57579.194   -12721.181    958.77799   -13679.959     75.94656    246.66422 
   18350    77.818375   -455.60538    57590.444   -12714.561    942.69273   -13657.253    76.265253    242.52598 
   18400    81.045654   -319.06814    57630.813   -12709.213    981.78803   -13691.001    76.735284      252.584 
   18450    81.488228   -46.765803    57663.318   -12699.319    987.14938   -13686.468    77.216273    253.96331 
   18500    79.932342   -835.06621    57682.014   -12713.865    968.30135   -13682.166     77.63757    249.11429 
   18550    78.960065   -412.31183    57684.986   -12726.515    956.52318   -13683.038    77.695257    246.08413 
   18600    79.709015    -359.5571    57725.091   -12733.491    965.59597   -13699.087    78.266299    248.41828 
   18650     77.49579   -626.79228    57773.542   -12762.597    938.78494   -13701.382    78.823244    241.52062 
   18700    79.763207   -962.35007    57749.044   -12774.451    966.25245   -13740.703    78.981843    248.58717 
   18750    75.091658   -375.60067    57722.813   -12800.577    909.66125   -13710.238    79.255848    234.02799 
   18800    75.441694   -729.92304    57697.778    -12789.24    913.90159   -13703.142    79.993208     235.1189 
   18850    78.069627   -914.77286    57664.836   -12751.121    945.73641   -13696.858    80.093165    243.30902 
   18900     77.11706   -581.54345    57645.895   -12755.005    934.19699   -13689.202    80.271162    240.34028 
   18950    76.657527   -1124.4588    57616.293   -12764.471    928.63021   -13693.101    80.158056    238.90812 
   19000    75.817717   -1161.9598    57591.669   -12778.114    918.45673   -13696.571    80.582104     236.2908 
   19050    78.746324   -778.57503    57520.742   -12756.263    953.93392   -13710.197     80.56915    245.41799 
   19100     75.44524    -570.6785    57490.316   -12779.169    913.94455   -13693.113    80.261785    235.12995 
   19150    80.124638   -545.48174    57503.521   -12739.123    970.63083   -13709.754    80.327604     249.7136 
   19200    80.693788   -778.17463    57461.115   -12718.026    977.52552   -13695.552    80.777044    251.48739 
   19250    78.273542   -626.96185    57425.939   -12712.932    948.20664   -13661.139    81.041286    243.94454 
   19300    77.141478    -487.8645    57361.401   -12722.553     934.4928   -13657.046    80.772159    240.41639 
   19350    77.121975   -491.13943    57325.383   -12751.176    934.25654   -13685.432    80.975031     240.3556 
   19400    78.536672   -865.70695    57318.693   -12719.733    951.39419   -13671.127    80.710639     244.7646 
   19450    78.570535   -652.87613     57328.14   -12717.577    951.80441   -13669.382     81.13407    244.87013 
   19500    78.245664   -862.45468    57285.344   -12741.731    947.86891   -13689.599    81.381722    243.85765 
   19550    76.684653   -612.70351    57292.744   -12717.988    928.95881   -13646.947    81.971341    238.99266 
   19600    79.372774   -862.50937    57273.854   -12705.498    961.52274   -13667.021    81.707484    247.37036 
   19650    77.990652   -202.07413    57218.722   -12727.082     944.7797   -13671.862    82.098266    243.06289 
   19700    78.049157   -478.69822    57236.185   -12752.491    945.48843    -13697.98    81.976576    243.24523 
   19750    78.320511   -746.83511    57186.552   -12739.587    948.77562   -13688.363    82.294844    244.09092 
   19800    78.287484   -887.65792    57196.784   -12750.055    948.37552    -13698.43    82.541526    243.98799 
   19850    76.148433   -383.86729    57168.584   -12774.884    922.46303   -13697.347    83.150024     237.3215 
   19900    76.197465     -738.706    57140.536   -12780.473    923.05701    -13703.53    83.347321    237.47431 
   19950    77.541151   -413.64403    57091.706   -12770.148    939.33443   -13709.482    83.933051    241.66199 
   20000    77.057051   -996.02723    57090.503   -12745.386    933.47004   -13678.856    84.024909    240.15326 
   20050    78.816121   -449.58667     57071.83   -12722.962    954.77944   -13677.741    84.255259    245.63552 
   20100    79.190856    -533.0645    57091.031   -12716.763    959.31898   -13676.082    84.744339     246.8034 
   20150    75.591846   -693.75125    57097.602   -12727.765    915.72053   -13643.486    85.367183    235.58686 
   20200    78.717272   -316.83601    57089.841   -12700.759    953.58198   -13654.341    85.906002    245.32745 
   20250    80.730164   -155.31021    57131.895   -12671.479    977.96618   -13649.445    86.485097    251.60076 
   20300    79.864424   -411.68484    57186.799   -12686.706    967.47859   -13654.184    86.560288    248.90262 
   20350    78.112437   -362.73452    57236.144   -12700.499      946.255   -13646.754    86.606642    243.44244 
   20400    76.502459    -695.0015    57271.371   -12750.182    926.75171   -13676.934    86.496786    238.42484 
   20450    77.026632   -385.23344    57284.775   -12761.763    933.10155   -13694.865    86.426038    240.05846 
   20500    75.644725   -365.66697      57249.6   -12783.121    916.36111   -13699.482    86.397678    235.75166 
   20550    77.128023   -209.22305     57252.72   -12791.261     934.3298   -13725.591    86.255413    240.37445 
   20600    76.857083    -466.5982    57299.424   -12760.001    931.04763   -13691.049    86.284332    239.53005 
   20650    75.131944   -759.13069    57280.012   -12812.708    910.14928   -13722.858    86.675709    234.15354 
   20700    76.530356   -277.92675    57276.538   -12835.964    927.08966   -13763.054    86.816046    238.51179 
   20750    73.165292   -628.59269    57270.977   -12841.802    886.32523   -13728.127    86.767198    228.02435 
   20800    73.664273   -613.78684    57198.003   -12821.697    892.36989   -13714.067    86.500576    229.57945 
   20850    75.885494   -685.95223    57201.268   -12767.879    919.27779   -13687.156    86.614213    236.50203 
   20900    75.266462   -96.425298    57228.872   -12740.638    911.77882   -13652.417    86.658065    234.57278 
   20950    78.861543   -720.42906    57235.547   -12742.279    955.32969   -13697.609    86.655246    245.77708 
   21000    79.714571    -509.3684     57303.56   -12728.175    965.66327   -13693.839    86.680488    248.43559 
   21050    79.005207   -762.25465    57330.144   -12731.084    957.07004   -13688.154    86.419588    246.22482 
   21100    79.505577   -450.14286    57368.218   -12747.106    963.13152   -13710.238    86.783764    247.78425 
   21150     76.49626   -470.65752    57366.075   -12764.255    926.67661   -13690.931    87.223383    238.40552 
   21200    74.268992   -773.48536    57382.303   -12762.274    899.69546   -13661.969    87.386498     231.4641 
   21250    77.572424   -732.50578    57371.926   -12742.047    939.71328   -13681.761    87.816757    241.75946 
   21300    76.209562   -688.07244    57344.975   -12750.618    923.20355   -13673.822    87.988487    237.51201 
   21350    76.883594   -487.27673    57306.534    -12741.02    931.36878   -13672.389    88.282368    239.61267 
   21400    78.491592   -267.70637    57285.978   -12738.034    950.84809   -13688.882    88.357732     244.6241 
   21450    73.982929   -635.18103    57295.206   -12760.031    896.23009   -13656.261    88.365676    230.57256 
   21500    75.122592   -795.19912    57271.189   -12768.573    910.03598   -13678.609    88.451371     234.1244 
   21550    74.199192   -620.65215    57234.363   -12770.622    898.84991   -13669.472    88.652863    231.24656 
   21600    77.306708   -869.64762    57234.645   -12769.963    936.49439   -13706.457    88.709879    240.93134 
   21650     79.59316   -635.79398    57214.055   -12759.112     964.1925   -13723.305    89.172982    248.05721 
   21700    77.716855   -860.45081    57195.868   -12759.741    941.46291   -13701.204    89.530397    242.20958 
   21750    77.802909   -155.88837    57190.869   -12741.912    942.50537   -13684.417    89.870791    242.47778 
   21800     76.61832   -788.41568    57162.158   -12740.084    928.15526   -13668.239    90.496736    238.78593 
   21850    74.959822   -740.80657    57183.507   -12729.454    908.06419   -13637.518    90.687831    233.61711 
   21900    76.650544   -759.22494    57141.176   -12745.615    928.54561   -13674.161    90.983775    238.88636 
   21950    74.184899     -370.016    57148.469   -12770.821    898.67676   -13669.498    91.159247    231.20202 
   22000    75.805505   -370.89256    57134.274   -12782.824    918.30881   -13701.132    91.362938    236.25274 
   22050    73.415875   -483.89781    57125.241   -12768.569    889.36079    -13657.93    91.586972     228.8053 
   22100    75.045121   -616.63523    57144.696    -12785.88    909.09749   -13694.977    91.542745    233.88295 
   22150    74.639348   -902.73353    57171.335   -12777.514    904.18196   -13681.696    91.645504    232.61834 
   22200    77.242934   -401.92869    57163.994    -12741.65    935.72184   -13677.372    91.480797    240.73258 
   22250    76.878533   -513.06051    57191.606   -12747.518    931.30747   -13678.825    91.636319     239.5969 
   22300    78.641431   -433.56266    57238.419   -12728.227    952.66324   -13680.891    91.731029    245.09108 
   22350    77.331057    304.93226    57269.266   -12716.712    936.78936   -13653.502    92.120266    241.00722 
   22400    80.131958    -786.6409    57322.372   -12690.996    970.71951   -13661.716    92.787322    249.73641 
   22450    78.735937   -160.75541    57367.231   -12697.831    953.80809   -13651.639     92.46069    245.38562 
   22500     79.48352   -336.46874    57423.774   -12707.301    962.86432   -13670.166    92.801551    247.71551 
   22550    76.288638   -263.06542    57521.921   -12726.108    924.16148   -13650.269    92.799711    237.75846 
   22600     77.16595   -737.42251    57522.029   -12729.002    934.78925   -13663.791    93.099385    240.49265 
   22650    78.552133   -640.83963    57504.619     -12726.4    951.58149   -13677.982    93.079433    244.81278 
   22700    78.668371     -430.055    57517.356   -12708.148    952.98959   -13661.137    93.408424    245.17504 
   22750    79.090995   -701.86371     57505.72   -12700.429    958.10927   -13658.538    93.825028    246.49218 
   22800    77.055766   -1010.8615    57489.708   -12728.529    933.45448   -13661.983    94.067275    240.14926 
   22850    77.594648   -327.08538    57457.413   -12737.593     939.9825   -13677.576    94.251576    241.82872 
   22900    76.685092   -1105.6701    57474.307   -12720.614    928.96412   -13649.578    95.210818    238.99403 
   22950    77.119248    -449.2707    57539.008   -12725.722    934.22351   -13659.945    95.737335    240.34711 
   23000    76.907068   -660.51319    57535.318   -12716.306    931.65315    -13647.96    95.759052    239.68583 
   23050    77.258341   -334.00965    57515.214   -12685.982    935.90848   -13621.891    95.860949     240.7806 
   23100    77.091658   -761.65705    57525.569   -12684.805    933.88927   -13618.695    96.117308    240.26112 
   23150    76.097242   -592.67325    57525.634   -12690.035    921.84291   -13611.878    96.567754    237.16196 
   23200    78.514809   -940.37222    57499.737   -12662.759    951.12934   -13613.888    96.985491    244.69646 
   23250    80.324541   -333.23282    57495.984   -12655.202    973.05246   -13628.255    97.436233    250.33661 
   23300     79.07143   -986.91355    57518.652   -12678.874    957.87226   -13636.746    97.713439    246.43121 
   23350    80.574613   -840.45963    57492.191   -12677.657    976.08184   -13653.739     97.96687    251.11597 
   23400    78.436358   -606.30642    57479.995   -12721.622    950.17899   -13671.801    98.193951    244.45196 
   23450    73.742419   -663.68637    57491.242   -12747.799    893.31655   -13641.116    98.529557      229.823 
   23500    74.581466   -318.89846    57403.019   -12754.421    903.48077   -13657.902    98.953694    232.43794 
   23550     78.38537   -333.01829    57428.684   -12751.374    949.56132   -13700.935    99.210797    244.29305 
   23600    72.924795   -92.712724    57477.297   -12767.049    883.41184   -13650.461    99.371282    227.27482 
   23650    75.247527   -910.74759    57498.821   -12775.888    911.54945   -13687.438    99.340099    234.51377 
   23700    76.397753   -599.20836    57568.358   -12746.868    925.48331   -13672.351    99.734883    238.09852 
   23750    75.408027   -514.21293    57647.247   -12754.454    913.49374   -13667.948     99.66554    235.01397 
   23800    77.686579   -534.19681    57642.267   -12749.181    941.09615   -13690.277    100.35278    242.11523 
   23850    74.564434   -366.03266    57677.191   -12750.268    903.27445   -13653.543    100.71805    232.38486 
   23900    75.942486    -506.5964    57734.303    -12729.97    919.96819   -13649.938    100.88912    236.67965 
   23950    78.011443   -628.23617    57746.919   -12743.216    945.03156   -13688.247    100.71376    243.12769 
   24000    77.387542   -848.07241    57731.202   -12771.903    937.47361   -13709.377    100.74601    241.18326 
   24050     75.98873   -533.97071    57699.767    -12771.53     920.5284   -13692.059    101.03699    236.82377 
   24100    75.053694   -626.01476    57682.864    -12792.08    909.20135   -13701.281    101.06015    233.90967 
   24150     79.83195   -662.84251    57658.998   -12778.106     967.0852   -13745.191    101.29824    248.80141 
   24200    74.564181   -642.89264    57563.088   -12775.285    903.27139   -13678.557    101.55633    232.38407 
   24250    73.848424   -589.21715    57538.292   -12800.207    894.60069   -13694.807    101.43164    230.15337 
   24300     75.30611   -906.97039    57537.824   -12790.889    912.25912   -13703.148    102.27491    234.69634 
   24350    77.084473   -285.47867    57566.827   -12780.294    933.80223   -13714.097    102.49498    240.23873 
   24400    76.254385   -454.81613    57615.397   -12761.989    923.74654   -13685.736    102.42248     237.6517 
   24450    74.041799   -516.90208    57680.472   -12744.007    896.94324    -13640.95    102.14854    230.75604 
   24500    76.402916   -762.95089    57669.239   -12743.924    925.54584    -13669.47     102.2716    238.11461 
   24550    78.881946   -457.99495    57677.065    -12728.37    955.57684   -13683.946    102.54237    245.84066 
   24600    76.424487    -606.7778    57635.803   -12738.161    925.80716   -13663.968    102.96966    238.18184 
   24650    76.988894   -781.56304    57603.105     -12727.4    932.64439   -13660.045    102.99681    239.94085 
   24700    78.166282   -791.51367     57575.48   -12760.574    946.90728   -13707.482    103.34623    243.61025 
   24750    78.537883   -674.36316    57572.645   -12753.129    951.40886   -13704.538    103.43715    244.76837 
   24800    75.680898   -854.51474    57593.266   -12749.153    916.79931   -13665.952     103.6027    235.86439 
   24850    77.377442   -1041.8647    57640.295   -12762.906    937.35126   -13700.257    103.79109    241.15178 
   24900    78.590256   -1080.3986    57537.498   -12759.759    952.04331   -13711.802    103.31227     244.9316 
   24950    73.934297   -629.81994    57458.074    -12820.66    895.64096   -13716.301     103.0452      230.421 
   25000     77.07009    -639.7762    57410.103   -12792.819      933.628   -13726.447    103.08917     240.1939 
   25050    74.865564   -527.10179    57422.353   -12806.962    906.92234   -13713.884    103.21443    233.32335 
   25100    77.595719    -657.3593    57407.352   -12801.551    939.99548   -13741.546    103.27307    241.83206 
   25150    74.778629   -426.01587    57464.443   -12792.717    905.86921   -13698.587    103.56773    233.05241 
   25200    79.155356    -696.5244    57486.606   -12797.297    958.88894   -13756.186    103.86486    246.69277 
   25250    77.746118    -373.2671    57520.092   -12802.973    941.81741   -13744.791    104.05363    242.30079 
   25300    75.963816   -885.55835    57513.816   -12794.399    920.22659   -13714.626    104.27859    236.74613 
   25350    72.357339   -863.97105    57482.184   -12831.118    876.53767   -13707.656    104.62562    225.50631 
   25400    76.008522   -384.28202    57470.648   -12856.192    920.76815    -13776.96    104.51303    236.88545 
   25450    77.189618   -409.70905    57480.323    -12836.47    935.07596   -13771.546    104.62238    240.56642 
   25500    73.694477   -436.90891    57509.256   -12870.212    892.73578   -13762.948    104.73537    229.67359 
   25550    72.309847   -697.02204    57534.016   -12877.885    875.96236   -13753.847    105.02031     225.3583 
   25600    73.232617   -704.66225    57520.592    -12876.81     887.1408   -13763.951    105.16204    228.23417 
   25650    73.910239   -409.47567    57506.222   -12831.213    895.34953   -13726.563    105.08545    230.34602 
   25700    73.762839   -994.40382    57481.956   -12811.085    893.56392   -13704.649    105.82416    229.88664 
   25750    75.435435   -643.60491    57455.135   -12795.947    913.82576   -13709.773     106.1986    235.09939 
   25800    75.284461   -881.71754    57426.248   -12779.906    911.99686   -13691.902    106.92642    234.62887 
   25850    75.357693   -830.95258    57434.401   -12804.367      912.884   -13717.251    107.23668     234.8571 
   25900    76.982742   -515.07862    57418.917   -12796.539    932.56987   -13729.109    108.05749    239.92168 
   25950    77.414504   -960.62785    57396.508   -12806.825    937.80024   -13744.625    108.11495    241.26729 
   26000    76.172866   -462.48198    57363.939   -12797.064    922.75902   -13719.823    108.82597    237.39765 
   26050    74.987564    -507.2608    57336.575   -12809.715    908.40025   -13718.115    108.82567    233.70357 
   26100    76.013626   -678.12794    57346.859   -12798.658    920.82998   -13719.488    108.86098    236.90136 
   26150    77.494758    -380.7657    57355.987   -12816.246    938.77243   -13755.019    109.00098     241.5174 
   26200    75.145931   -892.26432    57316.933   -12801.026    910.31871   -13711.344    108.96564    234.19714 
   26250    78.376343   -626.23515    57326.499   -12805.757    949.45197   -13755.209    108.98705    244.26492 
   26300    76.083533   -517.68196    57309.204   -12797.914    921.67684   -13719.591    108.84021    237.11923 
   26350    77.607544   -636.59117    57325.029   -12773.953    940.13873   -13714.092    109.11557    241.86891 
   26400    78.356133   -1003.1358    57313.981   -12764.199    949.20714   -13713.406    109.62154    244.20194 
   26450     77.30592   -1261.4799    57292.352    -12758.99    936.48485   -13695.475     109.6991    240.92888 
   26500    80.091834   -915.38941     57266.39   -12707.633    970.23344   -13677.866    109.83262    249.61136 
   26550    77.161503    3.5336455    57249.896   -12693.417    934.73538   -13628.152    110.20836     240.4788 
   26600     80.26522   -340.19022    57301.474   -12697.992    972.33385   -13670.326    110.35916    250.15173 
   26650    77.382013   -449.15208    57347.362    -12698.34    937.40664   -13635.747    110.54764    241.16603 
   26700    78.201147   -200.26396    57348.812   -12715.935    947.32963   -13663.265    110.69352    243.71891 
   26750    77.460838   -372.26457    57404.429   -12727.698    938.36153    -13666.06    110.86022    241.41169 
   26800    80.960254   -754.30782    57444.197   -12710.007    980.75349   -13690.761    111.07127    252.31785 
   26850     78.06337   -141.38005    57455.808   -12719.895    945.66061   -13665.556    111.24818    243.28952 
   26900    78.291805   -825.30739    57423.486   -12706.834    948.42787   -13655.262    111.47474    244.00145 
   26950    79.779954    -580.4252    57416.824   -12714.184    966.45532   -13680.639     111.8402    248.63936 
   27000    76.202628   -285.45673    57398.006   -12722.707    923.11955   -13645.827    112.26355     237.4904 
   27050    77.840258   -255.79723    57459.909   -12703.992    942.95783    -13646.95    113.01546    242.59418 
   27100    78.405559   -679.37758    57485.279   -12690.061    949.80589   -13639.867    113.23943    244.35598 
   27150    78.955751   -259.70772    57443.542   -12696.789    956.47092    -13653.26     113.5785    246.07068 
   27200    76.762865   -933.09818    57443.421   -12694.799    929.90627   -13624.705    113.86593    239.23641 
   27250    80.062262   -363.56333    57494.597   -12698.577    969.87521   -13668.452    114.02136     249.5192 
   27300    78.903475   -916.77337    57456.787   -12663.554    955.83765   -13619.392    114.69244    245.90776 
   27350    80.840206   -98.043227    57425.776    -12686.68    979.29923   -13665.979    115.33616    251.94371 
   27400    77.337395   -643.40346    57425.928   -12678.321    936.86614   -13615.187    115.89619    241.02697 
   27450    77.963438   -523.20035    57485.408   -12677.041    944.45003   -13621.491    116.31773    242.97808 
   27500    78.856587   -580.58382    57494.213   -12690.432    955.26964   -13645.702    117.10421    245.76163 
   27550     79.28467   -668.40202    57518.961   -12686.947    960.45544   -13647.403    117.49563    247.09578 
   27600    76.982298   -292.01635    57548.649   -12656.625    932.56448    -13589.19    117.90897    239.92029 
   27650    77.704401   -691.21668     57577.39   -12658.188    941.31205     -13599.5    118.35517    242.17077 
   27700    76.709998   -512.64796    57603.376   -12673.561    929.26584   -13602.827     118.9098    239.07165 
   27750    76.383339   -595.39841    57589.811   -12688.076    925.30869   -13613.384    119.09407     238.0536 
   27800    79.247018   -393.56154    57524.061   -12686.275    959.99933   -13646.274    119.13348    246.97844 
   27850    80.296019   -586.95148    57433.415   -12705.213    972.70695    -13677.92    119.66993    250.24772 
   27900    77.399898   -448.86461    57428.802   -12692.962    937.62329   -13630.585    119.87919    241.22177 
   27950    79.106806   -551.22353    57456.288   -12722.099    958.30079     -13680.4    120.27676    246.54146 
   28000    75.761621   -615.88861    57401.008   -12714.112    917.77719   -13631.889    120.63635    236.11597 
   28050     75.36285   -623.87263    57408.175   -12733.701    912.94647   -13646.648    121.18089    234.87318 
   28100     79.13904   -749.97376    57444.473   -12719.185    958.69128   -13677.876    121.10717    246.64192 
   28150    77.340471   -500.78093    57477.564    -12726.29    936.90339   -13663.193    122.13938    241.03656 
   28200    78.605574   -551.80015    57488.082   -12703.253    952.22887   -13655.482      122.244    244.97934 
   28250    75.421105   -550.32467    57454.886   -12732.515    913.65217   -13646.167    122.19154    235.05473 
   28300    78.453887   -870.80191    57413.357   -12704.969    950.39133    -13655.36    122.44933    244.50659 
   28350    79.033087   -915.35216    57411.867   -12692.659    957.40777   -13650.066    122.53727    246.31171 
   28400    78.651829   -1042.0333    57366.288   -12711.603     952.7892   -13664.392    122.71612    245.12349 
   28450    75.077259   -65.530387    57309.735   -12726.482    909.48682   -13635.969    122.57241    233.98311 
   28500     76.47354   -538.19452    57303.126   -12735.033    926.40139   -13661.435     122.7811    238.33471 
   28550    77.863008    41.772776    57338.153   -12736.665    943.23341   -13679.898    123.33155    242.66508 
   28600    76.782024   -677.60626     57301.03   -12753.694    930.13836   -13683.832    123.54412    239.29612 
   28650    74.608703   -366.75943    57339.693   -12745.849    903.81072   -13649.659    123.64864    232.52283 
   28700    76.319776   -812.31703    57328.539   -12742.919    924.53868   -13667.458    123.93926     237.8555 
   28750    75.176929   -789.63375    57336.743   -12756.237    910.69422   -13666.932     124.2582    234.29374 
   28800    77.164841   -916.91766    57316.386   -12731.307    934.77581   -13666.083    124.49029     240.4892 
   28850    73.743666   -433.88022    57300.594   -12780.629    893.33166   -13673.961    124.54829    229.82688 
   28900    74.955245   -832.99832     57291.16   -12778.244    908.00874   -13686.253    124.48373    233.60285 
   28950    75.174777   -191.63284    57365.131   -12733.843    910.66816   -13644.511    124.25852    234.28704 
   29000    75.992571   -678.05659    57398.238   -12732.696    920.57492   -13653.271    124.43166    236.83574 
   29050    77.012993   -856.06564    57407.058   -12730.754    932.93632    -13663.69    124.59036    240.01595 
   29100    78.302803    -1127.335    57361.005   -12719.463     948.5611   -13668.025    124.61304    244.03573 
   29150    75.940367   -735.60697    57345.958   -12723.781    919.94252   -13643.723    124.71555    236.67305 
   29200    78.665645    -294.4616    57347.178    -12725.34    952.95657   -13678.297    124.98552    245.16655 
   29250    76.616884   -549.95414    57359.688   -12719.481    928.13785   -13647.619    124.85486    238.78145 
   29300    77.476215   -334.81028    57389.695   -12749.924    938.54781   -13688.472    124.44947    241.45962 
   29350    74.941552      -715.91    57396.162   -12776.232    907.84286   -13684.075    124.73926    233.56017 
   29400    76.284204   -191.60795    57415.479   -12785.875    924.10777   -13709.982    124.95553    237.74464 
   29450    76.238466   -33.327445    57449.917    -12771.81     923.5537   -13695.364    125.61561    237.60209 
   29500    80.165117   -374.83197    57513.268   -12754.579     971.1212     -13725.7    126.06479    249.83975 
   29550     75.00847   -424.87373    57577.795   -12762.378    908.65351   -13671.031    126.83594    233.76873 
   29600    78.482477   -1012.4964    57585.744    -12750.17    950.73768   -13700.907    127.23231     244.5957 
   29650    77.323612   -482.74314    57578.188   -12734.969    936.69917   -13671.668    127.53926    240.98402 
   29700    77.160303   -461.37964    57557.313   -12731.367    934.72084   -13666.088    127.78993    240.47506 
   29750    78.871857    -620.4416    57529.093    -12738.77    955.45463   -13694.225    127.62954    245.80922 
   29800     77.25857   -567.13129    57539.757   -12739.618    935.91125   -13675.529    128.25346    240.78131 
   29850    77.604212   -358.03959    57587.444   -12745.647    940.09835   -13685.745    128.64146    241.85852 
   29900    76.866126   -410.94379    57598.248   -12753.695    931.15718   -13684.852    129.11723    239.55823 
   29950     80.09045   -121.20647    57609.295   -12763.733    970.21668   -13733.949    128.65276    249.60705 
   30000    77.941972   -809.38152    57535.336    -12778.12    944.18998    -13722.31    129.09581    242.91118 
   30050    75.536462   -478.25554    57488.648   -12795.879    915.04961   -13710.929    129.07737    235.41425 
   30100    77.294052   -1082.7907    57402.975   -12801.428    936.34107   -13737.769    129.55907    240.89189 
   30150    76.811981   -807.10164    57344.069   -12800.328    930.50126    -13730.83    130.24283    239.38949 
   30200    74.415281   -825.91107    57327.743   -12810.784    901.46762   -13712.252    129.83106    231.92002 
   30250    76.264679   -454.39585      57334.1   -12803.415    923.87124   -13727.286    130.34735    237.68379 
   30300    73.356746   -297.21655    57287.601   -12792.459    888.64451   -13681.104    131.04461    228.62103 
   30350     77.43025   -891.97341    57308.549   -12772.353    937.99099   -13710.344    131.05705    241.31636 
   30400    77.476494    -796.9463    57285.952   -12773.499    938.55118    -13712.05    131.20518    241.46048 
   30450    75.148146   -340.82519    57284.451   -12766.175    910.34555   -13676.521    131.03653    234.20404 
   30500    75.829041   -413.69286    57354.211   -12778.171    918.59392   -13696.765    131.37375    236.32609 
   30550    74.086865   -642.57658    57401.516   -12812.169    897.48918   -13709.659    131.72501    230.89649 
   30600    77.231409   -87.930215    57429.479    -12757.84    935.58222   -13693.422    132.34092    240.69666 
   30650    77.532504   -560.63609     57486.29   -12787.925    939.22968   -13727.155    132.58553    241.63504 
   30700    74.713532   -848.66268    57550.088   -12806.144    905.08062   -13711.225    133.13712    232.84953 
   30750    78.190434   -538.96031    57521.127   -12775.146    947.19986   -13722.346    133.69789    243.68552 
   30800    78.242533   -743.45658    57509.309   -12757.192    947.83099   -13705.023    133.76534     243.8479 
   30850    79.869804   -627.92277    57508.978   -12767.369    967.54376   -13734.913     134.1396    248.91939 
   30900    77.453278   -693.65839    57536.684   -12749.795    938.26994   -13688.065    134.49951    241.38813 
   30950    74.961976   -306.24214    57558.127   -12729.551    908.09027   -13637.641    134.53847    233.62383 
   31000    76.867715   -649.13476    57534.476   -12720.265    931.17643   -13651.441    134.80126    239.56319 
   31050    76.718655   -882.78738    57455.351   -12792.978    929.37071   -13722.348    134.67599    239.09863 
   31100    76.101691   -408.65932    57421.718   -12762.593     921.8968    -13684.49    134.55167    237.17582 
   31150    77.934106   -656.60818    57397.063   -12727.911    944.09469   -13672.005     135.4013    242.88666 
   31200    74.600864   -1026.2888     57427.37   -12771.056    903.71577   -13674.772    135.04802     232.4984 
   31250    78.330665   -331.62908    57402.412   -12758.177    948.89862   -13707.076    135.01242    244.12256 
   31300    74.471338   -469.36774    57394.017   -12791.732    902.14668   -13693.879    134.63975    232.09472 
   31350    77.480957   -42.176134    57409.535   -12772.921    938.60524   -13711.526     134.5647    241.47439 
   31400    74.894671   -191.46804    57452.558   -12816.108    907.27494   -13723.383    134.40452    233.41407 
   31450    75.924886   -1007.7073    57436.139   -12784.938    919.75498   -13704.693    133.94342     236.6248 
   31500    76.244127   -976.87898    57392.909   -12758.397    923.62228   -13682.019    133.68357    237.61973 
   31550    76.760386   -292.18253    57421.071   -12741.918    929.87624   -13671.795    133.26874    239.22869 
   31600    76.635607   -396.34814    57390.217   -12745.673    928.36467   -13674.038    133.39487    238.83981 
   31650    75.940972   -889.84633      57374.8   -12728.453    919.94985   -13648.403    133.60083    236.67493 
   31700    76.273631   -309.70134    57355.959   -12717.307    923.97968   -13641.287    133.47518    237.71168 
   31750     80.83539   -747.62896    57368.479   -12693.339    979.24089    -13672.58    133.04514     251.9287 
   31800    78.375604   -926.57044    57376.534   -12684.735    949.44301   -13634.178    132.73561    244.26262 
   31850    80.091397   -1081.0609    57362.258   -12672.472    970.22815   -13642.701     132.3577       249.61 
   31900    80.720342   -315.54879    57376.429    -12677.57     977.8472   -13655.417    132.36043    251.57015 
   31950     79.09278   -660.23556    57407.186   -12688.908    958.13089   -13647.039    132.75789    246.49774 
   32000    78.434113   -796.24358    57382.538   -12686.815    950.15179   -13636.967    133.59667    244.44497 
   32050    80.104764   -388.66758    57348.989   -12682.506    970.39007   -13652.896    133.29318    249.65166 
   32100    77.862703   -898.95624    57333.629     -12658.7    943.22972   -13601.929    133.32488    242.66413 
   32150    80.736618   -912.91885    57334.391   -12646.625    978.04437   -13624.669    133.70412    251.62087 
   32200    76.122279   -479.74175     57316.41   -12645.577    922.14621   -13567.724    133.96655    237.23999 
   32250    77.565062   -840.97862    57295.749   -12631.174     939.6241   -13570.798    134.42968    241.73651 
   32300    76.714316   -254.32647    57358.601   -12660.815    929.31814   -13590.133    134.27747    239.08511 
   32350    76.009185   -556.23543    57405.183    -12680.02    920.77618   -13600.796    134.18996    236.88752 
   32400    78.145103   -975.49484    57402.745   -12694.892    946.65072   -13641.542    134.64566    243.54425 
   32450    76.733283   -701.92973    57417.298   -12687.006    929.54792   -13616.554     135.3756    239.14422 
   32500    77.833857   -583.42018    57432.796   -12726.479    942.88028    -13669.36    135.56669    242.57423 
   32550    77.213347   -828.54722    57386.381   -12718.925    935.36341   -13654.288    135.85754    240.64037 
   32600    74.444805   -1075.7001    57343.604   -12732.158    901.82526   -13633.983    136.02179    232.01203 
   32650    76.620116    -630.7627    57274.867   -12696.684      928.177   -13624.861    136.91612    238.79153 
   32700    76.002373   -859.47903    57199.212   -12719.762    920.69366   -13640.456    136.83673    236.86629 
   32750    78.396588   -796.34622    57091.333   -12690.859    949.69722   -13640.556    136.82568    244.32802 
   32800    74.609687   -652.01457    57021.398   -12688.336    903.82265   -13592.159    136.82274     232.5259 
   32850    77.379818    -1025.593     56942.85   -12697.762    937.38005   -13635.142    136.76035    241.15919 
   32900    76.372438   -749.30931    56912.494   -12698.237    925.17664   -13623.414     137.1893    238.01962 
   32950     76.83499    -860.4363    56867.206   -12700.746    930.77999   -13631.526    137.55421     239.4612 
   33000    78.377603   -498.73023    56876.604   -12696.302    949.46723   -13645.769    137.82745    244.26885 
   33050    77.396313   -714.89084    56864.661   -12702.282    937.57987   -13639.862    137.85623     241.2106 
   33100    76.606709   -539.26034    56861.268   -12712.887     928.0146   -13640.902    138.45174    238.74974 
   33150    75.429766   -132.94692     56835.48   -12719.094    913.75709   -13632.851    139.00641    235.08172 
   33200     75.60234   -524.37067    56895.159   -12750.261    915.84766   -13666.109    139.22051    235.61956 
   33250    76.193751   -271.48085    56916.933   -12767.169    923.01201   -13690.181    139.00128    237.46273 
   33300    75.592156   -433.12346    56943.967   -12750.023    915.72429   -13665.747    139.49848    235.58782 
   33350    76.953878   -412.78003     56967.94   -12738.329     932.2202    -13670.55    140.08908    239.83172 
   33400     77.60073   -244.17713    56971.574   -12729.423    940.05618    -13669.48    140.07955    241.84767 
   33450    77.858605   -236.90689    56976.428   -12719.076    943.18008   -13662.256    140.59243    242.65136 
   33500    77.503315   -478.25208     56995.05   -12720.583     938.8761   -13659.459    140.89342    241.54408 
   33550     78.00165   -179.38018    57005.068   -12715.382    944.91293   -13660.295    141.01784    243.09717 
   33600    77.165789   -332.14893    57063.788   -12714.774     934.7873   -13649.561    141.01619    240.49215 
   33650    77.953914   -528.44033    57110.062   -12691.967    944.33465   -13636.301    141.38504    242.94839 
   33700    79.309928   -339.17591    57151.686   -12688.455    960.76142   -13649.217     141.0527     247.1745 
   33750    78.855055   -331.62792    57185.581   -12685.373    955.25109   -13640.624    141.05981    245.75686 
   33800    77.630579   -13.975838    57232.893   -12679.547    940.41777   -13619.965     140.4193     241.9407 
   33850    77.271573   -444.77161    57311.317   -12683.762    936.06877   -13619.831    140.69604    240.82184 
   33900    77.914333   -726.08501    57348.029   -12698.069    943.85516   -13641.924     140.8257    242.82504 
   33950    78.231922   -770.73479     57357.63   -12701.644    947.70244   -13649.346    140.58466    243.81482 
[...]
   92050    76.410624   -228.14051    57620.833   -12785.729    925.63922   -13711.368    324.47617    238.13863 
   92100    75.951827   -516.90649    57626.648   -12806.347    920.08134   -13726.428    324.52681    236.70876 
   92150    76.039027   -276.64112    57672.661   -12823.625    921.13769   -13744.763    324.53446    236.98053 
   92200    76.508518   -303.59892    57711.432   -12828.778     926.8251   -13755.603    325.10576    238.44372 
   92250    75.449201   -381.41333    57693.939   -12848.333    913.99253   -13762.325    325.47769     235.1423 
   92300    75.392617    -376.3227    57671.137   -12849.793    913.30707     -13763.1    324.83276    234.96595 
   92350    74.518157   -717.03624    57720.833   -12854.735    902.71385   -13757.449    324.81012    232.24064 
   92400    76.087197   -568.23883    57731.882   -12835.672    921.72123   -13757.393    324.72414    237.13065 
   92450     77.27716    -674.2318      57699.9   -12802.066    936.13645   -13738.202    325.09056    240.83925 
   92500     78.74677   -496.15475    57709.419    -12799.12    953.93932   -13753.059     324.7055    245.41938 
   92550    77.547669   -448.00593    57730.311   -12797.476     939.4134   -13736.889    325.17408    241.68231 
   92600    77.059104   -574.50815    57770.424   -12804.599    933.49491   -13738.094    325.43238    240.15966 
   92650    76.175885   -1087.8618    57732.165   -12797.435    922.79558   -13720.231    325.78172    237.40705 
   92700    77.565229   -576.84125    57739.359   -12768.793    939.62612   -13708.419    325.07143    241.73703 
   92750    77.036584   -621.71391    57760.564   -12777.079     933.2221   -13710.301    325.29683    240.08948 
   92800    76.141165   -584.79495    57766.711   -12774.659    922.37499   -13697.034    325.47698    237.29884 
   92850    76.637221   -846.14548    57769.423   -12813.505    928.38422   -13741.889    325.56234    238.84484 
   92900    78.319725   -709.45195    57763.315   -12793.069    948.76609   -13741.835     325.6441    244.08847 
   92950    76.398574   -380.30194    57734.908   -12781.653    925.49324   -13707.147    325.41887    238.10108 
   93000    77.531065   -449.89739    57735.779    -12772.69    939.21225   -13711.902    325.68958    241.63056 
   93050    78.159516   -484.05872    57801.167   -12770.845    946.82531    -13717.67    325.79752    243.58916 
   93100    75.390016    -372.1763    57852.684   -12770.443    913.27556   -13683.719    326.21657    234.95784 
   93150     74.23695   -685.11729    57900.199   -12783.177     899.3073   -13682.485    326.32385    231.36424 
   93200    77.487594    -499.4556     57895.34   -12778.531    938.68565   -13717.217     326.3783    241.49508 
   93250    76.663193   -433.68593    57937.277    -12781.94    928.69885   -13710.639    326.25315    238.92578 
   93300    75.678636   -454.45574    57938.234   -12782.834    916.77191   -13699.606     325.8335    235.85734 
   93350    75.399824   -535.40698    57972.493   -12787.154    913.39437   -13700.549    325.85199    234.98841 
   93400    75.161399   -392.10564     58008.21   -12791.839    910.50609   -13702.345    326.32675    234.24534 
   93450    77.947567   -682.27632    58015.534   -12746.847    944.25777   -13691.105    326.40964    242.92861 
   93500    76.379242    -538.7922    58035.906    -12731.25    925.25906    -13656.51    326.44023    238.04083 
   93550    76.873792   -516.11241    58050.709   -12727.125    931.25004   -13658.375    326.88246    239.58212 
   93600     76.49668   -131.14632     58071.41   -12705.623    926.68171   -13632.304    326.98862    238.40683 
   93650    77.834874   -456.12499    58104.348   -12707.418     942.8926    -13650.31    327.23795     242.5774 
   93700    77.027809   -351.56374    58124.567   -12730.826     933.1158   -13663.942     327.4608    240.06213 
   93750    76.187932   -397.83625    58132.825   -12746.578    922.94153    -13669.52    327.93982     237.4446 
   93800    74.531652   -426.07529    58139.806   -12774.336    902.87733   -13677.213    327.16711     232.2827 
   93850    75.754418   -695.70801     58104.76    -12760.17    917.68993    -13677.86    327.04518    236.09352 
   93900    75.061955   -558.52631    58050.167   -12751.118    909.30142    -13660.42    327.20729    233.93542 
   93950    75.540539   -322.31748    58055.766   -12751.196      915.099   -13666.295    327.35359    235.42696 
   94000    74.880042   -777.62611    58003.685   -12751.898    907.09773   -13658.996    327.41979    233.36847 
   94050    75.766966    -581.3357    57925.769   -12759.274    917.84194   -13677.116    327.25891    236.13263 
   94100    77.193823   -508.24748    57832.515   -12760.066     935.1269   -13695.193    326.79288    240.57952 
   94150    76.703997   -325.90251    57828.341   -12737.266    929.19314   -13666.459    327.33602    239.05295 
   94200    78.276664   -365.40202     57818.21   -12740.964    948.24445   -13689.208    328.18445    243.95426 
   94250    78.748577   -445.41361    57879.483    -12718.66     953.9612   -13672.621     328.2267    245.42501 
   94300    78.488763   -890.91206    57890.268   -12755.494    950.81382   -13706.307    328.23895    244.61529 
   94350    79.008375   -693.05776    57895.834    -12737.62     957.1084   -13694.728    328.30114    246.23469 
   94400    80.380506   -732.15466    57785.754   -12717.046    973.73042   -13690.777    328.30533    250.51103 
   94450    78.580914    -198.5373     57739.49   -12730.715    951.93014   -13682.646    328.46007    244.90248 
   94500    78.750694   -680.80961     57743.91   -12712.951    953.98686   -13666.937    328.26539    245.43161 
   94550    79.465236   -841.93592    57705.448   -12727.621    962.64282   -13690.264    327.81814    247.65853 
   94600    77.646284   -205.71555    57716.014   -12709.269    940.60802   -13649.877    328.15676    241.98965 
   94650    78.119735   -949.90501    57736.495   -12714.849    946.34341   -13661.193     328.4971    243.46519 
   94700    78.460978   -755.58733    57709.216   -12729.074    950.47724   -13679.551    328.53147    244.52869 
   94750    79.573337   -818.32117    57677.173   -12695.391    963.95236   -13659.343    329.24604    247.99543 
   94800    76.300992   -489.97724    57666.125    -12713.61    924.31114   -13637.921      329.496    237.79696 
   94850    78.582966   -757.91109    57651.519   -12709.277    951.95499   -13661.232     329.2195    244.90887 
   94900    80.980932   -631.13478     57659.04   -12661.619    981.00398   -13642.623    329.35663    252.38229 
   94950    80.292229   -879.90644    57664.222    -12675.79    972.66102   -13648.451    329.88643     250.2359 
   95000    79.183587   -472.69128     57681.16   -12688.906    959.23093   -13648.137    330.27176    246.78075 
   95050    79.355879   -416.45385    57719.647   -12711.354    961.31807   -13672.672    330.13853    247.31771 
   95100    77.906348   -680.09604    57741.535   -12718.246    943.75844   -13662.005    330.69321    242.80015 
   95150    75.674074    -387.7204    57714.448   -12726.517    916.71665   -13643.233    330.31171    235.84313 
   95200    79.445666   -549.17319    57753.029   -12730.306    962.40576   -13692.712    330.53692    247.59754 
   95250    77.200058   -617.61913    57769.795   -12727.189    935.20243   -13662.391    330.85045    240.59895 
   95300     75.10242   -448.64991    57813.044   -12734.792    909.79163   -13644.583    331.66791    234.06153 
   95350     74.84697   -736.24982     57771.21   -12755.747     906.6971   -13662.444    331.66954     233.2654 
   95400    77.410779   -506.48843    57734.568   -12731.019    937.75511   -13668.774    331.36354    241.25568 
   95450    78.683192     -488.332    57729.875   -12741.287    953.16913   -13694.456    331.69208    245.22124 
   95500    75.327057   -1044.0452    57750.749    -12712.66    912.51288   -13625.173    332.03166    234.76163 
   95550    78.445949   -684.64419    57730.465   -12727.559    950.29518   -13677.854    332.23051    244.48185 
   95600    73.164913   -639.50412     57740.32   -12740.313    886.32063   -13626.634    332.23565    228.02316 
   95650     77.42105   -728.18549    57723.115   -12721.986    937.87953   -13659.865     333.1257    241.28769 
   95700     79.37785   -495.80554    57749.391   -12689.783    961.58424   -13651.367    334.52238    247.38618 
   95750    79.786715   -379.63542    57800.969   -12703.501    966.53723   -13670.038    334.83512    248.66044 
   95800    78.736571   -1137.2261    57738.296   -12702.272    953.81577   -13656.088    335.03411     245.3876 
   95850    77.328519   -620.92697    57757.818   -12683.239    936.75861   -13619.998     335.6922    240.99931 
   95900    79.618554   -453.87873    57757.897   -12682.874    964.50012   -13647.374    335.58616    248.13635 
   95950    77.652855   -1009.6666    57761.157   -12710.691    940.68762   -13651.379    335.66328    242.01012 
   96000    80.994384   -343.16669    57740.999     -12676.9    981.16694   -13658.067    336.30925    252.42421 
   96050    78.881143   -406.78611    57792.588    -12670.75    955.56711   -13626.317    336.68169    245.83816 
   96100    76.631042    -599.9946    57832.916   -12701.009    928.30937   -13629.318    337.72349    238.82558 
   96150    80.142588   -903.51726    57819.817    -12698.87    970.84828   -13669.718    336.78724    249.76954 
   96200     75.87314   -815.82364     57802.08   -12734.742    919.12813    -13653.87    336.96766    236.46353 
   96250    75.589874   -1031.8142    57824.791   -12749.371    915.69665   -13665.068    337.65234    235.58071 
   96300    77.364117   -805.31442    57822.131   -12763.634    937.18985   -13700.824    338.12038    241.11026 
   96350    74.317964    -975.5567    57793.023    -12807.07    900.28872   -13707.359    338.77711    231.61672 
   96400    76.853359   -500.57274    57823.024     -12808.3    931.00251   -13739.302    338.79698    239.51844 
   96450    76.314802   -502.75534    57869.014   -12809.947    924.47843   -13734.425    338.48147       237.84 
   96500    75.225294   -563.81723    57873.366   -12762.131    911.28012   -13673.411    339.04373    234.44448 
   96550    78.243449   -668.50466    57910.627   -12763.636    947.84208   -13711.478    339.01666    243.85075 
   96600     77.03676   -632.45718    57948.741   -12783.684    933.22424   -13716.908    339.16553    240.09002 
   96650     78.21182   -307.45298    57918.415   -12765.128    947.45892   -13712.587    339.63614    243.75217 
   96700    76.633662   -290.78488    57948.545   -12746.468     928.3411   -13674.809    340.18389    238.83374 
   96750    78.926057   -553.87511    57963.548   -12745.351     956.1112   -13701.462    339.96014    245.97814 
   96800    79.718582   -803.33619    57909.724   -12734.329    965.71186   -13700.041    340.53553     248.4481 
   96850     79.79954   -1193.1876    57877.392   -12723.665    966.69259   -13690.358    340.90068    248.70041 
   96900    75.503141   -766.43809    57843.313   -12765.583    914.64596   -13680.229    340.96851     235.3104 
   96950    76.492716   -486.22545    57805.036   -12756.616    926.63368    -13683.25    341.43752    238.39448 
   97000    76.707437   -1119.6193    57775.939   -12722.765    929.23481   -13651.999    341.78599    239.06367 
   97050    75.039026   -211.90461     57761.18   -12745.806    909.02366    -13654.83    342.00876    233.86396 
   97100    78.599637    -369.8155    57766.115    -12744.16    952.15695   -13696.317    343.61787    244.96083 
   97150    77.506604   -492.79108    57805.515   -12738.563    938.91594   -13677.479    343.61613    241.55433 
   97200    74.700429    -852.0879    57713.767   -12738.355     904.9219   -13643.277    343.83403     232.8087 
   97250    76.740026   -650.59244    57686.802   -12741.883     929.6296   -13671.513    344.09089    239.16523 
   97300    78.482485   -615.08608    57693.537   -12739.257    950.73776   -13689.995    344.80733    244.59572 
   97350    77.785166   -330.41728    57733.469   -12739.587    942.29044   -13681.877    344.50684    242.42248 
   97400    76.903485   -652.12124    57733.079   -12763.828    931.60975   -13695.438    344.06436    239.67467 
   97450    75.617125   -625.69964    57724.821    -12758.76    916.02676   -13674.786    344.71464    235.66564 
   97500    75.408794   -716.88399    57650.771   -12754.143    913.50304   -13667.646    345.06671    235.01636 
   97550    77.564802   -593.52615    57628.641   -12765.404    939.62094   -13705.025    344.63191     241.7357 
   97600    74.614011   -639.75857    57629.964    -12771.92    903.87503   -13675.795    344.61659    232.53937 
   97650    77.316415   -794.18436    57652.424   -12767.915    936.61199   -13704.527     345.7192    240.96159 
   97700    78.066042   -694.47189    57651.703   -12735.235    945.69297   -13680.928    346.14879    243.29785 
   97750    78.106976   -525.68793    57673.269   -12733.045    946.18885   -13679.234    346.31595    243.42542 
   97800    78.510789   -322.18227    57724.694   -12757.217    951.08065   -13708.297    346.83639    244.68393 
   97850    74.273401   -507.99237    57807.914   -12748.267    899.74888   -13648.016    346.62924    231.47784 
   97900    77.937889   -578.42365    57800.332   -12748.367    944.14052   -13692.507    346.49536    242.89845 
   97950    77.929903   -778.98224    57814.616   -12717.386    944.04378   -13661.429    347.42736    242.87356 
   98000    78.609341   -776.16238    57805.952   -12724.367    952.27451   -13676.641    347.94709    244.99108 
   98050    75.791494   -1228.9102      57783.7   -12731.532    918.13907   -13649.671    347.67951    236.20907 
   98100    77.375212   -177.85632    57727.352   -12720.462    937.32425   -13657.786    347.32857    241.14483 
   98150    78.385567   -729.22761    57706.289   -12707.724     949.5637   -13657.288    347.84577    244.29367 
   98200    74.623822   -753.13643    57744.206   -12736.946    903.99387    -13640.94    347.72538    232.56995 
   98250    78.378119   -361.42668    57787.369   -12724.046    949.47347   -13673.519    348.06355    244.27046 
   98300    78.221162   -272.58612     57821.13    -12721.98     947.5721   -13669.552    348.32568    243.78129 
   98350    77.689755   -781.42823    57815.943   -12734.751    941.13463   -13675.886    348.83843    242.12513 
   98400     76.27623   -752.23558    57861.179   -12749.471    924.01116   -13673.482    348.85307    237.71978 
   98450    74.275681   -847.75468    57856.025   -12770.064    899.77649   -13669.841    348.76816    231.48494 
   98500    77.874681   -609.87832     57883.76   -12774.811    943.37483   -13718.186      348.134    242.70146 
   98550    77.856194   -731.85392    57858.625   -12760.686    943.15087   -13703.837    348.04731    242.64384 
   98600    74.442428   -677.41611    57792.614   -12784.023    901.79646    -13685.82    348.21936    232.00462 
   98650    75.561663   -603.42689    57759.519   -12831.139     915.3549   -13746.494    348.70766    235.49279 
   98700    75.765078   -469.25612    57817.354   -12783.022    917.81907   -13700.841    349.06729    236.12675 
   98750    76.714289   -402.60601    57812.538   -12780.997    929.31782   -13710.315    349.54561    239.08502 
   98800    76.410935   -571.86271    57816.367   -12767.547    925.64299    -13693.19    349.85804     238.1396 
   98850    78.884981   -327.79544    57771.633   -12762.312    955.61361   -13717.926    350.54863    245.85013 
   98900    76.432535   -751.04761      57712.4   -12761.939    925.90465   -13687.843    350.55223    238.20692 
   98950    76.984445   -798.28803    57711.287    -12744.02    932.59049    -13676.61    350.77247    239.92698 
   99000    77.241653   -405.20593    57686.928   -12717.592    935.70631   -13653.298     350.8103    240.72859 
   99050    76.549633   -687.14431    57678.235   -12727.601    927.32317   -13654.925    350.63116    238.57186 
   99100    76.630912   -153.31764    57718.044   -12752.053    928.30779   -13680.361    350.75073    238.82517 
   99150     76.61223   -359.19417    57721.604   -12737.182    928.08148   -13665.263    350.35443    238.76695 
   99200    76.524029   -304.77618    57659.027   -12730.112    927.01301   -13657.125    350.77362    238.49207 
   99250     79.01417    -201.7098     57695.08   -12715.938    957.17861   -13673.117    351.49735    246.25275 
   99300    75.375097   -292.64956    57766.546   -12735.283    913.09483   -13648.378     351.5137    234.91134 
   99350    77.273193   -780.79476    57779.528   -12759.495    936.08839   -13695.584    351.39348    240.82688 
   99400    76.814807   -482.29848    57758.966   -12742.672    930.53549   -13673.208    352.10675    239.39829 
   99450    78.061138   -938.53651    57723.795   -12773.391    945.63357   -13719.024    352.90811    243.28256 
   99500    77.802478   -561.34569    57716.567    -12744.03    942.50015    -13686.53    352.64691    242.47643 
   99550    76.822312   -628.83334    57704.549     -12749.5    930.62641   -13680.127    352.81772    239.42168 
   99600    75.657293   -438.84086    57713.722   -12746.503    916.51336   -13663.017    353.26469    235.79083 
   99650    77.442835   -642.46124    57771.071   -12763.823    938.14343   -13701.966    353.07913    241.35558 
   99700    75.831619   -541.50613    57796.332   -12798.244    918.62515   -13716.869     353.1827    236.33413 
   99750    78.507188   -754.45778      57819.6   -12765.671    951.03702   -13716.708    353.97427    244.67271 
   99800    76.497109   -652.53679    57818.042   -12734.913     926.6869     -13661.6    353.77406    238.40817 
   99850    78.391528   -823.00014    57784.757   -12728.293    949.63591   -13677.929    354.17076    244.31225 
   99900    77.697621   -606.60283    57689.704   -12692.356    941.22992   -13633.585    353.69595    242.14964 
   99950    77.199394   -1289.5159    57646.691   -12735.928    935.19438   -13671.122     354.4689    240.59688 
  100000    74.812773   -373.11115    57610.547   -12730.824    906.28283   -13637.107    355.22583    233.15883 
Loop time of 97.5797 on 80 procs for 100000 steps with 4065 atoms

Performance: 442.715 ns/day, 0.054 hours/ns, 1024.803 timesteps/s
99.5% CPU use with 80 MPI tasks x no OpenMP threads

MPI task timing breakdown:
Section |  min time  |  avg time  |  max time  |%varavg| %total
---------------------------------------------------------------
Pair    | 60.826     | 63.273     | 68.27      |  21.7 | 64.84
Neigh   | 0.52255    | 1.2391     | 2.2461     |  63.7 |  1.27
Comm    | 18.068     | 23.936     | 27.181     |  43.7 | 24.53
Output  | 0.1312     | 0.1352     | 0.30769    |   5.3 |  0.14
Modify  | 6.7208     | 7.9709     | 9.0053     |  16.3 |  8.17
Other   |            | 1.026      |            |       |  1.05

Nlocal:        50.8125 ave          86 max          22 min
Histogram: 33 7 0 0 0 0 2 12 15 11
Nghost:        721.450 ave         757 max         684 min
Histogram: 7 7 6 10 9 6 10 10 10 5
Neighs:         0.00000 ave           0 max           0 min
Histogram: 80 0 0 0 0 0 0 0 0 0
FullNghs:      5629.95 ave       11151 max        1214 min
Histogram: 40 0 0 0 0 0 1 8 15 16

Total # of neighbors = 450396
Ave neighs/atom = 110.79852
Neighbor list builds = 5507
Dangerous builds = 0

write_data		${DIR}/data.eq-${NAME}-${TEMP}
write_data		run_16/data.eq-${NAME}-${TEMP}
write_data		run_16/data.eq-het_freeze_16-${TEMP}
write_data		run_16/data.eq-het_freeze_16-240
System init for write_data ...
undump          1

reset_timestep  0

unfix           2
unfix           3
unfix           4


################################################
#######         Run Simulation         #########
################################################

log				${DIR}/log.run_${NAME}
log				run_16/log.run_${NAME}
log				run_16/log.run_het_freeze_16
