LAMMPS data file via write_data, version 16 Mar 2018, timestep = 100000

6489 atoms
2 atom types

0.0000000000000000e+00 4.9219999999999999e+01 xlo xhi
0.0000000000000000e+00 4.9019635930410494e+01 ylo yhi
2.0006180352688254e+00 5.8061381964730529e+01 zlo zhi

Masses

1 18.015
2 12.01

Atoms # atomic

6390 1 1.0621789015015281e+01 1.1661225998178972e+01 2.5815653020976881e+00 -1 1 0
3661 1 8.8510432664825678e-01 2.9867538964400659e+00 8.7032251769902764e+00 1 -1 0
5047 1 2.9798659708992208e+00 1.1989044554331814e+00 8.0743572472476686e+00 1 0 0
1828 1 1.1670734696271682e+01 6.1738089807702359e+00 4.0934977416802685e+00 0 2 0
2145 1 3.3158436748574305e+00 2.4346215866608176e+00 3.3216250809229839e+00 0 0 1
2046 1 6.4299446697247555e+00 9.9873010124486079e+00 3.4057585979652534e+00 1 0 0
5298 1 6.9194629023211931e+00 4.9035789742534774e-01 8.8359112020176909e+00 0 0 0
3158 1 8.7540223813639102e+00 1.8636166087281811e+00 4.5436313841717570e+00 -1 1 1
161 1 1.0550587725885738e+00 6.3331356587930223e+00 2.5016168958790486e+00 0 0 1
1836 1 5.7647347633173851e+00 3.9466667215294575e+00 3.1880854522669546e+00 0 0 0
4754 1 8.0865294068016826e+00 6.1303446275362461e+00 4.0936658221499522e+00 0 0 1
1626 1 1.0293441641345543e+01 7.8924119404989153e+00 5.7541820921742044e+00 1 0 0
5059 1 3.2747710867823443e+00 7.5844119682093751e+00 3.0150740488908365e+00 1 0 1
4982 1 8.3661294622791047e+00 1.1041403783073992e+01 6.6166059757334645e+00 0 0 0
4681 1 3.0328852241605415e+00 7.9510993204430056e+00 5.7204590644326210e+00 1 0 1
3227 1 4.1310359841672835e+00 1.0596406147178174e+01 6.2430889200418624e+00 0 1 1
6418 1 3.2776690028756561e-01 2.2631418644368968e+00 3.1397717163741401e+00 1 1 1
284 1 1.1704848337585611e+01 1.0183823533059954e+01 4.7572731757898392e+00 0 0 1
1792 1 1.2197702981356601e+01 1.1229780726912646e+01 8.8909281728874756e+00 1 1 0
5384 1 3.6643001330252347e+00 3.3167308319895255e+00 6.0597826498351894e+00 1 0 0
2183 1 1.1535245433663540e+01 1.7305362851710657e+00 3.9372390780975404e+00 1 1 1
178 1 7.8358828779256831e+00 2.2808965891939383e+00 7.0725014930939096e+00 0 0 0
1764 1 7.5463076383255894e+00 8.4829833764236326e+00 5.7592678258077203e+00 1 1 1
1707 1 1.1081506250709230e+01 3.8153388318545560e+00 5.8107011878549679e+00 0 0 0
3041 1 6.2945531432488178e-01 8.5130461943394291e+00 7.3995535553959808e+00 0 0 1
3092 1 1.7931251528013481e+00 5.3268019734148302e+00 6.4899892353453206e+00 0 0 1
1870 1 6.2465398919448862e+00 4.3613194669243907e+00 5.9702513373589943e+00 1 1 1
1386 1 5.5223356411690609e+00 6.8011448097595979e+00 7.0742322371179789e+00 0 0 1
3267 1 9.6243608065805599e+00 6.8628905184609659e+00 8.6417960969400678e+00 1 0 1
6191 1 9.7141820262595271e+00 4.0918692189716959e+00 8.4165107751966985e+00 1 2 1
5248 1 1.1187326965489170e+01 1.2200136123134516e+01 6.2618151003180236e+00 0 -1 0
3365 1 7.8115085387075318e+00 1.1925137099906680e+01 2.3330702239945520e+00 0 0 1
4680 1 1.5633659303356997e+00 1.2021020888306841e+01 5.9194671976672151e+00 1 0 1
6221 1 4.0202791693800579e+00 5.6031758936892544e+00 8.9587570193084716e+00 1 0 1
1651 1 5.3199605662912450e+00 1.1631690052390432e+01 8.7670763131595120e+00 0 0 0
157 1 8.0978575948242550e+00 8.0462460009733068e+00 2.0274760601558199e+00 0 0 1
1385 1 8.2728277087407154e+00 7.7430206879475865e+00 1.2112452201953596e+01 1 0 1
1484 1 1.1864692620493230e+01 3.0801317071363363e+00 9.4416556131089742e+00 1 1 1
1435 1 7.7724216523754404e+00 1.0530564416402743e+01 9.1692582583317481e+00 0 1 1
135 1 1.1814128392435116e+01 8.2812455135344045e+00 9.8210013464378818e+00 0 1 0
264 1 1.1679041613792112e+01 1.0415346915399436e+01 1.3301683843932675e+01 0 1 1
195 1 9.8825532830067111e+00 1.0081306085164485e+01 1.1064359114774046e+01 1 1 0
1858 1 7.0041706487164639e+00 7.7673232716353580e+00 9.2104362554711017e+00 0 0 0
5074 1 1.9340597223254907e+00 7.3264899938492336e+00 1.1977941840452656e+01 1 0 0
6416 1 7.6226794824133188e+00 4.1097489418119384e+00 1.0208363916962275e+01 1 1 0
1301 1 9.7690813794926648e+00 6.1159401885095601e+00 1.4013214412639838e+01 0 0 1
3441 1 5.2383960840736457e+00 2.8894228419116157e+00 9.4156936476713859e+00 1 0 0
5033 1 1.2035558980768203e+01 7.9838078066592084e+00 1.4315439933519121e+01 1 -1 0
170 1 4.3763245961119983e+00 7.6125223990497446e+00 1.0901079057524422e+01 0 0 0
3545 1 3.6353082284431810e+00 1.0260228135381499e+01 1.0984644216124476e+01 1 0 0
3240 1 6.9776949574006606e+00 9.1709355593922268e+00 1.4295904423188365e+01 1 1 1
151 1 9.1361748109541026e+00 1.0900559094570369e+01 1.4645926126076782e+01 1 1 0
5341 1 1.1959154591187593e+00 9.3869570712707873e+00 1.0210407117375288e+01 0 0 0
5119 1 1.3435202535248518e+00 1.3300257485718798e+00 1.4123063161283632e+01 0 1 0
6183 1 2.3976829943082687e+00 2.6763695497117848e+00 1.1247725725515732e+01 0 1 1
5230 1 6.2120667163443510e+00 1.5946881303086120e+00 1.4278152228749144e+01 0 0 0
80 1 2.4164476322414603e+00 9.3697721791800603e+00 1.3900699334171826e+01 1 1 0
3619 1 2.8303939401228426e+00 5.3635365275060565e+00 1.5246293162982305e+01 1 0 0
270 1 3.6501996327435924e+00 1.4952797132183668e+00 1.5749671720996680e+01 1 1 0
4761 1 5.9671159718106912e+00 5.8243846097756178e+00 1.2013814245809375e+01 1 0 0
3375 1 4.2759025081031936e+00 3.8906922089368465e+00 1.3306887289600752e+01 1 -1 0
4952 1 8.1656114064092904e+00 2.6316772836834348e+00 1.2568590190934154e+01 0 1 1
6458 1 1.0483917185422627e+01 3.5348034795096241e+00 1.3430725863435192e+01 1 0 1
1800 1 4.6200701589865325e+00 1.0989942684739621e+01 1.3739615075751436e+01 1 0 1
6277 1 1.1066783503910420e+01 3.7416324496262515e-01 1.0193044813148550e+01 1 1 0
1476 1 9.3957272950907456e-01 6.1936906893926080e+00 9.4428733198151455e+00 0 0 1
1630 1 1.0606770451668879e+01 1.1977872659117283e+00 1.5420326369568096e+01 0 0 1
1880 1 8.4671466196651046e+00 5.2875628777763151e-01 1.1028893043626057e+01 1 -1 0
1678 1 4.1375501492289418e-01 4.2511044332563603e+00 1.4595314095399075e+01 1 -1 0
5122 1 1.9614998370502963e+00 5.8621530858937323e+00 2.1258179499865378e+01 0 0 0
3136 1 1.1163614864953499e+00 1.2274811080537702e+00 1.8182665991372208e+01 0 0 1
263 1 7.6174187349052780e-01 5.3295811561766087e+00 1.8573674057093125e+01 1 0 0
6471 1 1.0908266583091943e+00 8.2354856762679542e+00 2.0031957349913124e+01 1 1 1
1852 1 8.0433136194363737e+00 1.1323422706025756e+01 2.1188507907182348e+01 0 0 0
5257 1 1.1644864192962299e+01 8.7397599494274569e+00 1.9282133807626625e+01 0 1 1
3598 1 2.9156749012521894e+00 3.6487800529280991e+00 1.7470805169511639e+01 2 0 0
3379 1 2.6558502972759213e+00 8.1202775778102811e+00 1.6244578582978058e+01 1 1 0
5101 1 6.6408769116060968e+00 7.8806928217234216e+00 1.6835734594154665e+01 1 0 1
355 1 5.4486679305006405e+00 5.1729477663323946e+00 1.7124263988558937e+01 0 0 0
400 1 7.9568399383980744e+00 3.8938881369574450e+00 1.7786300517448804e+01 1 1 0
421 1 4.7503335343950930e+00 8.3388718234287378e+00 2.1423123939696037e+01 1 1 0
3444 1 3.3662013421654149e+00 1.0201886902979794e+01 1.9987592771561769e+01 1 1 0
2036 1 7.4018667996945231e+00 8.7269846161588180e+00 2.1508439427359505e+01 0 0 0
1443 1 4.5955499315591899e+00 9.6819341713539533e+00 1.7541036927145708e+01 0 0 1
3509 1 8.1144191762428122e+00 1.5063493105518406e+00 1.6423703179583413e+01 0 0 0
5004 1 6.2232707203408809e-02 7.5121932284877655e+00 1.7290137041422383e+01 1 0 1
3356 1 9.5081546674049555e+00 1.0747865475941497e+01 1.7444591121286294e+01 1 0 1
5046 1 8.7959280696837077e+00 8.3424531664929411e+00 1.8968645137437615e+01 0 1 1
5151 1 1.1043209329750997e+01 4.5932978269391533e+00 2.0279794356441627e+01 0 0 0
3740 1 2.9630972692485416e+00 2.8424842339111964e+00 2.0272075933700023e+01 1 1 1
6340 1 7.2910767175799922e+00 1.5832912123200653e+00 2.1235608751071041e+01 0 1 1
3169 1 1.0838494782144016e+01 1.0640427655171280e+01 2.1810747210238578e+01 -1 0 0
5039 1 9.7645973133347503e+00 2.1489105640479567e+00 1.9539530481726146e+01 1 1 1
5380 1 4.7737552378359407e+00 5.8611787041849874e+00 1.9966730818124045e+01 1 1 0
1985 1 8.0644113071227297e-01 2.8182360694754158e+00 2.1657918777483737e+01 1 1 1
3499 1 6.8498322337747295e+00 4.4018958998680473e+00 2.0809432906081692e+01 1 0 0
2032 1 8.9225434544116240e+00 6.2123911432010415e+00 2.1510017190842635e+01 1 0 0
3239 1 9.4434032399599328e+00 6.0033924692247327e+00 1.6997182145937131e+01 0 0 0
5412 1 1.1847700128165892e+01 9.1333162450795846e-01 1.8144314306881974e+01 0 0 1
2911 1 1.0072515914570634e+00 1.1595356419414896e+01 1.9084347656175794e+01 0 0 1
4831 1 1.2055446654019992e+01 4.9948809663626532e+00 1.7500594428652665e+01 1 0 0
4777 1 4.6742030903231537e+00 1.2127303896010796e+01 1.6469751720234331e+01 0 1 0
71 1 4.3635116916116967e+00 5.8146282444657282e-01 2.1070631409340780e+01 0 0 0
1680 1 1.0098627965752375e+01 3.6614882896500944e-02 2.1690341957264948e+01 0 0 1
2086 1 3.9667201125487286e+00 2.7527510568968201e+00 2.4429345924163080e+01 1 0 0
3076 1 1.0096871900890816e+00 3.0565535583685870e+00 2.4417168471774502e+01 0 0 1
1485 1 8.4798421144141702e+00 1.4126317841842460e+00 2.4320047099502865e+01 0 0 1
3627 1 1.1383138682061356e+01 1.8508106022550899e+00 2.3655029666241219e+01 1 0 0
3471 1 1.1125054046219136e+01 4.5887769131028548e+00 2.3546801381835166e+01 0 1 0
6138 1 3.5929958192749796e+00 6.5483395913421365e+00 2.4431601401222313e+01 1 1 1
4960 1 7.8635400306669823e+00 4.1991854582558155e+00 2.4104537182208631e+01 0 0 1
1473 1 9.1264869016841832e+00 7.1239287179233202e+00 2.4246530395502230e+01 0 0 1
5012 1 5.3423403513275565e+00 4.9121091333482854e+00 2.3438176521957129e+01 0 1 0
1663 1 4.1793774389131837e+00 9.2170385733126583e+00 2.4246411045100135e+01 2 0 0
1494 1 6.9008014370773996e+00 9.3158597492894728e+00 2.4316624736792580e+01 0 -1 1
5202 1 1.1715124621565979e+01 8.6839575265493778e+00 2.3688284634292181e+01 1 1 1
4880 1 7.1709869463071341e-01 5.9504993891811839e+00 2.3790984307366955e+01 1 0 0
572 2 0.0000000000000000e+00 2.8417180249513345e+00 2.6873879230050981e+01 0 0 0
574 2 0.0000000000000000e+00 0.0000000000000000e+00 2.6873879230050981e+01 0 0 0
576 2 1.2305000000000001e+00 7.1042950623783474e-01 2.6873879230050981e+01 0 0 0
583 2 1.2305000000000001e+00 2.1312885187134998e+00 2.6873879230050981e+01 0 0 0
585 2 2.4610000000000003e+00 2.8417180249513345e+00 2.6873879230050981e+01 0 0 0
587 2 2.4610000000000003e+00 0.0000000000000000e+00 2.6873879230050981e+01 0 0 0
589 2 3.6915000000000004e+00 7.1042950623783474e-01 2.6873879230050981e+01 0 0 0
604 2 3.6914999999999996e+00 2.1312885187134998e+00 2.6873879230050981e+01 0 0 0
606 2 4.9220000000000006e+00 2.8417180249513332e+00 2.6873879230050981e+01 0 0 0
608 2 4.9220000000000006e+00 0.0000000000000000e+00 2.6873879230050981e+01 0 0 0
610 2 6.1524999999999999e+00 7.1042950623783407e-01 2.6873879230050981e+01 0 0 0
633 2 6.1524999999999999e+00 2.1312885187134989e+00 2.6873879230050981e+01 0 0 0
635 2 7.3829999999999991e+00 2.8417180249513345e+00 2.6873879230050981e+01 0 0 0
637 2 7.3829999999999991e+00 0.0000000000000000e+00 2.6873879230050981e+01 0 0 0
639 2 8.6134999999999984e+00 7.1042950623783407e-01 2.6873879230050981e+01 0 0 0
670 2 8.6134999999999984e+00 2.1312885187135002e+00 2.6873879230050981e+01 0 0 0
672 2 9.8440000000000012e+00 2.8417180249513332e+00 2.6873879230050981e+01 0 0 0
674 2 9.8440000000000012e+00 0.0000000000000000e+00 2.6873879230050981e+01 0 0 0
676 2 1.1074500000000002e+01 7.1042950623783330e-01 2.6873879230050981e+01 0 0 0
715 2 1.1074500000000002e+01 2.1312885187135002e+00 2.6873879230050981e+01 0 0 0
579 2 0.0000000000000000e+00 4.2625770374269996e+00 2.6873879230050981e+01 0 0 0
581 2 1.2305000000000001e+00 4.9730065436648339e+00 2.6873879230050981e+01 0 0 0
596 2 1.2305000000000001e+00 6.3938655561404980e+00 2.6873879230050981e+01 0 0 0
600 2 2.4610000000000003e+00 4.2625770374269996e+00 2.6873879230050981e+01 0 0 0
602 2 3.6914999999999996e+00 4.9730065436648339e+00 2.6873879230050981e+01 0 0 0
625 2 3.6914999999999996e+00 6.3938655561404980e+00 2.6873879230050981e+01 0 0 0
577 2 0.0000000000000000e+00 7.1042950623783341e+00 2.6873879230050981e+01 0 0 0
598 2 2.4610000000000003e+00 7.1042950623783341e+00 2.6873879230050981e+01 0 0 0
629 2 4.9220000000000006e+00 4.2625770374269978e+00 2.6873879230050981e+01 0 0 0
631 2 6.1524999999999999e+00 4.9730065436648339e+00 2.6873879230050981e+01 0 0 0
662 2 6.1524999999999999e+00 6.3938655561404980e+00 2.6873879230050981e+01 0 0 0
666 2 7.3829999999999991e+00 4.2625770374269996e+00 2.6873879230050981e+01 0 0 0
627 2 4.9220000000000006e+00 7.1042950623783341e+00 2.6873879230050981e+01 0 0 0
664 2 7.3830000000000009e+00 7.1042950623783341e+00 2.6873879230050981e+01 0 0 0
668 2 8.6135000000000002e+00 4.9730065436648339e+00 2.6873879230050981e+01 0 0 0
707 2 8.6135000000000002e+00 6.3938655561404980e+00 2.6873879230050981e+01 0 0 0
711 2 9.8440000000000012e+00 4.2625770374270004e+00 2.6873879230050981e+01 0 0 0
713 2 1.1074500000000002e+01 4.9730065436648339e+00 2.6873879230050981e+01 0 0 0
754 2 1.1074500000000002e+01 6.3938655561404980e+00 2.6873879230050981e+01 0 0 0
709 2 9.8440000000000012e+00 7.1042950623783341e+00 2.6873879230050981e+01 0 0 0
592 2 0.0000000000000000e+00 8.5251540748539991e+00 2.6873879230050981e+01 0 0 0
594 2 1.2305000000000001e+00 9.2355835810918343e+00 2.6873879230050981e+01 0 0 0
621 2 2.4610000000000003e+00 8.5251540748539991e+00 2.6873879230050981e+01 0 0 0
623 2 3.6915000000000004e+00 9.2355835810918343e+00 2.6873879230050981e+01 0 0 0
590 2 0.0000000000000000e+00 1.1366872099805333e+01 2.6873879230050981e+01 0 0 0
617 2 1.2305000000000001e+00 1.0656442593567498e+01 2.6873879230050981e+01 0 0 0
619 2 2.4610000000000003e+00 1.1366872099805333e+01 2.6873879230050981e+01 0 0 0
654 2 3.6914999999999996e+00 1.0656442593567499e+01 2.6873879230050981e+01 0 0 0
658 2 4.9220000000000006e+00 8.5251540748539991e+00 2.6873879230050981e+01 0 0 0
660 2 6.1524999999999999e+00 9.2355835810918343e+00 2.6873879230050981e+01 0 0 0
703 2 7.3830000000000009e+00 8.5251540748539991e+00 2.6873879230050981e+01 0 0 0
656 2 4.9220000000000006e+00 1.1366872099805333e+01 2.6873879230050981e+01 0 0 0
699 2 6.1524999999999999e+00 1.0656442593567499e+01 2.6873879230050981e+01 0 0 0
701 2 7.3829999999999991e+00 1.1366872099805333e+01 2.6873879230050981e+01 0 0 0
705 2 8.6134999999999984e+00 9.2355835810918343e+00 2.6873879230050981e+01 0 0 0
750 2 9.8440000000000012e+00 8.5251540748539956e+00 2.6873879230050981e+01 0 0 0
748 2 9.8440000000000012e+00 1.1366872099805333e+01 2.6873879230050981e+01 0 0 0
752 2 1.1074500000000002e+01 9.2355835810918343e+00 2.6873879230050981e+01 0 0 0
793 2 1.1074500000000002e+01 1.0656442593567498e+01 2.6873879230050981e+01 0 0 0
795 2 1.2304999999999998e+01 1.1366872099805333e+01 2.6873879230050981e+01 0 0 0
746 2 8.6134999999999984e+00 1.0656442593567498e+01 2.6873879230050981e+01 0 0 0
3309 1 7.5687019703466802e+00 1.1878443151004115e+01 2.3904353834771275e+01 0 0 0
2078 1 2.3251897835862954e+00 1.1255653966690108e+01 2.4118531301186799e+01 2 1 0
5325 1 5.6669204812704272e+00 5.7346818747815897e-01 2.4086119835198009e+01 0 1 0
6192 1 3.2989593550649665e-01 8.4292829465506300e-02 2.3492450378153993e+01 0 1 1
573 2 0.0000000000000000e+00 1.4208590124756650e+00 3.0030999999999988e+01 0 0 0
575 2 0.0000000000000000e+00 0.0000000000000000e+00 3.0030999999999988e+01 0 0 0
584 2 1.2305000000000001e+00 2.1312885187134998e+00 3.0030999999999988e+01 0 0 0
586 2 2.4610000000000003e+00 1.4208590124756650e+00 3.0030999999999988e+01 0 0 0
588 2 2.4610000000000003e+00 0.0000000000000000e+00 3.0030999999999988e+01 0 0 0
605 2 3.6914999999999996e+00 2.1312885187134998e+00 3.0030999999999988e+01 0 0 0
582 2 1.2305000000000001e+00 3.5521475311891644e+00 3.0030999999999988e+01 0 0 0
603 2 3.6914999999999996e+00 3.5521475311891644e+00 3.0030999999999988e+01 0 0 0
901 2 0.0000000000000000e+00 2.8417180249513345e+00 3.3188120769946984e+01 0 0 0
902 2 0.0000000000000000e+00 0.0000000000000000e+00 3.3188120769946984e+01 0 0 0
903 2 1.2305000000000001e+00 7.1042950623783474e-01 3.3188120769946984e+01 0 0 0
907 2 1.2305000000000001e+00 2.1312885187134998e+00 3.3188120769946984e+01 0 0 0
908 2 2.4610000000000003e+00 2.8417180249513345e+00 3.3188120769946984e+01 0 0 0
909 2 2.4610000000000003e+00 0.0000000000000000e+00 3.3188120769946984e+01 0 0 0
910 2 3.6915000000000004e+00 7.1042950623783474e-01 3.3188120769946984e+01 0 0 0
918 2 3.6914999999999996e+00 2.1312885187134998e+00 3.3188120769946984e+01 0 0 0
607 2 4.9220000000000006e+00 1.4208590124756650e+00 3.0030999999999988e+01 0 0 0
609 2 4.9220000000000006e+00 0.0000000000000000e+00 3.0030999999999988e+01 0 0 0
634 2 6.1524999999999999e+00 2.1312885187134989e+00 3.0030999999999988e+01 0 0 0
636 2 7.3829999999999991e+00 1.4208590124756659e+00 3.0030999999999988e+01 0 0 0
638 2 7.3829999999999991e+00 0.0000000000000000e+00 3.0030999999999988e+01 0 0 0
632 2 6.1524999999999999e+00 3.5521475311891644e+00 3.0030999999999988e+01 0 0 0
919 2 4.9220000000000006e+00 2.8417180249513332e+00 3.3188120769946984e+01 0 0 0
920 2 4.9220000000000006e+00 0.0000000000000000e+00 3.3188120769946984e+01 0 0 0
921 2 6.1524999999999999e+00 7.1042950623783407e-01 3.3188120769946984e+01 0 0 0
933 2 6.1524999999999999e+00 2.1312885187134989e+00 3.3188120769946984e+01 0 0 0
934 2 7.3829999999999991e+00 2.8417180249513345e+00 3.3188120769946984e+01 0 0 0
935 2 7.3829999999999991e+00 0.0000000000000000e+00 3.3188120769946984e+01 0 0 0
671 2 8.6134999999999984e+00 2.1312885187135002e+00 3.0030999999999988e+01 0 0 0
673 2 9.8440000000000012e+00 1.4208590124756659e+00 3.0030999999999988e+01 0 0 0
675 2 9.8440000000000012e+00 0.0000000000000000e+00 3.0030999999999988e+01 0 0 0
716 2 1.1074500000000002e+01 2.1312885187135002e+00 3.0030999999999988e+01 0 0 0
669 2 8.6134999999999984e+00 3.5521475311891657e+00 3.0030999999999988e+01 0 0 0
714 2 1.1074500000000002e+01 3.5521475311891644e+00 3.0030999999999988e+01 0 0 0
936 2 8.6134999999999984e+00 7.1042950623783407e-01 3.3188120769946984e+01 0 0 0
952 2 8.6134999999999984e+00 2.1312885187135002e+00 3.3188120769946984e+01 0 0 0
953 2 9.8440000000000012e+00 2.8417180249513332e+00 3.3188120769946984e+01 0 0 0
954 2 9.8440000000000012e+00 0.0000000000000000e+00 3.3188120769946984e+01 0 0 0
955 2 1.1074500000000002e+01 7.1042950623783330e-01 3.3188120769946984e+01 0 0 0
975 2 1.1074500000000002e+01 2.1312885187135002e+00 3.3188120769946984e+01 0 0 0
578 2 0.0000000000000000e+00 5.6834360499026637e+00 3.0030999999999988e+01 0 0 0
580 2 0.0000000000000000e+00 4.2625770374269996e+00 3.0030999999999988e+01 0 0 0
597 2 1.2305000000000001e+00 6.3938655561404980e+00 3.0030999999999988e+01 0 0 0
599 2 2.4610000000000003e+00 5.6834360499026637e+00 3.0030999999999988e+01 0 0 0
601 2 2.4610000000000003e+00 4.2625770374269996e+00 3.0030999999999988e+01 0 0 0
626 2 3.6914999999999996e+00 6.3938655561404980e+00 3.0030999999999988e+01 0 0 0
595 2 1.2305000000000001e+00 7.8147245686161639e+00 3.0030999999999988e+01 0 0 0
624 2 3.6914999999999996e+00 7.8147245686161639e+00 3.0030999999999988e+01 0 0 0
905 2 0.0000000000000000e+00 4.2625770374269996e+00 3.3188120769946984e+01 0 0 0
906 2 1.2305000000000001e+00 4.9730065436648339e+00 3.3188120769946984e+01 0 0 0
914 2 1.2305000000000001e+00 6.3938655561404980e+00 3.3188120769946984e+01 0 0 0
916 2 2.4610000000000003e+00 4.2625770374269996e+00 3.3188120769946984e+01 0 0 0
917 2 3.6914999999999996e+00 4.9730065436648339e+00 3.3188120769946984e+01 0 0 0
929 2 3.6914999999999996e+00 6.3938655561404980e+00 3.3188120769946984e+01 0 0 0
904 2 0.0000000000000000e+00 7.1042950623783341e+00 3.3188120769946984e+01 0 0 0
915 2 2.4610000000000003e+00 7.1042950623783341e+00 3.3188120769946984e+01 0 0 0
628 2 4.9220000000000006e+00 5.6834360499026637e+00 3.0030999999999988e+01 0 0 0
630 2 4.9220000000000006e+00 4.2625770374269978e+00 3.0030999999999988e+01 0 0 0
663 2 6.1524999999999999e+00 6.3938655561404980e+00 3.0030999999999988e+01 0 0 0
665 2 7.3829999999999991e+00 5.6834360499026637e+00 3.0030999999999988e+01 0 0 0
667 2 7.3829999999999991e+00 4.2625770374269996e+00 3.0030999999999988e+01 0 0 0
661 2 6.1524999999999999e+00 7.8147245686161639e+00 3.0030999999999988e+01 0 0 0
931 2 4.9220000000000006e+00 4.2625770374269978e+00 3.3188120769946984e+01 0 0 0
932 2 6.1524999999999999e+00 4.9730065436648339e+00 3.3188120769946984e+01 0 0 0
948 2 6.1524999999999999e+00 6.3938655561404980e+00 3.3188120769946984e+01 0 0 0
950 2 7.3829999999999991e+00 4.2625770374269996e+00 3.3188120769946984e+01 0 0 0
930 2 4.9220000000000006e+00 7.1042950623783341e+00 3.3188120769946984e+01 0 0 0
949 2 7.3830000000000009e+00 7.1042950623783341e+00 3.3188120769946984e+01 0 0 0
708 2 8.6135000000000002e+00 6.3938655561404980e+00 3.0030999999999988e+01 0 0 0
710 2 9.8440000000000012e+00 5.6834360499026637e+00 3.0030999999999988e+01 0 0 0
712 2 9.8440000000000012e+00 4.2625770374270004e+00 3.0030999999999988e+01 0 0 0
755 2 1.1074500000000002e+01 6.3938655561404980e+00 3.0030999999999988e+01 0 0 0
706 2 8.6135000000000002e+00 7.8147245686161639e+00 3.0030999999999988e+01 0 0 0
753 2 1.1074500000000002e+01 7.8147245686161639e+00 3.0030999999999988e+01 0 0 0
951 2 8.6135000000000002e+00 4.9730065436648339e+00 3.3188120769946984e+01 0 0 0
971 2 8.6135000000000002e+00 6.3938655561404980e+00 3.3188120769946984e+01 0 0 0
973 2 9.8440000000000012e+00 4.2625770374270004e+00 3.3188120769946984e+01 0 0 0
974 2 1.1074500000000002e+01 4.9730065436648339e+00 3.3188120769946984e+01 0 0 0
995 2 1.1074500000000002e+01 6.3938655561404980e+00 3.3188120769946984e+01 0 0 0
972 2 9.8440000000000012e+00 7.1042950623783341e+00 3.3188120769946984e+01 0 0 0
591 2 0.0000000000000000e+00 9.9460130873296642e+00 3.0030999999999988e+01 0 0 0
593 2 0.0000000000000000e+00 8.5251540748539991e+00 3.0030999999999988e+01 0 0 0
620 2 2.4610000000000003e+00 9.9460130873296642e+00 3.0030999999999988e+01 0 0 0
622 2 2.4610000000000003e+00 8.5251540748539991e+00 3.0030999999999988e+01 0 0 0
616 2 1.2305000000000001e+00 1.2077301606043163e+01 3.0030999999999988e+01 0 0 0
618 2 1.2305000000000001e+00 1.0656442593567498e+01 3.0030999999999988e+01 0 0 0
653 2 3.6914999999999996e+00 1.2077301606043163e+01 3.0030999999999988e+01 0 0 0
655 2 3.6914999999999996e+00 1.0656442593567499e+01 3.0030999999999988e+01 0 0 0
912 2 0.0000000000000000e+00 8.5251540748539991e+00 3.3188120769946984e+01 0 0 0
913 2 1.2305000000000001e+00 9.2355835810918343e+00 3.3188120769946984e+01 0 0 0
927 2 2.4610000000000003e+00 8.5251540748539991e+00 3.3188120769946984e+01 0 0 0
928 2 3.6915000000000004e+00 9.2355835810918343e+00 3.3188120769946984e+01 0 0 0
911 2 0.0000000000000000e+00 1.1366872099805333e+01 3.3188120769946984e+01 0 0 0
925 2 1.2305000000000001e+00 1.0656442593567498e+01 3.3188120769946984e+01 0 0 0
926 2 2.4610000000000003e+00 1.1366872099805333e+01 3.3188120769946984e+01 0 0 0
944 2 3.6914999999999996e+00 1.0656442593567499e+01 3.3188120769946984e+01 0 0 0
657 2 4.9220000000000006e+00 9.9460130873296642e+00 3.0030999999999988e+01 0 0 0
659 2 4.9220000000000006e+00 8.5251540748539991e+00 3.0030999999999988e+01 0 0 0
702 2 7.3830000000000009e+00 9.9460130873296642e+00 3.0030999999999988e+01 0 0 0
704 2 7.3830000000000009e+00 8.5251540748539991e+00 3.0030999999999988e+01 0 0 0
698 2 6.1524999999999999e+00 1.2077301606043163e+01 3.0030999999999988e+01 0 0 0
700 2 6.1524999999999999e+00 1.0656442593567499e+01 3.0030999999999988e+01 0 0 0
946 2 4.9220000000000006e+00 8.5251540748539991e+00 3.3188120769946984e+01 0 0 0
947 2 6.1524999999999999e+00 9.2355835810918343e+00 3.3188120769946984e+01 0 0 0
969 2 7.3830000000000009e+00 8.5251540748539991e+00 3.3188120769946984e+01 0 0 0
945 2 4.9220000000000006e+00 1.1366872099805333e+01 3.3188120769946984e+01 0 0 0
967 2 6.1524999999999999e+00 1.0656442593567499e+01 3.3188120769946984e+01 0 0 0
968 2 7.3829999999999991e+00 1.1366872099805333e+01 3.3188120769946984e+01 0 0 0
749 2 9.8440000000000012e+00 9.9460130873296642e+00 3.0030999999999988e+01 0 0 0
751 2 9.8440000000000012e+00 8.5251540748539956e+00 3.0030999999999988e+01 0 0 0
745 2 8.6135000000000002e+00 1.2077301606043163e+01 3.0030999999999988e+01 0 0 0
747 2 8.6134999999999984e+00 1.0656442593567498e+01 3.0030999999999988e+01 0 0 0
792 2 1.1074500000000002e+01 1.2077301606043163e+01 3.0030999999999988e+01 0 0 0
794 2 1.1074500000000002e+01 1.0656442593567498e+01 3.0030999999999988e+01 0 0 0
970 2 8.6134999999999984e+00 9.2355835810918343e+00 3.3188120769946984e+01 0 0 0
993 2 9.8440000000000012e+00 8.5251540748539956e+00 3.3188120769946984e+01 0 0 0
994 2 1.1074500000000002e+01 9.2355835810918343e+00 3.3188120769946984e+01 0 0 0
991 2 8.6134999999999984e+00 1.0656442593567498e+01 3.3188120769946984e+01 0 0 0
992 2 9.8440000000000012e+00 1.1366872099805333e+01 3.3188120769946984e+01 0 0 0
1015 2 1.1074500000000002e+01 1.0656442593567498e+01 3.3188120769946984e+01 0 0 0
1016 2 1.2304999999999998e+01 1.1366872099805333e+01 3.3188120769946984e+01 0 0 0
5332 1 4.2229641466666772e+00 2.5230416870562213e+00 3.5817469282315955e+01 1 1 -1
2013 1 1.3082041155634414e+00 2.3484673696531364e+00 3.5528974324398504e+01 0 1 0
5072 1 6.8271397248228718e+00 6.9103346273672708e+00 3.5743540642776509e+01 1 0 -1
88 1 3.9657235592103013e+00 8.0044980202532319e+00 3.5893096768935422e+01 0 0 0
1497 1 1.3249122206292752e+00 6.6147220970701373e+00 3.5631494155728006e+01 2 0 0
4615 1 8.7919422353679302e+00 2.3139533700009736e+00 3.5802309934926399e+01 2 0 0
6127 1 6.7876233133799149e+00 4.0057317727709947e+00 3.5731234957433472e+01 0 0 0
6404 1 1.0024870258685025e+01 7.3168020639058398e+00 3.5798675093796817e+01 -1 1 0
5270 1 1.1048621187119503e+01 3.9677433351576408e+00 3.5702918419536388e+01 1 1 0
5339 1 3.7335423790085103e+00 1.0678651812928578e+01 3.6324357032215417e+01 1 0 0
6174 1 8.3800789719315372e+00 9.6441310951451751e+00 3.5783279815039506e+01 0 0 0
6112 1 6.2058596309487069e+00 1.1478674809213331e+01 3.6160456427450740e+01 1 1 0
2864 1 1.0835760547915394e+01 1.0878945545824594e+01 3.5751297451316020e+01 -1 0 0
6132 1 1.1935506343008422e+01 1.1029757290157323e+00 3.6470517466231186e+01 0 1 0
2866 1 5.5245471079976589e+00 2.3980945556068889e-02 3.5975110209955972e+01 0 1 0
3759 1 4.0121853239155501e+00 1.9202193729346835e+00 3.9739468351665451e+01 -1 1 0
63 1 9.2647631823258116e+00 1.8772602834845229e+00 3.8427766728440702e+01 1 0 0
1287 1 4.2945878756281903e+00 4.2887078131077292e+00 3.7897487643867095e+01 1 0 0
2045 1 1.0979210698754894e+01 1.0860084918476945e+01 3.8359030412059511e+01 1 1 -1
1431 1 7.3177790576431283e+00 1.1412940173435336e+01 3.8898412391971789e+01 0 0 0
4514 1 1.6454875142706176e+00 5.8733781496957800e+00 3.8345336621622096e+01 1 1 0
4553 1 6.6751773673401953e+00 2.5278220408208600e+00 4.0552795307763134e+01 0 0 0
3640 1 3.4557777859616650e+00 6.4266252104930981e+00 4.2335623962709548e+01 1 1 0
1259 1 6.0509525667411976e+00 7.1771387899728429e+00 3.8490261076776960e+01 0 0 0
3307 1 1.0043326494922107e+01 5.5178499515076282e+00 3.7894148124716409e+01 0 -1 -1
3064 1 1.9661360304676783e+00 8.7112330541691261e+00 4.2969165506463924e+01 0 0 -1
6107 1 3.5987304174701928e+00 1.0074729497351953e+01 4.0841273519589180e+01 0 0 0
6421 1 3.4987618109580159e+00 7.5254262241794816e+00 3.9928770080338026e+01 1 1 0
20 1 1.1966148427054309e+01 4.0574065175710512e+00 3.9363046212512160e+01 -1 1 -1
2905 1 8.4914351793429876e+00 8.9844625321390463e+00 3.8553712712452111e+01 0 1 0
5016 1 9.0546477621135555e+00 8.4229272395380672e+00 4.1283386401569970e+01 -1 0 0
6250 1 1.3112117457112058e+00 2.5314167725569310e+00 3.8497218266467982e+01 0 1 0
2898 1 2.1337942803608017e+00 3.8111338881397940e+00 4.2254112511963484e+01 1 1 -1
1469 1 2.5639927050535753e+00 1.1531403017089707e+01 3.8417975905577052e+01 0 0 0
1690 1 2.3626204971867293e+00 9.8047989154674287e-01 4.1950687966797702e+01 0 1 -1
6319 1 7.7779495101574616e+00 3.1893357779820786e+00 4.3772002354351102e+01 1 1 0
2977 1 5.4740526830592167e+00 1.5955045784520105e+00 4.3116833973113330e+01 0 0 0
2933 1 9.9570769164099051e+00 1.3974491297182785e+00 4.3168968973109060e+01 0 1 0
1291 1 9.3133334320015955e+00 3.3860885778377199e+00 4.1096368028269467e+01 0 0 0
2209 1 7.9307263786891493e+00 9.9426109904295945e+00 4.3148549355539956e+01 0 0 -1
1861 1 7.3271408895396988e+00 4.4567929004528199e+00 3.8528227738498359e+01 2 1 -1
4574 1 9.4409980195002241e+00 6.1982027680793514e+00 4.2709762122501061e+01 1 1 0
4618 1 6.1142068928254367e-01 1.1138198842608071e+01 4.0931122315834202e+01 -1 0 0
6426 1 1.1608574054823718e+01 8.0694273458247263e+00 3.8805745092278272e+01 0 1 -1
2197 1 1.1501732486724261e+01 3.9644044599514658e+00 4.3370890520983977e+01 -1 1 0
6442 1 6.0330518799723603e+00 5.4165659207134729e+00 4.3310234359337485e+01 1 1 -1
1759 1 1.1922101644621117e+01 8.2063391065446147e+00 4.1786418966337351e+01 0 1 0
2874 1 6.0479517047008873e+00 1.1078985896115073e+01 4.1371498077353081e+01 0 1 -1
523 1 1.2193836958594915e+01 1.1312375737890572e+00 3.9221612101253939e+01 -1 1 0
1491 1 7.8128176923240398e+00 1.3302951952420017e-01 4.2131482699229792e+01 1 0 0
5157 1 5.7858018824973954e+00 7.9095889022870853e+00 4.8118496062963217e+01 0 0 -1
5410 1 1.2153755783272091e+00 3.7966620239446023e+00 4.7429419899348815e+01 1 2 0
2989 1 5.3045959185271254e+00 2.5894603846412343e+00 4.8095724925833807e+01 1 0 -1
1466 1 1.0341740583685890e+01 1.1978380947840297e+00 4.6161847406089038e+01 0 1 0
6393 1 8.3391320094369057e+00 1.8035050605762393e+00 4.8356700933029856e+01 -1 1 -1
3193 1 2.3655113464957095e-01 5.6172238293788643e+00 4.5514519895986467e+01 1 1 0
6388 1 3.2480212221782874e+00 9.2842351071629263e+00 4.9198843326875519e+01 1 1 -1
6320 1 5.2743463405925688e+00 5.0354629753297404e+00 4.6341112656719062e+01 1 0 0
222 1 8.5102994903267604e+00 6.6021385297111559e+00 4.7877280144640594e+01 0 1 -1
1388 1 9.2164159828069714e+00 7.9181617045717667e+00 4.5438787370443677e+01 0 0 -1
4860 1 8.1004579784476132e+00 4.1476722846511969e+00 4.6462626326815695e+01 0 1 -1