
# Create simulation box and atoms

read_data data.ML_graphite_m500atm_240K
  orthogonal box = (0 0 2.16312) to (49.22 49.0196 57.8989)
  4 by 4 by 8 MPI processor grid
  reading atoms ...
  6489 atoms
  reading velocities ...
  6489 velocities
group water type 1
3729 atoms in group water
group graphite type 2
2760 atoms in group graphite

# Define potential

pair_style sw
pair_coeff * * MLC_e.sw mW C


# Fix graphite atoms in place

fix 5 graphite setforce 0.0 0.0 0.0
velocity graphite set 0.0 0.0 0.0


# Equilibration of molecular water

# Add velocity/set timestep

velocity	    water create ${TEMP} ${SEED} rot yes dist gaussian
velocity	    water create 240 ${SEED} rot yes dist gaussian
velocity	    water create 240 21555 rot yes dist gaussian
timestep	    5.0

# Define output

compute			1 water msd
compute			3 water temp
thermo	    	50
thermo_style	custom step temp press vol etotal ke pe c_1[4] c_3

# Neighbor lists

neigh_modify    delay 0 every 1 check yes

# Set fixes

fix             1 water momentum 10 linear 1 1 1 rescale
fix             2 water nve
fix             3 water temp/csvr ${TEMP} ${TEMP} 500.0 ${SEED}
fix             3 water temp/csvr 240 ${TEMP} 500.0 ${SEED}
fix             3 water temp/csvr 240 240 500.0 ${SEED}
fix             3 water temp/csvr 240 240 500.0 21555
fix             4 water press/berendsen z ${PRES} ${PRES} 1000.0 modulus 20000
fix             4 water press/berendsen z -500 ${PRES} 1000.0 modulus 20000
fix             4 water press/berendsen z -500 -500 1000.0 modulus 20000

# Run 0.5 ns equilibration

dump		    1 all atom 2000 ${DIR}/eq.${NAME}-${TEMP}.dump
dump		    1 all atom 2000 run_14/eq.${NAME}-${TEMP}.dump
dump		    1 all atom 2000 run_14/eq.het_freeze_14-${TEMP}.dump
dump		    1 all atom 2000 run_14/eq.het_freeze_14-240.dump

reset_timestep  0

run	            100000
Neighbor list info ...
  update every 1 steps, delay 0 steps, check yes
  max neighbors/atom: 2000, page size: 100000
  master list distance cutoff = 6.67472
  ghost atom cutoff = 6.67472
  binsize = 3.33736, bins = 15 15 17
  1 neighbor lists, perpetual/occasional/extra = 1 0 0
  (1) pair sw, perpetual
      attributes: full, newton on
      pair build: full/bin/atomonly
      stencil: full/bin/3d
      bin: standard
Per MPI rank memory allocation (min/avg/max) = 4.068 | 4.178 | 4.493 Mbytes
Step Temp Press Volume TotEng KinEng PotEng c_1[4] c_3 
       0    137.90382   -585.46729    134476.24   -35583.071    2666.9904   -38250.061            0          240 
      50    142.46202   -488.07024    134538.77   -35605.597    2755.1436    -38360.74   0.50669436    247.93283 
     100    141.82089   -523.36463    134611.62    -35602.17    2742.7444   -38344.915   0.83482707    246.81703 
     150     139.0113   -440.64411    134766.38   -35668.557    2688.4084   -38356.966    1.0376222    241.92739 
     200    136.50356   -511.85616    134844.54   -35754.273    2639.9099   -38394.183    1.1808644    237.56306 
     250    136.23348   -823.83166    134878.71   -35719.173    2634.6868    -38353.86    1.3588157    237.09303 
     300    139.51141   -617.99744    134865.49   -35711.928    2698.0802   -38410.008    1.5127824    242.79775 
     350     136.4111   -517.63971    134923.66   -35747.563    2638.1219   -38385.685    1.6733184    237.40215 
     400    137.92984   -477.29697    134986.11   -35758.144    2667.4935   -38425.637    1.8938116    240.04527 
     450    135.23864   -422.30746    135024.98   -35798.574    2615.4471   -38414.021    2.1165704    235.36167 
     500    135.33535   -780.35357    135196.79   -35791.173    2617.3173   -38408.491    2.3349562    235.52997 
     550    135.54945   -514.03444    135214.35   -35783.551    2621.4579   -38405.009    2.4812819    235.90258 
     600    139.10221   -917.03407    135219.81   -35817.185    2690.1666   -38507.351    2.6226677    242.08561 
     650    138.17963   -885.84823    135166.57   -35837.293    2672.3243   -38509.617    2.7954199    240.47999 
     700    135.93542   -754.90603    135089.22   -35799.575    2628.9224   -38428.498    3.0251397     236.5743 
     750    137.12528   -714.39109    135040.97   -35751.646    2651.9338   -38403.579    3.2055328    238.64507 
     800    135.32818    -907.1564    134997.14   -35742.882    2617.1787   -38360.061    3.4124718     235.5175 
     850    136.18448   -740.01122     134994.7   -35717.947    2633.7391   -38351.687     3.598242    237.00775 
     900    136.40819   -691.07621    135102.13   -35712.914    2638.0656   -38350.979    3.7950723    237.39709 
     950    139.44294   -714.77326    135063.35    -35671.93    2696.7561   -38368.686     3.986169    242.67859 
    1000    138.29553     -742.555    135064.78   -35664.523    2674.5659   -38339.089    4.1841148    240.68171 
    1050    137.68839   -849.96531    135110.99   -35678.838     2662.824   -38341.662    4.3729595    239.62508 
    1100    139.70219    -551.6322    135061.92   -35684.626    2701.7699   -38386.396    4.4857199    243.12978 
    1150    139.94668   -889.33726    135074.28   -35663.393    2706.4983   -38369.891      4.65893    243.55528 
    1200    140.61594   -741.58087    135047.72   -35697.249    2719.4414   -38416.691    4.7614472    244.72002 
    1250    138.55923   -611.36027    135126.97   -35681.895    2679.6656   -38361.561    4.8961137    241.14063 
    1300    139.19996   -626.51657    135236.26   -35706.919     2692.057   -38398.976    5.0486059    242.25572 
    1350    137.10625   -628.16403    135266.36   -35714.681    2651.5656   -38366.246    5.1763289    238.61194 
    1400    137.17081     -645.447    135253.54   -35714.096    2652.8142    -38366.91    5.3471897     238.7243 
    1450    140.22899   -560.96681    135269.39   -35698.264    2711.9579   -38410.221    5.4485342    244.04659 
    1500    137.47976   -782.86982    135220.23   -35700.182    2658.7892   -38358.972    5.7230105    239.26199 
    1550      138.539   -782.83052    135217.54   -35704.488    2679.2745   -38383.763    5.9741355    241.10543 
    1600    139.46251   -591.73169    135185.58   -35752.999    2697.1346   -38450.133    6.1572711    242.71265 
    1650    141.27543   -857.54475    135220.28   -35755.666    2732.1956   -38487.862    6.2575971    245.86776 
    1700    140.52319   -801.01925    135213.86   -35740.947    2717.6476   -38458.595    6.4015384     244.5586 
    1750    138.34679   -585.89021    135292.36   -35714.487    2675.5572   -38390.044     6.510816    240.77092 
    1800    140.63823   -779.67813    135292.06   -35731.674    2719.8725   -38451.547    6.6891626    244.75882 
    1850    141.56711   -558.14111    135367.22   -35724.926    2737.8365   -38462.763    6.8604323    246.37538 
    1900    135.83132   -467.36444    135456.31   -35750.937    2626.9092   -38377.846    6.9277926    236.39313 
    1950    138.34839   -923.70626    135590.17   -35768.569    2675.5881   -38444.157    7.0255687     240.7737 
    2000    134.15688   -782.96015    135632.13   -35842.671    2594.5264   -38437.197    7.1629886    233.47903 
    2050    135.26293    -854.4252    135636.64   -35845.993    2615.9169   -38461.909    7.2679356    235.40395 
    2100    135.90148    -598.9982    135672.21   -35826.889     2628.266   -38455.155    7.4605349    236.51523 
    2150    135.50386   -624.27265    135661.22   -35784.692    2620.5763   -38405.268    7.5588511    235.82324 
    2200    137.47869   -914.31435    135667.97   -35816.988    2658.7685   -38475.756    7.7508782    239.26012 
    2250    136.13075   -833.79593     135492.9   -35777.783    2632.7001   -38410.483    7.9567182    236.91425 
    2300    136.53212   -973.35563    135439.71   -35736.229    2640.4623   -38376.691    8.0874917    237.61277 
    2350    137.14508   -976.40026    135367.31   -35759.916    2652.3168   -38412.233    8.1576078    238.67954 
    2400    135.52267   -770.08904    135348.77   -35758.453    2620.9401   -38379.393    8.2864189    235.85598 
    2450    134.92089   -625.10309    135335.64    -35685.62    2609.3019   -38294.922    8.6025424    234.80867 
    2500    136.53721   -679.11018    135387.02   -35670.879    2640.5608   -38311.439    8.7961325    237.62163 
    2550    138.73955   -676.64458    135338.68   -35678.348    2683.1529   -38361.501    8.9158369    241.45445 
    2600    138.99672   -728.26742    135369.68   -35654.114    2688.1264    -38342.24    8.8853324    241.90201 
    2650    140.00329   -636.96391    135418.41    -35695.38     2707.593   -38402.973    9.0195467    243.65379 
    2700    138.35782   -820.29755    135418.44   -35666.503    2675.7704   -38342.274    9.1675788    240.79011 
    2750    141.71134   -681.99162    135428.62   -35639.857    2740.6259   -38380.483    9.3294042     246.6264 
    2800     138.7694   -690.31738    135383.44    -35638.94    2683.7302    -38322.67    9.5567198     241.5064 
    2850    140.57001   -990.15139    135262.71   -35635.216    2718.5531   -38353.769    9.6825849    244.64009 
    2900    140.39617   -781.91512    135143.33   -35677.902    2715.1912   -38393.094    9.7946232    244.33755 
    2950    140.93109   -583.81877    135301.56   -35668.345    2725.5362   -38393.881    9.9099121    245.26849 
    3000    138.42483    -685.2256    135322.75   -35736.513    2677.0664   -38413.579    10.092611    240.90673 
    3050    138.13903   -673.19724    135310.99   -35689.605    2671.5392   -38361.144    10.194332    240.40934 
    3100    137.93831   -812.68904    135380.69   -35678.986    2667.6573   -38346.643    10.293368    240.06002 
    3150    140.79912   -849.29339    135407.33   -35701.371    2722.9839   -38424.355    10.361952    245.03881 
    3200    136.55315   -665.88932     135418.8   -35708.349    2640.8689   -38349.218    10.477133    237.64936 
    3250    136.47834   -559.07575    135381.65   -35719.311    2639.4223   -38358.734    10.560092    237.51917 
    3300    137.34589   -647.71617    135385.64   -35692.957    2656.2003   -38349.158    10.683652    239.02901 
    3350     137.8216   -472.51421    135465.67   -35698.953    2665.4003   -38364.354    10.863796    239.85691 
    3400    139.84666   -962.85603    135450.85   -35690.023     2704.564   -38394.587    10.933877    243.38121 
    3450    137.17361   -819.68028    135356.94   -35665.726    2652.8685   -38318.595    11.096668    238.72919 
    3500    140.57471   -664.70762    135269.57    -35668.21    2718.6441   -38386.854    11.178295    244.64827 
    3550    137.70839   -693.32777    135313.98    -35697.16    2663.2108   -38360.371    11.334649    239.65988 
    3600    136.72143   -771.63146    135317.35   -35743.635    2644.1235   -38387.758    11.448588    237.94223 
    3650    139.73055   -721.17609    135344.69   -35725.706    2702.3183   -38428.024    11.656896    243.17912 
    3700    135.64468   -934.98548    135349.29   -35750.054    2623.2996   -38373.354    11.793478    236.06831 
    3750    137.87316   -648.14502    135233.32   -35719.916    2666.3974   -38386.314    11.878012    239.94664 
    3800    138.57318   -675.94164    135261.86   -35720.629    2679.9353   -38400.565    12.045942     241.1649 
    3850     138.2334   -838.51725    135251.75    -35720.17    2673.3643   -38393.535    12.218353    240.57359 
    3900    139.54609     -633.296    135250.32   -35719.757    2698.7511   -38418.508    12.431685    242.85812 
    3950    140.64011   -700.25154    135277.16   -35726.438    2719.9088   -38446.347    12.647248    244.76208 
    4000    139.45117   -890.41199    135211.58   -35726.981    2696.9153   -38423.896    12.873461    242.69292 
    4050    136.27479   -745.03539    135147.11   -35717.419    2635.4858   -38352.905    13.047342    237.16493 
    4100    136.34551   -567.42221    135205.64   -35691.062    2636.8535   -38327.915     13.13511    237.28801 
    4150    140.63717   -446.15634    135247.67   -35678.476     2719.852   -38398.328    13.398487    244.75697 
    4200    139.62285   -675.30502    135255.08   -35696.044    2700.2356    -38396.28    13.546559     242.9917 
    4250    139.65181   -623.35836    135313.07   -35682.307    2700.7955   -38383.102    13.752144    243.04209 
    4300     140.1393   -729.34418     135331.6   -35678.103    2710.2234   -38388.327    14.015242     243.8905 
    4350    138.32302   -388.65462    135392.79   -35674.536    2675.0975   -38349.633    14.120249    240.72955 
    4400    140.15042    -886.0595     135354.5   -35654.989    2710.4384   -38365.427    14.325638    243.90985 
    4450    137.53817   -542.21048    135304.11   -35688.764    2659.9188   -38348.683    14.404992    239.36364 
    4500    136.45426   -530.40679    135342.51   -35687.505    2638.9565   -38326.461    14.544598    237.47726 
    4550    137.64951   -836.69903    135174.79    -35681.42    2662.0722   -38343.492    14.724186    239.55742 
    4600     137.9254   -578.38519    135245.11   -35661.376    2667.4077   -38328.784    15.001498    240.03756 
    4650    138.41532   -631.06196    135305.53   -35682.157    2676.8825   -38359.039    15.237518    240.89019 
    4700     134.9249   -606.99549    135322.66   -35691.072    2609.3796   -38300.451    15.416635    234.81566 
    4750     137.8418   -481.14507    135298.39   -35687.008    2665.7908   -38352.799    15.654232    239.89205 
    4800    135.46376   -641.27078    135301.27   -35742.149    2619.8007   -38361.949    15.832385    235.75345 
    4850    136.91861   -679.58032    135271.66   -35740.845    2647.9368   -38388.782    16.006328    238.28538 
    4900    137.87583   -759.04268     135221.5   -35712.228     2666.449   -38378.677    16.188756    239.95129 
    4950    138.92835   -685.12377     135183.1    -35684.92    2686.8042   -38371.724    16.305507    241.78303 
    5000    138.21377   -700.67038    135215.92   -35687.473    2672.9845   -38360.457    16.501808    240.53941 
    5050    136.34118    -536.6992    135191.48   -35698.697    2636.7696   -38335.467    16.580104    237.28046 
    5100     137.4299   -593.06372     135257.3   -35762.522    2657.8249   -38420.347    16.779919    239.17521 
    5150    132.43491   -818.94424    135229.24   -35804.014    2561.2244   -38365.239    16.922582    230.48222 
    5200    136.84935    -803.1712    135210.54   -35788.031    2646.5974   -38434.629    17.039203    238.16486 
    5250    137.72368   -962.86813    135195.34   -35768.994    2663.5065     -38432.5    17.170059    239.68649 
    5300    140.06842    -607.1462    135136.42       -35740    2708.8526   -38448.853     17.34037    243.76715 
    5350    136.59095   -744.74933    135087.03   -35690.402       2641.6   -38332.002    17.516257    237.71514 
    5400    137.10593   -760.37478    135014.23   -35714.775    2651.5595   -38366.334    17.735352    238.61139 
    5450    140.78628   -818.03317    134953.05   -35713.791    2722.7356   -38436.527    17.843592    245.01646 
    5500    137.83183   -707.70337     134888.6   -35721.143     2665.598   -38386.741    17.802127    239.87471 
    5550    136.78458   -440.28148    134946.24   -35753.706    2645.3448   -38399.051    17.928269    238.05214 
    5600    136.62333   -579.26612    135012.61   -35769.407    2642.2264   -38411.633     18.23041    237.77151 
    5650    135.91033   -543.15096    135067.37   -35791.955    2628.4373   -38420.392    18.325619    236.53065 
    5700    133.20243   -631.69284    135065.15   -35829.045    2576.0679   -38405.113    18.483793    231.81797 
    5750     134.8359   -622.96988    135078.08   -35781.122    2607.6582    -38388.78     18.62446    234.66076 
    5800    133.58848    -806.9841    135051.08   -35821.976    2583.5338    -38405.51    18.811952    232.48982 
    5850    138.17563   -579.74183    135057.66   -35785.562     2672.247   -38457.809    18.924911    240.47304 
    5900    135.00586   -749.15128    135124.26   -35794.223    2610.9453   -38405.168    19.002774    234.95655 
    5950    136.61481   -657.64203    135117.98   -35772.375    2642.0615   -38414.436    19.141763    237.75668 
    6000    136.98492   -758.83908    135163.52   -35770.742    2649.2193   -38419.962     19.32276     238.4008 
    6050    138.73829   -654.17018     135154.4   -35792.427    2683.1285   -38475.556    19.339275    241.45225 
    6100    137.69313    -808.1331    135104.94   -35720.344    2662.9157   -38383.259    19.415266    239.63332 
    6150    138.07825   -746.19304    135211.76   -35708.021    2670.3637   -38378.385    19.561862    240.30356 
    6200     140.0603   -383.94288    135247.89   -35728.128    2708.6956   -38436.824    19.804241    243.75302 
    6250    137.02047   -473.66401    135309.88   -35688.152    2649.9068   -38338.059    20.014975    238.46267 
    6300    137.32492    -793.6401    135375.34   -35682.503    2655.7948   -38338.297    20.336977    238.99252 
    6350    136.69908   -863.62145     135326.3   -35758.149    2643.6913   -38401.841    20.551268    237.90334 
    6400    137.92749   -707.38179     135289.1   -35743.062    2667.4482    -38410.51    20.617124     240.0412 
    6450     138.2263   -842.26252    135193.39   -35742.151     2673.227   -38415.378    20.875436    240.56123 
    6500     136.5137   -1136.6875    135133.93   -35751.139    2640.1061   -38391.245    21.071883    237.58071 
    6550    138.12438   -669.53007    135071.61   -35747.885    2671.2559   -38419.141    21.212438    240.38385 
    6600    137.60991   -904.37892    135004.55   -35737.138    2661.3062   -38398.444    21.254825    239.48849 
    6650    136.08444   -538.31295    134966.48   -35750.419    2631.8045   -38382.223    21.388951    236.83366 
    6700    139.22481   -660.04776    134947.58   -35687.029    2692.5377   -38379.566    21.623723    242.29898 
    6750    136.72543   -1072.4206    134850.66     -35671.8    2644.2008   -38316.001    21.731402    237.94919 
    6800    139.71737   -703.20942    134703.64   -35701.905    2702.0635   -38403.968    21.948794     243.1562 
    6850    138.69478   -708.77686    134709.53   -35687.062    2682.2871   -38369.349    22.141283    241.37654 
    6900    139.56321   -765.63859    134738.66   -35673.477    2699.0822   -38372.559    22.215972    242.88791 
    6950    138.70219   -588.27998    134751.89   -35661.353    2682.4305   -38343.783    22.398722    241.38944 
    7000    137.69814   -638.39792    134814.95   -35664.357    2663.0125   -38327.369    22.606839    239.64204 
    7050    137.03423   -979.40713     134776.2   -35639.824    2650.1728   -38289.997    22.641915     238.4866 
    7100    137.88598   -766.51971    134792.27   -35699.339    2666.6453   -38365.984    22.891871    239.96895 
    7150    138.15185    -724.5939    134805.42   -35740.211    2671.7871   -38411.998    23.098383    240.43165 
    7200    136.73903   -811.77472    134899.78   -35741.727    2644.4639   -38386.191    23.330405    237.97286 
    7250    138.39261    -866.1929    134924.18   -35674.969    2676.4432   -38351.412    23.376889    240.85065 
    7300     135.6786    -618.9767    134903.35   -35635.856    2623.9557   -38259.812    23.582294    236.12735 
    7350    138.66989   -873.53302    134848.43   -35670.359    2681.8057   -38352.165    23.714345    241.33322 
    7400    137.75814   -891.39821    134869.59   -35665.793    2664.1729   -38329.966    23.914664    239.74646 
    7450    140.67827   -562.68686    134835.26   -35656.705    2720.6468   -38377.352    23.986323    244.82849 
    7500    139.01701   -880.26927    134849.34   -35654.738    2688.5188   -38343.257    24.105867    241.93732 
    7550    138.72974   -772.04343    134887.07   -35613.672    2682.9632   -38296.636    24.234635    241.43738 
    7600    136.96902   -702.48486    134907.55   -35638.086    2648.9117   -38286.998    24.413772    238.37312 
    7650    138.06033   -790.86026    134889.63    -35668.04    2670.0171   -38338.057    24.616733    240.27237 
    7700    137.65649   -593.66441    134900.04    -35667.95    2662.2071   -38330.158    24.807288    239.56956 
    7750    136.72734   -702.60312    135006.32   -35700.338    2644.2379   -38344.576     25.05931    237.95252 
    7800    140.81538   -800.22324    135084.62   -35627.544    2723.2985   -38350.842    25.219623    245.06712 
    7850    140.65227   -629.17021    135103.33   -35618.932     2720.144   -38339.076    25.290965    244.78325 
    7900    139.00545   -664.50664    135109.29   -35619.476    2688.2954   -38307.772    25.347616    241.91722 
    7950    139.06128   -1030.7655     135070.8    -35630.23    2689.3751   -38319.605    25.442302    242.01438 
    8000    138.83686   -620.35047    135020.64   -35654.258    2685.0348   -38339.293    25.539206     241.6238 
    8050    139.81389   -790.10509    134998.51   -35649.654    2703.9301   -38353.584    25.543683    243.32417 
    8100    139.37842   -625.71433     135011.1   -35664.639    2695.5083   -38360.148    25.694267     242.5663 
    8150     141.1016   -588.20746    135005.99   -35688.374    2728.8338   -38417.208    25.867776    245.56524 
    8200    136.86259   -546.49277    135070.12   -35722.366    2646.8535    -38369.22    26.050847     238.1879 
    8250    136.43615   -541.15205     135106.2   -35746.117    2638.6064   -38384.723    26.351116    237.44575 
    8300    136.04614   -779.87896    135271.36   -35743.163    2631.0637   -38374.227    26.502525    236.76699 
    8350    139.53974   -997.79549    135203.03   -35728.445    2698.6281   -38427.073    26.610662    242.84705 
    8400    136.30582    -976.1934    135126.16   -35719.776    2636.0858   -38355.862    26.771485    237.21893 
    8450    139.14695   -782.26088    135003.61   -35688.729    2691.0318   -38379.761    26.787502    242.16347 
    8500    137.51804   -877.84098    134935.89   -35684.737    2659.5296   -38344.267    26.865879    239.32861 
    8550    136.89247    -679.9745    134888.95   -35643.431    2647.4313   -38290.863    27.067258     238.2399 
    8600    138.71208   -438.29666    134927.47   -35684.233    2682.6217   -38366.855    26.983352    241.40665 
    8650    137.96339    -461.0926    135069.48   -35664.218    2668.1424    -38332.36    27.190497    240.10367 
    8700    136.53085   -736.27181     135124.5   -35704.796    2640.4378   -38345.234    27.353259    237.61056 
    8750    137.64198   -861.99122    135099.16   -35697.923    2661.9265   -38359.849    27.383827    239.54431 
    8800    137.09198   -673.23367    135088.26   -35685.075    2651.2898   -38336.364    27.563361    238.58712 
    8850    137.69274   -884.38923    135044.12   -35701.583    2662.9081   -38364.491    27.686949    239.63264 
    8900    138.74462   -867.84439    134995.57   -35685.873     2683.251   -38369.124    27.930119    241.46328 
    8950    138.04096   -422.42927    134942.14   -35679.465    2669.6426   -38349.108     28.16305    240.23867 
    9000    136.32896   -942.69031     134857.2   -35718.193    2636.5333   -38354.726    28.406548    237.25919 
    9050    134.83924   -773.96312    134842.37   -35775.769    2607.7229   -38383.492    28.772699    234.66657 
    9100     137.0261   -475.77442    134980.14   -35740.929    2650.0157   -38390.945    28.966348    238.47247 
    9150    135.83176   -841.29662    134991.79   -35767.033    2626.9178   -38393.951    29.228912     236.3939 
    9200    136.63036   -791.12761    134968.08   -35780.585    2642.3623   -38422.948    29.458467    237.78374 
    9250    134.97503   -684.58704    134951.44   -35782.299    2610.3491   -38392.648    29.588207     234.9029 
    9300     135.3748   -792.82698    135125.52   -35748.812    2618.0804   -38366.892    29.745217    235.59863 
    9350    139.35147   -779.44209    135191.12   -35671.916    2694.9872   -38366.903    30.190464    242.51941 
    9400    138.14803   -882.93314    135143.84   -35675.935    2671.7132   -38347.648    30.565444      240.425 
    9450    136.13829   -746.71719    135126.18   -35714.997    2632.8459   -38347.843    31.013698    236.92737 
    9500    139.14027   -735.69574    135133.12   -35677.852    2690.9026   -38368.755    31.278121    242.15184 
    9550    137.92304   -679.10249    135079.51   -35692.964     2667.362   -38360.326    31.589879    240.03345 
    9600    135.98613   -593.93049    135118.43   -35644.537    2629.9031   -38274.441    31.820855    236.66255 
    9650    140.55946   -698.07351    135146.12   -35677.122    2718.3491   -38395.472     31.99042    244.62173 
    9700    135.75014   -678.82762    135146.11   -35682.798    2625.3392   -38308.137    32.135306    236.25185 
    9750    138.31234   -779.83122    135106.05   -35709.226    2674.8909   -38384.117    32.251848    240.71096 
    9800    141.09711   -813.42426    135050.52   -35638.743     2728.747    -38367.49    32.366561    245.55742 
    9850    138.40176   -664.87481     134916.9   -35627.861    2676.6203   -38304.482    32.259307    240.86659 
    9900    139.26283   -873.19225    134921.61   -35641.223     2693.273   -38334.496    32.291457    242.36515 
    9950    135.19553   -720.97024    134877.31   -35650.924    2614.6133   -38265.537    32.435018    235.28663 
   10000    138.50828   -1048.0834    134825.75   -35639.545    2678.6802   -38318.225    32.646371    241.05196 
   10050    140.70291   -798.03427    134770.07   -35634.865    2721.1232   -38355.988     32.75585    244.87137 
   10100    138.80926   -676.65697    134760.92     -35614.1    2684.5011   -38298.601    32.887951    241.57577 
   10150    139.18351   -668.53732    134828.58   -35629.653    2691.7389   -38321.392    33.134005    242.22709 
   10200    138.73415   -937.85278    134867.11   -35629.598    2683.0484   -38312.646     33.30554    241.44505 
   10250    141.68525   -705.61305    134954.87   -35557.432    2740.1213   -38297.553    33.421296    246.58099 
   10300    141.47792   -907.96744    135027.77   -35553.723    2736.1116   -38289.834    33.672008    246.22016 
   10350    136.42862   -803.14048    134965.02   -35566.055    2638.4608   -38204.516    33.837885    237.43265 
   10400    141.27413   -659.31561    134991.63    -35529.88    2732.1705    -38262.05    33.901857     245.8655 
   10450     143.8295    -706.2284     135091.5   -35542.194      2781.59   -38323.784    34.054167    250.31271 
   10500    138.63372   -609.59517       135075   -35565.876    2681.1063   -38246.982    34.224067    241.27028 
   10550    139.04161    -780.6049    135027.23   -35616.473    2688.9946   -38305.468    34.455866    241.98014 
   10600    138.14928   -1091.5278    134956.74   -35604.746    2671.7374   -38276.484    34.655538    240.42718 
   10650    138.56948   -512.84907     134920.8    -35624.03    2679.8638   -38303.894     34.81056    241.15847 
   10700    138.79959   -520.67088    135015.15   -35630.097     2684.314   -38314.411    34.966894    241.55894 
   10750    139.02924   -425.94245    135013.93   -35649.304    2688.7554    -38338.06    35.191318    241.95862 
   10800    135.39776    -737.5369    135145.41   -35624.554    2618.5243   -38243.078    35.520231    235.63859 
   10850    140.20764    -689.2378    135186.45   -35642.352     2711.545   -38353.897    35.626377    244.00943 
   10900    138.22498   -692.33107    135194.36   -35602.267    2673.2014   -38275.468    35.858327    240.55892 
   10950    139.75673    -765.8039    135223.38   -35608.812    2702.8247   -38311.637    36.053156     243.2247 
   11000    138.61702   -372.21762    135279.44   -35570.141    2680.7833   -38250.924    36.208454    241.24121 
   11050    139.84855   -714.46443    135287.02   -35572.967    2704.6004   -38277.568    36.473328    243.38449 
   11100    142.00781   -644.16356    135289.91   -35554.386    2746.3595   -38300.745    36.737746    247.14235 
   11150    140.63648   -716.36568    135322.86   -35553.142    2719.8387   -38272.981    36.980219    244.75577 
   11200    138.19591   -759.32857    135239.23   -35565.876    2672.6391   -38238.515    37.347226    240.50833 
   11250    138.61265   -654.51606    135230.26   -35625.911    2680.6987    -38306.61    37.481716     241.2336 
   11300    138.44779   -838.18177    135257.49   -35672.721    2677.5104   -38350.231    37.619121    240.94669 
   11350    138.51965   -702.89614    135174.04   -35630.482    2678.9002   -38309.382    37.730496    241.07175 
   11400    139.24158   -764.95025    135177.88   -35612.859    2692.8619   -38305.721    37.872232    242.32816 
   11450    139.99998   -775.60287    135304.61    -35606.89     2707.529    -38314.42    38.038781    243.64804 
   11500     140.7446   -356.41817    135321.23   -35614.633    2721.9296   -38336.563    38.080012    244.94393 
   11550    138.49969   -851.05986     135333.2   -35626.737    2678.5142   -38305.251    38.235873    241.03702 
   11600    136.48264   -731.97859    135310.42   -35640.953    2639.5054   -38280.459    38.334595    237.52666 
   11650     139.0106   -715.75099    135214.02   -35615.437    2688.3949   -38303.832    38.582702    241.92617 
   11700    138.53916   -617.08485    135112.68   -35561.583    2679.2775    -38240.86    38.875568    241.10571 
   11750    141.52579   -615.33671    135135.65   -35565.625    2737.0374   -38302.662    38.979937    246.30347 
   11800    139.42094   -618.71043    135164.35   -35614.809    2696.3307    -38311.14    39.057939    242.64031 
   11850    143.72981   -1007.5368    135087.69   -35594.258     2779.662    -38373.92    39.177304    250.13922 
   11900    140.11289    -565.6455    134993.63   -35574.256    2709.7126   -38283.968    39.170748    243.84453 
   11950    139.95784   -958.49822    134954.29   -35630.783     2706.714   -38337.497    39.383172    243.57469 
   12000    137.85466   -995.46887    134906.19   -35629.217    2666.0397   -38295.256    39.803254    239.91445 
   12050    137.82818   -735.80286    134811.85    -35640.96    2665.5275   -38306.488    40.015802    239.86836 
   12100    139.54991   -922.57919    134763.23     -35628.4    2698.8248   -38327.225    39.992246    242.86475 
   12150    137.69749   -559.76118    134705.95   -35566.465    2663.0001   -38229.465    40.096004    239.64092 
   12200    139.67082   -798.14163    134670.29   -35549.513    2701.1633   -38250.677    40.307808    243.07519 
   12250     137.3288   -901.49187    134632.22   -35564.553    2655.8697   -38220.422    40.673161    238.99926 
   12300    140.86005   -693.00986    134566.91   -35558.742    2724.1623   -38282.905    40.751936    245.14485 
   12350    137.96058   -855.67853    134500.47   -35635.036    2668.0881   -38303.124    40.839749    240.09878 
   12400    138.26248   -693.75547    134472.91   -35587.475    2673.9267   -38261.402    40.926001    240.62419 
   12450    139.63191   -800.74249    134491.06   -35542.967    2700.4107   -38243.378    41.156075    243.00747 
   12500    140.54311   -572.80433    134600.29   -35522.832    2718.0329   -38240.865    41.272556    244.59327 
   12550    138.38358   -689.19801    134715.48   -35545.117    2676.2686   -38221.386     41.51725    240.83494 
   12600    139.10245   -738.68036    134736.13   -35607.928    2690.1712   -38298.099    41.965079    242.08602 
   12650    138.35597   -593.01141    134722.82   -35590.478    2675.7346   -38266.213    42.291362    240.78688 
   12700    141.66486   -816.21277    134748.03   -35602.983     2739.727    -38342.71    42.400676     246.5455 
   12750    136.85802   -956.17899    134829.79   -35615.126     2646.765   -38261.891    42.649327    238.17994 
   12800    136.61694   -933.65487    134890.39   -35617.143    2642.1027   -38259.245    42.791519    237.76038 
   12850    141.12613   -820.12978       134917   -35610.957    2729.3081   -38340.265    42.982015    245.60792 
   12900    141.29415   -1142.4198    134962.32   -35583.786    2732.5576   -38316.343    43.149408    245.90034 
   12950    140.89181   -963.87066    134883.87   -35511.664    2724.7766   -38236.441    43.392492    245.20013 
   13000    140.96034   -686.40639    134850.93   -35539.784    2726.1019   -38265.886    43.747385    245.31939 
   13050    138.08914   -850.94074    134861.46   -35553.651    2670.5744   -38224.226    44.217419    240.32252 
   13100    142.21906   -927.61901    134848.95   -35520.918     2750.445   -38271.363    44.261861       247.51 
   13150    139.33287   -774.04406     134781.6   -35553.845    2694.6274   -38248.472    44.454016    242.48703 
   13200    140.13609   -709.81304    134807.41   -35583.001    2710.1612   -38293.162    44.680987    243.88491 
   13250    138.13929   -503.58997     134821.1   -35616.604    2671.5441   -38288.148    44.681512    240.40979 
   13300     140.9489   -699.89888    134856.27   -35588.696    2725.8807   -38314.577    44.691818    245.29949 
   13350     138.1242   -913.33987    134808.29   -35668.542    2671.2523   -38339.794    44.695946    240.38353 
   13400    135.49457   -605.70487    134782.78   -35700.304    2620.3967   -38320.701     44.85511    235.80708 
   13450    136.84727   -414.15873    134912.33   -35738.384    2646.5572   -38384.942    45.049759    238.16124 
   13500    137.45627   -781.54891     134894.4   -35694.115    2658.3349    -38352.45    45.156301     239.2211 
   13550    135.43757    -695.7453     134917.4   -35716.913    2619.2942   -38336.208    45.268621    235.70787 
   13600    136.16509   -911.24198    134910.77   -35771.123    2633.3642   -38404.487     45.40375    236.97401 
   13650    136.95453   -857.25344    134791.49   -35748.768    2648.6315     -38397.4    45.479604     238.3479 
   13700    135.50977   -866.03019    134803.26   -35751.687    2620.6906   -38372.378    45.715003    235.83353 
   13750     138.3398   -602.23426    134829.65   -35679.633     2675.422   -38355.055    45.941507    240.75876 
   13800    138.13338   -711.03693    134836.94   -35675.836    2671.4299   -38347.266    46.071849    240.39951 
   13850    138.15685   -595.27043    134858.94   -35708.531    2671.8838   -38380.415    46.142646    240.44036 
   13900    137.26017   -673.96367    134874.24   -35700.386    2654.5424   -38354.928    46.436491    238.87982 
   13950    136.26844    -593.4333    134888.06   -35739.044    2635.3629   -38374.406    46.474744    237.15387 
   14000    133.61787   -922.20318    134947.68   -35747.549    2584.1021   -38331.652    46.636592    232.54096 
   14050    135.79677   -862.41205    135031.97   -35777.003    2626.2411   -38403.244    46.844834    236.33301 
   14100    135.09559   -811.89443    134937.99   -35769.594    2612.6806   -38382.275    46.890298    235.11271 
   14150    139.68744   -583.92606    134980.71   -35701.723    2701.4847   -38403.208    46.997025    243.10411 
   14200    139.51539   -487.17807    135018.75   -35732.659    2698.1572   -38430.816    47.157935    242.80468 
   14250      137.272   -496.24858    135084.55   -35743.352    2654.7712   -38398.123    47.337756    238.90041 
   14300    136.75742   -782.06935    135031.16    -35710.45    2644.8196    -38355.27    47.374433    238.00487 
   14350    136.46704   -674.63164     134988.1   -35708.458    2639.2037   -38347.661    47.623838     237.4995 
   14400    135.76979   -746.03069    135003.12       -35714    2625.7193    -38339.72    47.951715    236.28606 
   14450    136.65946   -579.18809    135035.84   -35736.082    2642.9251   -38379.007    48.230353    237.83439 
   14500    135.90856   -866.37962    135051.96   -35779.944     2628.403   -38408.347    48.358912    236.52756 
   14550    136.33364   -935.91737    135035.47   -35791.445    2636.6238   -38428.069    48.397761    237.26734 
   14600    135.67363   -726.06687    134985.99   -35765.907    2623.8596   -38389.767      48.6462    236.11871 
   14650    136.65861   -403.31488    135026.01   -35748.878    2642.9087   -38391.786    48.968654    237.83291 
   14700    138.97419   -694.94852     135073.9   -35743.658    2687.6907   -38431.349    49.062075    241.86281 
   14750    136.43558   -722.17978    135035.82   -35754.594    2638.5954    -38393.19    49.122739    237.44476 
   14800    136.86992   -1008.3657    135006.58   -35754.159    2646.9953   -38401.154    49.208931    238.20066 
   14850     135.0868   -813.76007     134869.7    -35792.23    2612.5105    -38404.74    49.206588    235.09741 
   14900    137.71503   -741.51816    134773.66   -35804.389    2663.3392   -38467.728    49.276051    239.67144 
   14950    135.34381   -735.69997    134762.89   -35807.224    2617.4811   -38424.705    49.354757    235.54471 
   15000    138.34972   -631.70673    134896.01   -35758.831    2675.6137   -38434.445    49.768614    240.77601 
   15050    137.68047   -814.58027    134996.89   -35757.166    2662.6709   -38419.837    50.033458     239.6113 
   15100    138.19566   -1027.6416    134965.77   -35748.973    2672.6343   -38421.607    50.178587     240.5079 
   15150    137.58839   -877.15255    134953.84     -35730.7      2660.89   -38391.591    50.268092    239.45104 
   15200    137.72146   -767.64124    135022.07   -35784.919    2663.4635   -38448.383     50.35168    239.68262 
   15250    137.06474   -1013.7938    134986.43   -35822.843     2650.763   -38473.606     50.54045    238.53971 
   15300     136.5017   -992.47057    134949.53   -35820.931     2639.874   -38460.805    50.606788    237.55983 
   15350    139.38006   -622.10292    134923.28   -35769.652      2695.54   -38465.192    50.579208    242.56915 
   15400    136.56588   -936.98547    134938.15   -35796.528    2641.1152   -38437.643    50.767717    237.67152 
   15450    134.66186   -689.03049    134915.19   -35803.494    2604.2924   -38407.786    51.202386    234.35787 
   15500    134.60731   -827.46239    134899.39   -35805.442    2603.2375    -38408.68    51.356286    234.26293 
   15550    135.93023   -695.31819    134934.29   -35786.192     2628.822   -38415.014     51.38073    236.56527 
   15600    133.40349     -953.902     134999.9   -35776.247    2579.9563   -38356.203    51.514472    232.16788 
   15650    135.92741   -997.80145    134988.77   -35778.964    2628.7675   -38407.732    51.698454    236.56036 
   15700    137.99927   -817.64222    134897.51   -35790.075    2668.8362   -38458.911    51.998763     240.1661 
   15750    136.56715   -878.58592    134875.73   -35725.616    2641.1398   -38366.756     52.17999    237.67373 
   15800    138.71645   -585.49042    134897.01   -35707.473    2682.7062   -38390.179    52.070518    241.41425 
   15850    139.50897   -827.30386    134974.02   -35621.555    2698.0332   -38319.588    52.383851    242.79351 
   15900    138.61256   -804.13818    134968.88   -35586.189     2680.697   -38266.886    52.549707    241.23345 
   15950     141.8835   -484.33399    135012.29   -35579.641    2743.9554   -38323.596    52.655956    246.92601 
   16000    139.55638   -888.69764    135026.99   -35620.497    2698.9501   -38319.447    52.893997    242.87602 
   16050    137.73271   -519.40569    134995.15    -35651.41    2663.6811   -38315.091    53.085105     239.7022 
   16100    138.83449   -580.50419    135107.32   -35671.255    2684.9891   -38356.244    53.305603    241.61969 
   16150    138.79577    -636.8453    135129.64   -35669.762    2684.2402   -38354.003    53.439486     241.5523 
   16200    137.99101   -570.75235    135256.11   -35632.856    2668.6766   -38301.533     53.54351    240.15174 
   16250      140.872    -729.0918    135367.78   -35594.535    2724.3935   -38318.929     53.70812    245.16565 
   16300    138.57799   -846.20143    135376.26   -35640.196    2680.0284   -38320.225    53.767196    241.17328 
   16350    137.64492   -976.13645    135331.35   -35631.025    2661.9833   -38293.009    53.920245    239.54942 
   16400        136.8     -767.123    135367.56   -35631.547     2645.643    -38277.19    54.068677    238.07897 
   16450    139.18954   -850.21126    135440.18   -35638.021    2691.8554   -38329.876    54.327764    242.23758 
   16500    137.18737   -924.32598    135437.27   -35662.707    2653.1345   -38315.841    54.682773    238.75312 
   16550    143.08736   -851.11371    135343.96   -35670.143    2767.2373   -38437.381    54.813642    249.02113 
   16600    139.97426   -925.73434    135226.32   -35689.648    2707.0315   -38396.679    54.886312    243.60327 
   16650    137.61379   -602.22624    135214.14   -35724.719    2661.3813     -38386.1    55.231579    239.49525 
   16700    138.30001   -753.18056     135218.2   -35699.792    2674.6525   -38374.444    55.266692    240.68951 
   16750    136.91156   -800.24605    135209.32   -35690.631    2647.8005   -38338.432    55.666337    238.27313 
   16800    136.90758   -580.71693    135296.89   -35768.054    2647.7236   -38415.778    55.989275     238.2662 
   16850    132.59891   -687.84674    135291.28   -35757.657    2564.3961   -38322.053     56.01733    230.76764 
   16900     137.4564   -865.00774    135302.97   -35711.864    2658.3375   -38370.201    56.229759    239.22134 
   16950    136.47894   -709.87935    135267.13   -35658.457    2639.4339   -38297.891    56.441116    237.52022 
   17000    138.44258   -924.58447    135288.96   -35683.809    2677.4097   -38361.219    56.550368    240.93763 
   17050    141.05043   -763.56051    135332.19   -35648.211    2727.8441   -38376.055    56.494261    245.47617 
   17100    137.59252   -690.71721    135390.19   -35686.232    2660.9699   -38347.202     56.77488    239.45823 
   17150     141.3292   -571.82513    135485.51   -35661.645    2733.2355    -38394.88      57.0141    245.96134 
   17200    137.81632   -809.50831    135520.04   -35655.819    2665.2982   -38321.117    57.201548    239.84772 
   17250    139.77722   -506.05071     135514.4   -35652.312     2703.221   -38355.533    57.450494    243.26036 
   17300    137.88119   -718.87467    135541.56   -35625.196    2666.5527   -38291.748    57.648972    239.96061 
   17350    139.74864   -670.29828    135606.99   -35592.335    2702.6683   -38295.003    57.877605    243.21062 
   17400    139.20515   -813.64619    135617.02   -35595.948    2692.1573   -38288.105    58.020995    242.26475 
   17450    139.38586   -850.93158    135563.37   -35583.716    2695.6521   -38279.368    58.094088    242.57925 
   17500    140.82364   -824.55221    135506.26    -35564.92    2723.4581   -38288.379    58.249744    245.08148 
   17550    137.81279   -787.85458    135477.91   -35622.668    2665.2298   -38287.897    58.507411    239.84157 
   17600    137.58013   -924.46344    135471.85   -35663.005    2660.7303   -38323.736    58.629403    239.43666 
   17650    138.06305   -910.01412    135417.45   -35689.094    2670.0697   -38359.163    58.938445    240.27711 
   17700    133.74466   -1036.0192    135365.26    -35803.96    2586.5542   -38390.514    59.071748    232.76162 
   17750    135.08258   -920.54858    135242.06   -35798.783     2612.429   -38411.212     59.28997    235.09008 
   17800    131.91459   -904.71821    135192.67   -35836.452    2551.1616   -38387.613    59.252771    229.57668 
   17850    134.92954    -842.5363    135086.12   -35809.873    2609.4693   -38419.343    59.537716    234.82373 
   17900    135.29083   -676.80548     135046.6   -35746.983    2616.4564    -38363.44    59.718235     235.4525 
   17950    137.96929   -700.95162    135128.14   -35729.521    2668.2566   -38397.778    59.931831    240.11394 
   18000    136.18186   -600.36057    135121.64   -35802.583    2633.6884   -38436.272    60.087626    237.00319 
   18050    139.61142   -607.12018    135089.22    -35759.92    2700.0145   -38459.935    60.071596    242.97181 
   18100    135.67444   -827.63442    135080.32   -35793.575    2623.8753    -38417.45    60.372565    236.12011 
   18150    134.97687   -631.98639    135006.25   -35845.399    2610.3846   -38455.784     60.44806     234.9061 
   18200    135.52155   -829.53371    134950.73   -35819.408    2620.9185   -38440.326    60.356255    235.85403 
   18250     136.2849   -668.81197    134946.89    -35795.94    2635.6812   -38431.622     60.55868    237.18252 
   18300    135.96722   -666.91411    134988.05   -35832.626    2629.5375   -38462.164    60.740163    236.62965 
   18350     136.5078   -622.70557    134998.09   -35752.399     2639.992   -38392.391    60.785905    237.57044 
   18400     137.0013    -596.5312    134943.13   -35734.974     2649.536    -38384.51    60.971998     238.4293 
   18450      139.472   -810.11174    134902.24   -35722.538    2697.3182   -38419.856    61.080422    242.72917 
   18500    138.95566   -776.66768    134916.08    -35726.21    2687.3323   -38413.542    61.198201    241.83055 
   18550    138.96194   -531.03376    134988.38   -35720.782    2687.4539   -38408.236    61.372091    241.84149 
   18600     141.7218   -447.70423    135059.44   -35711.679    2740.8282   -38452.507    61.545136     246.6446 
   18650    142.83453    -408.7619    135304.31   -35684.495    2762.3477   -38446.843    61.849332    248.58112 
   18700    138.03365   -705.44111    135447.81   -35751.983    2669.5011   -38421.484    62.099686    240.22594 
   18750    136.40018   -625.53786     135463.9    -35793.69    2637.9107   -38431.601     62.30443    237.38314 
   18800    137.04129   -615.21125    135474.53   -35757.095    2650.3094   -38407.404    62.358602     238.4989 
   18850    137.19625   -913.93402    135486.21   -35753.635    2653.3063   -38406.941    62.358757    238.76858 
   18900    136.99015   -627.89866    135451.29   -35740.916    2649.3204   -38390.236    62.696438    238.40989 
   18950    138.02162    -772.0892    135461.44     -35750.3    2669.2684   -38419.569    62.939989      240.205 
   19000    139.24952   -705.18387    135517.02   -35704.916    2693.0154   -38397.931    63.086349    242.34197 
   19050    135.71087   -616.24942    135506.39   -35711.642    2624.5799   -38336.222    63.214237    236.18352 
   19100    141.46631   -537.32655    135607.54   -35648.988     2735.887   -38384.875    63.394546    246.19995 
   19150     142.4954   -841.10116    135657.79   -35665.193    2755.7892   -38420.982    63.375886    247.99093 
   19200    137.46027   -970.85606    135592.93   -35680.426    2658.4124   -38338.838    63.404311    239.22807 
   19250    138.89426   -1067.9987    135548.09   -35647.693     2686.145   -38333.838    63.531565    241.72371 
   19300    134.18205   -819.99751    135427.83   -35731.719    2595.0131   -38326.732    63.664113    233.52283 
   19350    138.70626   -1021.1165    135394.52   -35729.187    2682.5092   -38411.696    63.793342    241.39652 
   19400    139.23753   -674.66276    135332.68   -35701.782    2692.7837   -38394.566    64.075931    242.32112 
   19450    137.39705   -763.29467    135314.34   -35693.698    2657.1896   -38350.888    64.407513    239.11804 
   19500    138.73154   -712.87396    135391.73    -35722.25    2682.9981   -38405.248    64.845255    241.44052 
   19550    137.17836   -600.36215    135495.34   -35730.775    2652.9603   -38383.735    64.991058    238.73745 
   19600    136.45353   -761.93645     135482.6   -35729.851    2638.9424   -38368.793    65.215346    237.47599 
   19650    136.45117    -767.2202     135444.3   -35747.398    2638.8968   -38386.294    65.461614    237.47189 
   19700    137.96138   -378.16307    135524.93   -35727.654    2668.1035   -38395.757    65.832624    240.10017 
   19750    137.40711   -658.17674    135563.63   -35710.231    2657.3843   -38367.615    66.005935    239.13555 
   19800    136.82601   -598.63986    135498.91   -35747.258    2646.1461   -38393.404    66.036248    238.12424 
   19850    137.80063   -832.08094    135500.86   -35752.114    2664.9946   -38417.109    66.288979    239.82041 
   19900    137.50566   -962.33185    135448.48   -35759.501    2659.2901   -38418.791      66.7122    239.30706 
   19950    137.47453   -571.79688    135376.17   -35754.221    2658.6881   -38412.909    66.821334    239.25288 
   20000    137.69124   -445.97367    135430.11   -35774.955    2662.8791   -38437.834    67.160411    239.63003 
   20050    139.03514     -764.374    135446.76   -35739.584    2688.8694   -38428.453    67.280697    241.96888 
   20100     138.8234   -795.54289    135452.95    -35747.07    2684.7745   -38431.844    67.289363    241.60037 
   20150    139.40578   -508.58549    135444.31    -35702.26    2696.0375   -38398.297    67.520667    242.61392 
   20200    136.83748   -786.38943    135461.29   -35726.446    2646.3678   -38372.814    67.770353    238.14419 
   20250    135.28413   -745.66269    135509.92   -35790.436    2616.3268   -38406.762    68.129635    235.44083 
   20300    133.73397     -853.794    135533.39    -35795.49    2586.3475   -38381.838    68.371972    232.74302 
   20350    137.23967   -846.11135    135587.84   -35765.264    2654.1459   -38419.409    68.723442    238.84414 
   20400     139.6336   -887.03612    135648.62   -35668.225    2700.4434   -38368.669    68.908175    243.01041 
   20450    140.77067   -1080.1244    135615.28   -35679.452    2722.4337   -38401.886    68.924525     244.9893 
   20500    139.62275   -751.71766    135619.43   -35758.972    2700.2336   -38459.206    68.957022    242.99153 
   20550    135.71249   -1082.3171    135547.77   -35738.986    2624.6111   -38363.597    68.959393    236.18633 
   20600    134.80286   -961.14826    135373.11   -35764.749    2607.0192   -38371.768    68.877212    234.60325 
   20650     135.9016   -641.14109     135254.6   -35783.759    2628.2683   -38412.027    68.853545    236.51544 
   20700    136.03089   -727.58055    135297.05   -35787.731    2630.7688     -38418.5    68.909512    236.74045 
   20750    141.23573   -459.51676    135364.28   -35760.723    2731.4278    -38492.15    68.805058    245.79866 
   20800    135.62628   -674.92425    135393.98   -35738.529    2622.9439   -38361.473    68.675399     236.0363 
   20850    134.66925   -643.41336    135342.51   -35771.104    2604.4354    -38375.54    68.859008    234.37074 
   20900    139.57348   -912.88862    135323.61   -35710.818    2699.2807   -38410.098    69.045575    242.90577 
   20950     136.9524   -509.61913    135280.88   -35709.207    2648.5904   -38357.797    69.327511    238.34421 
   21000    138.29318   -857.11725    135210.76   -35720.579    2674.5203     -38395.1    69.540555    240.67761 
   21050    137.59215   -1088.4787     135162.8   -35696.508    2660.9627   -38357.471    69.810834    239.45758 
   21100    136.39228   -848.24399    135137.05   -35705.347    2637.7579   -38343.105    69.831221     237.3694 
   21150    136.90683    -913.8864    135086.75   -35693.231     2647.709    -38340.94    70.017934    238.26489 
   21200    136.04227   -906.10756    135050.28   -35729.569    2630.9888   -38360.558    70.193559    236.76025 
   21250    141.09568   -790.97163    135045.38   -35705.448    2728.7192   -38434.167    70.597391    245.55492 
   21300    135.23802   -621.74434    135010.82   -35742.737     2615.435   -38358.172    70.762004    235.36058 
   21350    137.66421   -754.75951    134972.53       -35699    2662.3563   -38361.356    71.209755    239.58299 
   21400    135.37265    -654.2237    135007.27    -35701.04    2618.0387   -38319.079    71.175099    235.59489 
   21450      139.376   -752.18234     135040.6   -35687.249    2695.4615    -38382.71    71.323196    242.56209 
   21500    136.51025   -973.01533    134988.44   -35709.777    2640.0395   -38349.816    71.377939    237.57471 
   21550    138.74333   -709.30131    134959.92   -35742.411     2683.226   -38425.637    71.599104    241.46103 
   21600    136.75974   -878.37801    134928.33   -35708.245    2644.8644   -38353.109    71.686122    238.00891 
   21650    139.63703   -442.38607    134925.36   -35634.185    2700.5097   -38334.695    71.942165    243.01638 
   21700    138.31459   -753.91214     134977.4   -35647.815    2674.9344   -38322.749    72.131919    240.71488 
   21750    139.19901   -562.96069    135032.35   -35666.924    2692.0386   -38358.962    72.212642    242.25407 
   21800    138.57807   -779.10001     135032.2   -35670.048    2680.0299   -38350.077    72.394663    241.17341 
   21850    140.05165   -769.50914    135015.59   -35675.667    2708.5283   -38384.196     72.45849    243.73796 
   21900     136.3438   -594.95339    135006.52   -35631.649    2636.8204   -38268.469    72.568108    237.28503 
   21950    139.67955   -829.29076     135029.4    -35660.19     2701.332   -38361.522    72.658625    243.09037 
   22000    136.74166   -640.84144    135048.21   -35685.253    2644.5147   -38329.768    72.711936    237.97743 
   22050    138.55081     -673.869    135074.57   -35695.728    2679.5028    -38375.23    72.817479    241.12598 
   22100    139.75698   -600.58547    135077.17   -35634.519    2702.8295   -38337.348    73.152642    243.22513 
   22150     140.5916   -814.58176    135089.68   -35694.696    2718.9707   -38413.667    73.219664    244.67766 
   22200    140.04446   -717.47795    135040.62   -35686.692    2708.3891   -38395.082    73.510261    243.72544 
   22250    139.38279   -612.29163    134974.14    -35680.55    2695.5928   -38376.143    73.796407    242.57391 
   22300    139.29568   -657.79059    134882.14   -35715.461    2693.9083    -38409.37    73.916476    242.42232 
   22350    139.36503   -636.03357    134890.49   -35723.545    2695.2495   -38418.794    74.142612    242.54301 
   22400    137.31464    -548.2787    134995.68   -35676.231    2655.5959   -38331.827    74.431649    238.97462 
   22450    139.89484   -562.73948    135022.92    -35657.52    2705.4956   -38363.016    74.679505    243.46505 
   22500     141.2631   -498.16461    135080.59    -35646.62     2731.957   -38378.577    74.705898    245.84629 
   22550    138.59274   -836.12689    135103.41   -35679.846    2680.3138   -38360.159    74.801989    241.19896 
   22600    140.65359   -780.63897    135097.51   -35678.486    2720.1695   -38398.656    75.056101    244.78554 
   22650     139.4175   -523.88238    135199.41   -35701.961     2696.264   -38398.225    75.157018    242.63431 
   22700    137.73769   -907.27212    135109.98   -35711.329    2663.7774   -38375.106    75.289103    239.71087 
   22750    138.71747   -723.51137    135058.77   -35724.863    2682.7259   -38407.589    75.347052    241.41603 
   22800    137.41464   -867.44938    135018.98    -35699.58    2657.5299    -38357.11    75.638205    239.14866 
   22850    137.52832   -642.64535    134981.15   -35692.406    2659.7283   -38352.134    75.862896    239.34649 
   22900    133.82322   -761.83365    134916.23   -35732.501    2588.0736   -38320.575    75.958767    232.89835 
   22950    138.08045   -703.87932    134843.74   -35666.367    2670.4063   -38336.773    75.964183     240.3074 
   23000    138.73896   -706.21132    134786.59   -35640.283    2683.1415   -38323.425    76.090532    241.45343 
   23050    137.36477   -527.85332    134723.27   -35683.235    2656.5653     -38339.8    76.133272    239.06186 
   23100    138.06475    -662.4647    134644.16   -35736.498    2670.1026   -38406.601     76.32273    240.28007 
   23150    135.46042   -437.78388    134686.62   -35749.274    2619.7361   -38369.011    76.534603    235.74764 
   23200    137.68773   -646.73372    134742.27   -35741.037    2662.8113   -38403.849    76.510797    239.62393 
   23250    138.73967   -658.82473    134794.88    -35733.81    2683.1553   -38416.966    76.697493    241.45467 
   23300    137.59126   -561.22665    134793.71   -35730.366    2660.9455   -38391.311    76.862703    239.45603 
   23350    134.53667   -757.10357    134754.27    -35777.31    2601.8713   -38379.182    76.800862       234.14 
   23400    137.40856   -740.87431    134738.15   -35770.614    2657.4122   -38428.027    76.806123    239.13807 
   23450    134.93129   -614.71679    134734.34   -35776.814    2609.5032   -38386.317    76.851356    234.82678 
   23500     139.3602   -597.35196    134833.35   -35712.422    2695.1559   -38407.578    77.019808    242.53459 
   23550    137.74941   -543.40284    134825.43   -35735.818    2664.0042   -38399.822    77.224446    239.73127 
   23600    133.75658   -780.25405    134805.87    -35754.78    2586.7848   -38341.564    77.361965    232.78238 
   23650    135.44739   -554.65389    134776.97   -35792.017    2619.4841   -38411.501    77.514644    235.72496 
   23700    136.06528     -631.396     134755.7   -35768.841    2631.4339   -38400.275    77.667009    236.80031 
   23750    135.50336   -460.58976    134859.52    -35723.95    2620.5667   -38344.516    77.869304    235.82238 
   23800    136.53409   -672.46028    134923.09   -35751.404    2640.5004   -38391.905    78.151855    237.61619 
   23850    137.83372   -453.39278    134835.14   -35736.347    2665.6346   -38401.982    78.384212      239.878 
   23900    137.94565   -516.59102    134920.21   -35716.337    2667.7992   -38384.136    78.532266    240.07279 
   23950    137.46011   -621.62607    134903.12   -35723.696    2658.4092   -38382.105    78.744815    239.22779 
   24000    134.16206    -748.2514    134879.93   -35715.392    2594.6266   -38310.019    78.983437    233.48805 
   24050    132.70818    -707.2881     134811.8   -35751.777    2566.5093   -38318.286    79.126872     230.9578 
   24100    136.86812   -721.76528    134744.87   -35746.138    2646.9605   -38393.099    79.423817    238.19753 
   24150    136.37562    -777.6106    134732.23   -35751.578    2637.4358   -38389.014    79.462184    237.34041 
   24200    135.29598   -465.96408       134756    -35688.89     2616.556   -38305.446    79.503586    235.46146 
   24250    136.87712   -707.62978    134739.88    -35733.24    2647.1344   -38380.374    79.638354    238.21318 
   24300    135.39445   -653.51714    134680.34   -35730.837    2618.4604   -38349.298    79.630213    235.63284 
   24350    137.78852   -595.33995    134766.96   -35694.715    2664.7604   -38359.476    79.629359    239.79933 
   24400    137.53057   -526.80548    134930.71   -35770.741    2659.7718   -38430.513    79.916012    239.35041 
   24450    137.02807   -756.59605    134996.07   -35733.528    2650.0537   -38383.582    80.025332    238.47589 
   24500    137.14099   -741.72742    135072.46   -35778.751    2652.2376   -38430.988    80.194721    238.67241 
   24550    139.59939   -918.19306    135050.53   -35746.074    2699.7818   -38445.856    80.233304    242.95087 
   24600    136.67419   -905.68101    135022.74    -35723.38      2643.21    -38366.59    80.521979    237.86002 
   24650    138.09534   -787.78616    135078.68   -35689.275    2670.6943   -38359.969    80.839048    240.33331 
   24700     140.2561   -788.95334    135057.82   -35714.673    2712.4823   -38427.155    80.812757    244.09377 
   24750    137.17727   -937.86635    135008.76   -35732.893    2652.9393   -38385.833    80.923717    238.73556 
   24800    137.02126   -858.08966    134892.73   -35726.871    2649.9221   -38376.793    81.352976    238.46404 
   24850    137.61731   -821.50749    134849.34   -35657.585    2661.4494   -38319.035    81.525359    239.50137 
   24900    143.59161   -943.38143    134800.07   -35586.839    2776.9893   -38363.828    81.509987    249.89871 
   24950    140.82593   -600.73852    134844.99   -35652.212    2723.5024   -38375.714    81.842634    245.08546 
   25000     134.3432   -804.33202     134888.7   -35748.001    2598.1298   -38346.131    82.172076     233.8033 
   25050    138.60214   -523.27682    134909.23   -35758.011    2680.4955   -38438.506    82.237055    241.21532 
   25100    139.20257   -808.87783    134930.44   -35771.942    2692.1075   -38464.049    82.771366    242.26027 
   25150    135.88795   -626.17032    134954.94   -35772.807    2628.0044   -38400.812    82.861226    236.49169 
   25200    136.85567   -568.68603    134956.72   -35709.541    2646.7197    -38356.26    82.836586    238.17586 
   25250    136.74662   -439.28631    135094.52   -35740.772    2644.6107   -38385.383    83.001724    237.98608 
   25300    136.38515   -689.87093    135107.07   -35738.766      2637.62   -38376.386    83.050905    237.35699 
   25350    135.20507   -766.58612    135124.84   -35778.935    2614.7978   -38393.733    83.367437    235.30324 
   25400    136.25634    -507.2391    135150.69   -35783.346     2635.129   -38418.475    83.406334    237.13282 
   25450    139.71932   -545.00713    135194.62   -35776.806    2702.1012   -38478.907    83.493184    243.15959 
   25500    136.59825   -513.87923    135283.52   -35800.583    2641.7412   -38442.324    83.453064    237.72785 
   25550    135.98906     -830.616    135354.81   -35860.248    2629.9599   -38490.208    83.628168    236.66766 
   25600    136.47397   -739.77798    135405.13   -35842.882    2639.3377   -38482.219    83.919261    237.51157 
   25650    136.55821   -543.86716    135417.67   -35836.485     2640.967   -38477.452    84.321655    237.65818 
   25700    134.53346   -924.99724    135491.96   -35879.474    2601.8093   -38481.284    84.364736    234.13442 
   25750    135.45043   -621.34166    135489.83   -35796.368     2619.543   -38415.911     84.57392    235.73026 
   25800    137.35363    -777.4039    135437.67   -35808.112    2656.3499   -38464.462    84.713954    239.04247 
   25850    137.33912   -583.45286    135425.02   -35810.752    2656.0693   -38466.822     84.70097    239.01722 
   25900     134.5575   -566.90997    135413.64   -35839.098    2602.2742   -38441.373    84.690052    234.17625 
   25950     135.3063   -808.09244    135344.03   -35857.435    2616.7556    -38474.19    84.780387    235.47942 
   26000    134.07542   -733.34905    135364.61   -35845.398     2592.951   -38438.349    84.875576    233.33726 
   26050    136.31562   -785.63783    135340.05   -35805.702    2636.2754   -38441.978    84.909859    237.23599 
   26100    136.59877   -910.56724    135301.57   -35791.475    2641.7513   -38433.227    85.092905    237.72876 
   26150    140.06256   -573.10827    135381.75   -35751.138    2708.7393   -38459.877    85.228081    243.75695 
   26200    137.73529   -635.80576    135468.15   -35758.889    2663.7311    -38422.62    85.532146     239.7067 
   26250    138.17368   -431.07342    135535.53   -35791.513    2672.2093   -38463.723    85.961217    240.46965 
   26300     138.4157     -565.241    135595.62   -35796.925    2676.8898   -38473.814    85.995434    240.89084 
   26350     140.0947    -564.6597    135607.49   -35751.841    2709.3608   -38461.202    86.117862    243.81288 
   26400    138.99997   -638.39465    135689.78   -35762.126    2688.1893   -38450.315    86.103312    241.90767 
   26450    140.23628   -875.11979    135683.48   -35702.064    2712.0989   -38414.163    86.293096    244.05927 
   26500    139.40009   -543.60958    135734.27    -35702.24    2695.9275   -38398.168     86.51164    242.60402 
   26550    137.10963   -578.43516    135803.32   -35738.793    2651.6312   -38390.424    86.449937    238.61784 
   26600    137.57421   -464.03954    135859.76   -35772.469    2660.6157   -38433.085    86.703749    239.42635 
   26650    137.56137   -741.47505    135840.36   -35765.129    2660.3675   -38425.497    86.772758    239.40402 
   26700    138.46209    -693.8849    135808.04   -35805.268    2677.7871   -38483.055     87.07637    240.97158 
   26750    135.45113   -639.08745    135783.58    -35887.76    2619.5564   -38507.316    87.442802    235.73146 
   26800    136.48531    -686.7728    135793.78   -35868.034    2639.5571   -38507.591    87.571525    237.53131 
   26850    136.95031   -875.90595    135823.48   -35833.263      2648.55   -38481.813    87.564966    238.34057 
   26900    136.43728   -556.11865    135779.17   -35816.197    2638.6282   -38454.826    87.555705    237.44772 
   26950    140.41566   -677.13542    135821.18   -35791.696     2715.568   -38507.264    87.551855    244.37146 
   27000     139.0196   -802.92506    135786.07   -35778.059     2688.569   -38466.628     87.58927    241.94184 
   27050    139.54081   -541.30037     135817.6   -35789.631    2698.6489    -38488.28    87.863298    242.84892 
   27100    132.43035    -783.9677    135811.13   -35841.838    2561.1361   -38402.974    87.735727    230.47427 
   27150    137.11846   -721.54957     135776.9   -35829.189    2651.8019   -38480.991    87.904001     238.6332 
   27200    137.87518   -799.84472    135704.85   -35813.767    2666.4364   -38480.203    88.138255    239.95015 
   27250    137.04346   -813.53897    135770.92   -35737.435    2650.3514   -38387.786    88.410247    238.50268 
   27300    139.65964    -878.9633    135806.12   -35698.223    2700.9469    -38399.17    88.485155    243.05572 
   27350    138.54696   -753.18994    135716.95   -35713.172    2679.4283   -38392.601    88.382858    241.11928 
   27400     138.3382   -623.51927    135673.08   -35709.773    2675.3911   -38385.164    88.401811    240.75597 
   27450    136.36285   -754.86275    135691.89   -35753.719    2637.1887   -38390.908    88.578598    237.31818 
   27500    137.99957   -827.45474    135634.48   -35711.296    2668.8421   -38380.138    88.505518    240.16664 
   27550      139.243   -771.13292    135651.08    -35701.57    2692.8895   -38394.459    88.735577    242.33064 
   27600    136.88982    -842.0479    135611.95   -35760.317      2647.38   -38407.697    89.003792    238.23528 
   27650    136.99831   -733.55548    135628.84   -35722.407    2649.4782   -38371.885    89.123537     238.4241 
   27700     139.7251   -755.45226    135683.22   -35717.059    2702.2129   -38419.272    89.452148    243.16965 
   27750    138.04848   -831.45553    135717.49   -35712.165     2669.788   -38381.953    89.721851    240.25176 
   27800    138.35814   -898.40222    135740.02   -35707.894    2675.7766    -38383.67    89.832532    240.79066 
   27850    135.57986    -976.4507    135611.88   -35707.404    2622.0461    -38329.45     89.94168     235.9555 
   27900    137.11423   -839.16616    135526.92   -35704.938      2651.72   -38356.658     90.03577    238.62583 
   27950    137.27922   -697.22845    135515.37   -35650.713    2654.9109   -38305.624    90.227653    238.91298 
   28000    137.86981   -798.74772    135573.84   -35622.753    2666.3327   -38289.085    90.276032    239.94081 
   28050    140.24362   -786.98966    135602.33   -35619.707    2712.2409   -38331.948    90.372087    244.07205 
   28100    135.18872   -796.15939    135617.06   -35683.461    2614.4817   -38297.943    90.335577     235.2748 
   28150    139.21828   -908.32116    135554.49   -35685.938    2692.4113    -38378.35    90.523941     242.2876 
   28200    138.11073    -635.8464    135526.95   -35719.905    2670.9919   -38390.897    90.655523    240.36009 
   28250    138.58101   -935.46277    135497.45   -35697.603    2680.0868    -38377.69     90.67512    241.17854 
   28300    141.66301   -830.18319    135543.62   -35717.286    2739.6912   -38456.977    91.031818    246.54228 
   28350     139.5241   -864.30786    135503.88   -35740.348    2698.3257   -38438.674    91.157413    242.81984 
   28400    138.36306   -853.86103    135475.57   -35760.132    2675.8718   -38436.004    91.118697    240.79923 
   28450    135.31335   -821.34473    135491.29   -35775.665     2616.892   -38392.557    91.120525     235.4917 
   28500    139.15786   -790.96593    135498.73    -35801.25    2691.2428   -38492.493    91.387967    242.18246 
   28550    134.82069   -634.08269    135503.26   -35777.153    2607.3641   -38384.517    91.742428    234.63429 
   28600    135.91269    -959.4815    135524.98   -35714.249    2628.4829   -38342.732     91.68481    236.53475 
   28650    136.03171   -679.09958       135566   -35726.405    2630.7847   -38357.189    91.881467    236.74189 
   28700    139.96263    -780.0082    135657.73   -35661.439    2706.8067   -38368.245    92.015288    243.58304 
   28750     135.9723   -601.97261    135682.18   -35670.547    2629.6357   -38300.183    92.111888    236.63849 
   28800    139.65993   -761.59149    135683.41   -35638.932    2700.9527   -38339.885    92.261531    243.05624 
   28850    141.15653    -831.9543    135701.83   -35642.075    2729.8961   -38371.972    92.573666    245.66083 
   28900    138.40899   -758.50263    135697.71   -35625.006      2676.76   -38301.766    92.774755    240.87916 
   28950     138.9616   -723.68485    135705.26   -35652.538    2687.4472   -38339.985    92.908623    241.84089 
   29000    137.39378   -371.90794     135741.3     -35678.8    2657.1264   -38335.926    92.932702    239.11235 
   29050    139.40401   -786.88511    135824.36   -35710.047    2696.0032    -38406.05    93.091506    242.61084 
   29100     138.6516   -974.08379    135693.09    -35699.93    2681.4521   -38381.382    93.278936     241.3014 
   29150    138.64102   -790.67811    135725.26   -35714.444    2681.2473   -38395.692    93.320647    241.28297 
   29200    138.13781   -785.33746    135667.11    -35736.97    2671.5156   -38408.486    93.430728    240.40722 
   29250     136.4142   -565.11025    135726.69   -35727.742    2638.1819   -38365.924    93.962755    237.40755 
   29300    138.11402    -267.6147    135739.52   -35778.518    2671.0555   -38449.574    93.993814    240.36582 
   29350    133.91618   -827.00843    135766.19   -35792.211    2589.8715   -38382.083     93.99666    233.06014 
   29400    137.94511   -574.21104    135705.67    -35765.64    2667.7889   -38433.429    94.154447    240.07186 
   29450    136.67975   -764.87169    135756.49   -35757.048    2643.3174   -38400.365    94.343931    237.86969 
   29500     136.5302   -791.51481    135668.56    -35748.57    2640.4252   -38388.995    94.219173    237.60942 
   29550    138.07844   -784.86862     135653.5   -35734.469    2670.3674   -38404.836    94.496653    240.30389 
   29600    137.52951   -567.07397    135683.64   -35718.609    2659.7514   -38378.361    94.723731    239.34858 
   29650    139.72901   -767.15062    135648.04   -35743.893    2702.2887   -38446.181    94.744785    243.17646 
   29700    140.10639   -948.67157    135618.88    -35750.18    2709.5869   -38459.767    95.144707    243.83322 
   29750    138.97387   -790.49063    135552.69   -35744.348    2687.6845   -38432.033    95.242874    241.86225 
   29800    140.84235   -541.88636    135586.29   -35716.844    2723.8201   -38440.664    95.194526    245.11405 
   29850    140.88931   -532.60014    135678.02   -35728.543    2724.7282   -38453.271    95.362019    245.19577 
   29900     136.9387   -567.56336    135614.42   -35757.291    2648.3254   -38405.616    95.624151    238.32036 
   29950    138.96842   -625.98675    135573.16   -35714.136    2687.5791   -38401.715    95.641575    241.85276 
   30000    136.96455   -850.23788     135462.7   -35730.296    2648.8253   -38379.121    95.513979    238.36534 
   30050    136.52946   -777.84375    135456.96   -35739.517    2640.4108   -38379.927    95.617593    237.60813 
   30100    136.99834   -472.10923    135481.69   -35728.256    2649.4788   -38377.735     95.75839    238.42415 
   30150    137.00046   -695.46932    135522.45   -35759.366    2649.5197   -38408.886    95.718804    238.42783 
   30200    137.46815    -780.6604    135537.68    -35760.54    2658.5647   -38419.105    95.762145    239.24178 
   30250    141.38884   -840.59337    135514.24   -35748.728    2734.3888   -38483.117     95.81104    246.06512 
   30300     138.7692   -805.62703    135449.58   -35731.376    2683.7263   -38415.103    96.095472    241.50605 
   30350    137.32288   -785.30676    135420.13   -35809.277    2655.7552   -38465.032    96.287664    238.98896 
   30400    138.47226     -630.674    135365.67   -35776.106    2677.9837   -38454.089    96.364384    240.98928 
   30450    134.83028   -718.01782    135263.02   -35770.135    2607.5497   -38377.684    96.325041    234.65099 
   30500    136.16845   -568.13174    135228.22   -35743.214    2633.4291   -38376.643     96.55483    236.97985 
   30550    134.35535    -583.1361    135164.33   -35747.766    2598.3646   -38346.131    96.647272    233.82443 
   30600     139.6597   -482.86166    135100.57   -35752.515    2700.9482   -38453.463    96.642761    243.05584 
   30650    136.25168   -708.13121    135099.18   -35752.797    2635.0387   -38387.836    96.838619     237.1247 
   30700    139.10901   -725.24714    135037.49   -35710.059    2690.2981   -38400.357    97.099805    242.09744 
   30750    137.97258   -645.32947     135039.1   -35686.419      2668.32   -38354.739    97.561245    240.11966 
   30800    138.35743   -762.12162    135039.79   -35683.236     2675.763   -38358.999    97.904978    240.78944 
   30850    138.93375   -773.65533    134978.39   -35706.588    2686.9087   -38393.497    97.925371    241.79244 
   30900     137.2113   -687.06385    134939.94   -35726.517    2653.5974   -38380.115    98.108643    238.79478 
   30950     135.8254   -495.27921    135024.02   -35688.138    2626.7947   -38314.933    98.438158    236.38283 
   31000    138.53736   -932.44493    135011.23   -35664.958    2679.2427     -38344.2    98.595758    241.10258 
   31050    134.49791   -502.97461    134906.95   -35738.495    2601.1218   -38339.617    98.550711    234.07255 
   31100    138.99633   -798.80797    134930.69     -35682.5     2688.119   -38370.619    98.864742    241.90134 
   31150    138.24567   -695.56227    134883.87   -35681.585    2673.6015   -38355.187    98.842374    240.59493 
   31200    139.78266   -759.23953    134823.22   -35699.498    2703.3262   -38402.824    98.877014    243.26983 
   31250    137.51073   -853.92737    134687.37   -35698.466    2659.3882   -38357.854    99.006802    239.31589 
   31300    136.07237   -578.91136    134656.16   -35728.748     2631.571   -38360.319     99.33692    236.81264 
   31350    137.95137   -700.26386    134654.49   -35695.343      2667.91   -38363.253    99.791237    240.08275 
   31400     136.1971   -576.59091    134703.84   -35732.124    2633.9833   -38366.107    99.792292    237.02972 
   31450    138.11068   -764.20008     134596.1    -35746.93    2670.9909   -38417.921    100.12863       240.36 
   31500    138.54698   -775.00792    134628.42   -35692.758    2679.4287   -38372.187     100.3476    241.11931 
   31550    135.60829   -772.34661    134648.93   -35653.784    2622.5959    -38276.38    100.75308    236.00498 
   31600    137.60352   -864.33423    134653.06   -35619.825    2661.1826   -38281.007    101.10339    239.47736 
   31650    138.17035    -499.3363    134755.95   -35608.842    2672.1449   -38280.987    101.41123    240.46386 
   31700    138.00746   -569.29242    134836.99   -35677.716    2668.9947   -38346.711    101.67323    240.18037 
   31750    139.24801   -500.22131    134840.33    -35672.81    2692.9863   -38365.796    101.79975    242.33935 
   31800     138.0572   -871.78005    134864.26   -35738.667    2669.9566   -38408.624    101.69968    240.26693 
   31850    134.27385   -606.76636    134839.34   -35766.473    2596.7885   -38363.262    101.89633     233.6826 
   31900    134.58195   -583.87366     134840.7   -35767.268    2602.7471   -38370.015    102.13849    234.21881 
   31950    136.84841   -714.06201    134922.85   -35775.604    2646.5793   -38422.183    102.15471    238.16323 
   32000    135.83613    -881.2325    134924.04   -35785.535    2627.0023   -38412.538    102.22597    236.40151 
   32050    134.95513   -726.96438     134922.8   -35800.797    2609.9641   -38410.761    102.51036    234.86826 
   32100    138.24429   -488.47229    134864.67   -35774.987    2673.5749   -38448.562     102.6737    240.59254 
   32150    138.78519   -647.46532    134869.41    -35818.68    2684.0356   -38502.715    102.75398    241.53389 
   32200    137.24593   -831.33983    134936.47   -35805.669     2654.267   -38459.936    103.20636    238.85503 
   32250    135.31859   -741.76873    134917.77   -35778.487    2616.9932   -38395.481    103.19694     235.5008 
   32300    139.37815   -565.18095    134949.21   -35820.031    2695.5031   -38515.534    103.66894    242.56583 
   32350    136.91773   -597.08513    134972.18   -35818.328    2647.9199   -38466.248    103.60448    238.28387 
   32400    135.16566   -508.03521    134912.08   -35840.108    2614.0356   -38454.143    103.57296    235.23465 
   32450    139.07562   -607.05292    134921.61   -35799.509    2689.6522   -38489.161    103.88126    242.03932 
   32500    138.82406   -362.65163    135041.97   -35772.639    2684.7873   -38457.427    104.02626    241.60153 
   32550    135.90481   -526.89744    135191.26   -35712.802    2628.3304   -38341.133     104.0679    236.52103 
   32600     137.9485   -598.03783    135256.56   -35677.629    2667.8545   -38345.484    104.17823    240.07776 
   32650    137.11624   -746.22719    135264.81   -35693.854    2651.7588   -38345.613    104.26325    238.62933 
   32700    141.53773   -689.15953    135206.64   -35670.248    2737.2682   -38407.516    104.36003    246.32424 
   32750    138.59806   -724.42971    135126.84   -35651.366    2680.4166   -38331.783    104.39959    241.20821 
   32800    140.14195   -600.28762     135092.8   -35625.523    2710.2747   -38335.798    104.71535    243.89511 
   32850    136.09758   -601.11777    135153.28   -35662.343    2632.0585   -38294.402    104.62825    236.85651 
   32900    137.19547   -622.78904    135238.75   -35663.709    2653.2912       -38317    104.92125    238.76723 
   32950    138.85418   -690.84103    135225.98   -35654.172    2685.3698   -38339.542    104.98454    241.65395 
   33000    140.43145   -578.05275    135158.31   -35640.045    2715.8734   -38355.918     105.0655    244.39894 
   33050    137.87845    -774.5983    135147.84   -35646.307    2666.4997   -38312.807    104.99296    239.95585 
   33100     138.6205   -602.11266    135174.59   -35666.769    2680.8506   -38347.619    105.21721    241.24727 
   33150    135.88862   -674.43808    135200.05   -35709.254    2628.0174   -38337.272    105.23335    236.49286 
   33200    134.61378   -735.27247    135248.32   -35757.866    2603.3626   -38361.229    105.41212     234.2742 
   33250    134.39586   -651.52579    135296.86   -35758.268    2599.1482   -38357.416    105.48085    233.89494 
   33300    133.02771   -791.03006    135308.39   -35759.619    2572.6887   -38332.308    105.67392    231.51388 
   33350    139.23046   -780.70229    135225.32   -35729.568    2692.6469   -38422.215    106.00083     242.3088 
   33400    136.63578   -664.10083    135137.32   -35725.018    2642.4671   -38367.485    106.21933    237.79317 
   33450    134.93939   -978.06206    135064.44   -35724.372    2609.6597   -38334.031    106.35551    234.84087 
   33500    137.32328   -706.29078    135023.63   -35719.138    2655.7631   -38374.901    106.56996    238.98967 
   33550    136.08044   -713.24232    135029.95   -35768.234    2631.7271   -38399.961     106.7627    236.82669 
   33600    137.16169   -750.92888     134955.9   -35736.502    2652.6379    -38389.14    107.06659    238.70843 
   33650    138.35824   -906.16483    134961.99    -35740.16    2675.7785   -38415.939    107.51947    240.79084 
   33700    139.03137   -747.50178     134902.6    -35664.45    2688.7966   -38353.247    107.85127    241.96232 
   33750    139.15039   -876.82589    134886.41   -35675.851    2691.0984   -38366.949    108.03483    242.16946 
   33800    138.49693   -783.10744    134838.07   -35618.366    2678.4608   -38296.827    108.19033    241.03222 
   33850    140.62089   -573.69703    134854.79    -35590.29     2719.537   -38309.827    108.25742    244.72862 
   33900    140.54775   -949.37729    134818.48       -35602    2718.1227   -38320.123     108.3279    244.60135 
   33950    139.65245   -760.45633    134880.21   -35624.198    2700.8079   -38325.006    108.40579    243.04321 
[...]
   92000    134.58784   -835.34762     135575.7   -35746.237     2602.861   -38349.098     291.9872    234.22906 
   92050    139.21522     -830.295    135598.41   -35720.826    2692.3521   -38413.178    292.14435    242.28228 
   92100    138.22391   -663.91672    135659.24   -35735.227    2673.1808   -38408.408    292.54606    240.55707 
   92150    137.78149   -689.72409     135733.2   -35711.809    2664.6245   -38376.433    292.51135    239.78709 
   92200    135.49561   -750.52327    135736.76   -35751.926    2620.4167   -38372.342    292.75081    235.80888 
   92250    139.18235   -670.87438    135711.91    -35748.94    2691.7164   -38440.657    292.55892    242.22508 
   92300    139.53302   -586.11569    135798.61   -35759.147    2698.4983   -38457.645    292.55296    242.83537 
   92350    137.84108   -855.94298    135819.91   -35733.719    2665.7769   -38399.496    292.76867     239.8908 
   92400    136.40769   -657.97855    135754.52   -35746.687    2638.0559   -38384.743    292.75752    237.39621 
   92450    135.43609   -996.50478    135772.21   -35746.785    2619.2657   -38366.051    293.33457     235.7053 
   92500    139.24781   -863.88713    135747.83   -35753.768    2692.9824   -38446.751    293.58345      242.339 
   92550    136.42804   -903.60033    135785.59   -35775.707    2638.4495   -38414.156    293.43473    237.43164 
   92600    136.34891    -705.9416    135749.06   -35725.731    2636.9192    -38362.65    293.42453    237.29392 
   92650     138.1732   -849.64345    135742.63    -35796.12       2672.2    -38468.32    293.80502    240.46881 
   92700      135.988   -717.07534    135713.82   -35805.622    2629.9394   -38435.561    293.86322    236.66581 
   92750    136.78022   -765.78036    135649.62   -35816.739    2645.2604       -38462    293.81273    238.04454 
   92800    136.60052   -800.29949    135615.08   -35838.433    2641.7852   -38480.219    293.37366    237.73181 
   92850     133.7871   -655.74358    135574.73   -35822.788    2587.3751   -38410.163    293.65381    232.83549 
   92900    134.94369   -652.35692    135553.34   -35806.362    2609.7429   -38416.105    294.12694    234.84835 
   92950    141.75263    -605.5097    135615.29   -35763.738    2741.4243   -38505.162    294.41898    246.69824 
   93000    140.40197   -565.54841    135624.74   -35743.728    2715.3032   -38459.031    294.23857    244.34763 
   93050    138.20578   -804.64085    135553.26   -35762.148    2672.8301   -38434.978    294.41916    240.52552 
   93100    140.32419   -813.05431    135478.14   -35810.507    2713.7991   -38524.306    294.60789    244.21227 
   93150    138.88837   -876.25793    135422.13   -35842.768     2686.031   -38528.799    294.24533    241.71345 
   93200    138.25821   -626.41772    135457.16    -35800.05    2673.8441   -38473.894    294.44042    240.61676 
   93250    138.49597   -758.53709    135492.84   -35821.487    2678.4422   -38499.929    294.65692    241.03054 
   93300     135.7335    -727.6888    135517.51   -35815.228    2625.0175   -38440.246    294.52341     236.2229 
   93350    135.62607   -782.64223    135516.09   -35819.375    2622.9397   -38442.315    294.53159    236.03592 
   93400    136.92802   -541.02931    135571.06   -35838.185    2648.1189   -38486.304    294.45484    238.30177 
   93450    137.36519   -691.33334    135594.04    -35805.69    2656.5734   -38462.263    294.18196    239.06259 
   93500    138.28809   -710.14443    135605.09   -35790.624    2674.4219   -38465.046    294.38909    240.66875 
   93550    138.69741   -859.94724    135631.58   -35759.354    2682.3379   -38441.692    294.44418    241.38111 
   93600     137.1021   -665.84324    135593.91   -35799.683    2651.4856   -38451.168    294.36373    238.60474 
   93650    137.06929   -522.97381    135658.45   -35796.748     2650.851   -38447.599    294.43558    238.54763 
   93700    133.31412   -580.94377     135641.6   -35828.461    2578.2278   -38406.688    294.51608    232.01234 
   93750    137.18765   -526.58486    135713.88   -35814.649      2653.14   -38467.789    294.76177    238.75362 
   93800    135.31112   -649.62521    135707.62   -35834.059    2616.8489   -38450.908    294.87346    235.48781 
   93850    136.71821   -960.66829    135732.05   -35801.118    2644.0612    -38445.18    295.11265    237.93663 
   93900    137.54256   -799.96387    135747.65   -35771.751    2660.0038   -38431.755    295.38132    239.37129 
   93950    139.16082   -910.48822    135852.68   -35764.387    2691.3001   -38455.687    296.35455    242.18761 
   94000    138.04129   -975.29623    135902.39   -35798.135    2669.6489   -38467.784    296.22162    240.23924 
   94050    136.67123   -825.84892    135870.84   -35808.143    2643.1526   -38451.295    296.45768    237.85486 
   94100    137.59271   -740.51638     135771.2   -35773.929    2660.9736   -38434.903    296.46926    239.45856 
   94150    138.95663   -840.28324    135779.65   -35728.664    2687.3512   -38416.015    296.30078    241.83225 
   94200     137.5402   -733.90892    135755.53    -35800.23     2659.958   -38460.188    296.33144    239.36717 
   94250    134.88702   -835.52159    135742.68   -35795.922    2608.6469   -38404.569    296.31532    234.74972 
   94300    137.08228   -776.26288    135706.33   -35733.961    2651.1022   -38385.063    296.67044    238.57024 
   94350    135.96342   -782.26517    135739.54   -35680.404    2629.4639   -38309.868    296.97221    236.62303 
   94400    140.31738   -797.89237    135722.47   -35662.095    2713.6674   -38375.763    296.98839    244.20043 
   94450    138.06485   -776.57217    135742.59    -35667.48    2670.1046   -38337.585    297.11434    240.28024 
   94500      138.002   -807.40531    135747.92   -35676.889    2668.8891   -38345.778    297.64782    240.17087 
   94550    138.01371   -642.90701     135739.9    -35718.74    2669.1156   -38387.855    297.94823    240.19125 
   94600     138.8606   -737.53861    135752.86   -35706.284    2685.4939   -38391.778    297.93804    241.66512 
   94650     136.9431   -654.55545    135673.27   -35724.863    2648.4104   -38373.273    298.42633    238.32801 
   94700    137.73137   -707.85547    135669.51   -35709.461    2663.6552   -38373.117     298.5823    239.69987 
   94750     138.4593   -639.95482    135714.12   -35710.888    2677.7331   -38388.622    298.38699    240.96673 
   94800    139.90744   -954.47465    135651.75   -35670.385    2705.7392   -38376.124     298.1869    243.48698 
   94850    139.19264   -849.95742    135601.68   -35729.525    2691.9155    -38421.44    298.55917    242.24299 
   94900    140.31198   -294.29977    135662.88   -35686.424     2713.563   -38399.987    298.68329    244.19102 
   94950    139.78269   -534.43449    135701.05    -35717.03    2703.3267   -38420.357    298.71003    243.26987 
   95000    138.60217   -531.67164    135750.25   -35729.997     2680.496   -38410.493    298.78087    241.21536 
   95050    140.50223   -385.24447    135870.89   -35709.373    2717.2423   -38426.616    299.14574    244.52212 
   95100    137.77167   -723.67733    135808.91   -35701.397    2664.4345   -38365.832    299.21815       239.77 
   95150    137.28443   -873.69583    135793.02   -35769.007    2655.0117   -38424.019    299.60249    238.92205 
   95200    138.05588   -827.49689    135805.53   -35713.619    2669.9311    -38383.55    299.61244    240.26463 
   95250    137.75801   -620.32739    135794.04   -35746.915    2664.1705   -38411.085    299.60061    239.74624 
   95300    137.20268   -691.37036    135747.83   -35715.121    2653.4307   -38368.551    299.73486    238.77978 
   95350    138.70337   -733.47279    135810.67   -35709.503    2682.4532   -38391.956    299.62387    241.39148 
   95400    135.47022   -952.84502    135839.21   -35723.768    2619.9257   -38343.694    299.76696     235.7647 
   95450    137.56696   -572.19051    135807.41   -35749.252    2660.4756   -38409.728    300.03556    239.41374 
   95500    135.61599   -675.42901    135843.26   -35746.835    2622.7448   -38369.579    300.03347    236.01838 
   95550    135.97897   -662.04157    135972.12   -35757.124    2629.7647   -38386.888    300.30429    236.65009 
   95600    136.43849   -794.61405    135990.73    -35767.98    2638.6517   -38406.631      299.959    237.44983 
   95650    137.37787   -764.54885    136022.78   -35731.683    2656.8187   -38388.502    299.93016    239.08466 
   95700    139.11121   -813.24301    135933.36   -35735.923    2690.3407   -38426.264    299.68771    242.10127 
   95750    137.97548   -794.48805    135873.64   -35746.989    2668.3762   -38415.365    299.55679    240.12471 
   95800    136.77283   -646.73016    135866.13   -35758.335    2645.1175   -38403.452    299.91162    238.03168 
   95850    136.44888   -901.75959    135853.62   -35775.807    2638.8524    -38414.66    299.82043    237.46789 
   95900     138.2372   -848.61252     135788.9   -35757.565    2673.4377   -38431.003    299.96916    240.58019 
   95950    139.17706   -818.15007    135754.16   -35687.885    2691.6142   -38379.499     299.7137    242.21588 
   96000    139.39304   -910.90196    135686.31   -35626.658    2695.7911   -38322.449     299.5553    242.59175 
   96050    138.85679   -816.21095    135658.95   -35586.041    2685.4203   -38271.462    299.47872     241.6585 
   96100    140.03828    -664.7621    135622.54   -35593.289    2708.2697   -38301.558    299.57982    243.71469 
   96150    140.19428   -636.70916    135614.41   -35653.058    2711.2866   -38364.345    299.80592    243.98617 
   96200    138.57404   -566.39171    135662.04   -35656.933     2679.952   -38336.885    299.87339     241.1664 
   96250    141.44387    -772.6398    135649.05   -35642.247    2735.4531     -38377.7    300.21282     246.1609 
   96300    141.57657   -646.55482    135702.96    -35599.03    2738.0194    -38337.05    300.47988    246.39184 
   96350     137.6869   -889.39665    135643.06   -35618.792    2662.7951   -38281.587    300.76751    239.62248 
   96400    141.13667   -667.79159    135608.65   -35584.487    2729.5119   -38313.998    301.09631    245.62626 
   96450    139.26087    -889.9101    135602.46   -35588.341    2693.2351   -38281.576    301.23809    242.36174 
   96500    137.72593   -774.84582    135562.35   -35638.765      2663.55   -38302.315    300.98164     239.6904 
   96550    139.53459   -641.45042    135633.32   -35597.307    2698.5287   -38295.835    301.52958     242.8381 
   96600    141.45523   -601.50773    135674.87   -35660.413    2735.6727   -38396.086    302.29612    246.18066 
   96650    138.57955    -540.8246    135758.24   -35635.038    2680.0586   -38315.096    302.37663      241.176 
   96700    138.49329   -941.05256    135745.09   -35638.387    2678.3904   -38316.777    302.39701    241.02587 
   96750    139.88497   -630.55656    135780.66   -35626.605    2705.3047    -38331.91    302.80754    243.44787 
   96800    140.56835   -627.16504    135790.31   -35611.717     2718.521   -38330.238     302.9128     244.6372 
   96850    139.25471   -813.51787    135798.25     -35666.5    2693.1159   -38359.616     302.6808    242.35101 
   96900    141.23565   -775.43057     135737.3   -35639.261    2731.4262   -38370.687     302.9226    245.79852 
   96950    141.46357    -887.1459    135722.82   -35611.471    2735.8341   -38347.305    303.08988    246.19519 
   97000     140.9081   -554.65908    135716.57   -35626.651    2725.0915   -38351.742    303.44392    245.22847 
   97050    144.51527   -523.66775    135675.73   -35589.569    2794.8523   -38384.421    303.34016    251.50618 
   97100    142.59222   -654.46508    135713.15   -35522.704    2757.6615   -38280.366    304.05153    248.15941 
   97150    140.21022   -689.00135    135760.53    -35562.05    2711.5949   -38273.645    304.03373    244.01392 
   97200    140.45136   -790.96529    135698.34   -35591.416    2716.2585   -38307.675    304.05263    244.43359 
   97250    140.79339   -815.79185    135615.36   -35555.973    2722.8732   -38278.846     304.3295    245.02884 
   97300    143.10156   -638.72756    135575.58   -35600.465     2767.512   -38367.977    304.56541    249.04585 
   97350    140.60961   -536.50427    135657.98   -35627.767     2719.319   -38347.086    305.14895    244.70901 
   97400    138.54628   -554.30482    135761.59   -35608.742    2679.4152   -38288.157    305.58774     241.1181 
   97450    140.91149   -686.33014    135817.22   -35592.003    2725.1572    -38317.16    305.65065    245.23438 
   97500    139.46601   -663.78353    135831.38   -35646.851    2697.2023   -38344.054    305.86622    242.71874 
   97550    137.80186   -907.27013    135764.39   -35640.727    2665.0184   -38305.745    306.24293    239.82255 
   97600    138.95919   -1045.5031    135676.41   -35639.205    2687.4006   -38326.605    306.14742     241.8367 
   97650    136.57492   -813.18895    135598.09   -35644.872    2641.2901   -38286.162    306.40477    237.68725 
   97700     139.4219   -670.10225    135597.33   -35612.649    2696.3493   -38308.998    306.03919    242.64198 
   97750    141.42783   -581.52022    135604.54   -35655.723    2735.1428   -38390.866     305.7612    246.13298 
   97800    137.47144   -747.73885    135601.08     -35630.4    2658.6283   -38289.028    305.88333     239.2475 
   97850    140.48758   -600.96183    135569.98    -35658.42    2716.9589   -38375.379    306.09993    244.49662 
   97900    139.31432   -705.95439    135528.29   -35689.066    2694.2687   -38383.335    306.51327    242.45476 
   97950    137.38134   -477.26072    135552.76   -35689.545    2656.8859    -38346.43    306.71311     239.0907 
   98000    137.99443   -636.80072    135575.06   -35681.154    2668.7426   -38349.896    307.23179    240.15768 
   98050    138.61608   -724.41146    135605.72   -35737.479     2680.765   -38418.244    307.40402    241.23957 
   98100    138.66138   -567.05052    135651.26   -35665.678    2681.6412   -38347.319    307.55976    241.31841 
   98150    137.91942    -860.6911    135630.27   -35684.427     2667.292   -38351.719    307.51736    240.02715 
   98200    142.11197   -641.07381    135599.48   -35635.973    2748.3739   -38384.347    307.80595    247.32363 
   98250    140.55675   -556.08464    135592.05   -35587.106    2718.2966   -38305.402    307.92593      244.617 
   98300    141.42208   -882.68906    135625.85   -35585.058    2735.0318    -38320.09    308.21103    246.12298 
   98350    139.51342   -476.00476     135671.7   -35635.511    2698.1192    -38333.63    308.06147    242.80126 
   98400    139.54234    -992.1889    135763.26   -35665.902    2698.6785   -38364.581      308.128    242.85159 
   98450    141.23305   -838.22161    135639.98   -35653.329     2731.376   -38384.705    308.06392      245.794 
   98500    137.09055   -802.47847     135562.9   -35721.954    2651.2621   -38373.216    308.16558    238.58463 
   98550    136.73726   -627.71091    135547.32   -35727.968    2644.4297   -38372.398    308.61175    237.96979 
   98600    136.44668   -805.19759     135520.2   -35717.317    2638.8099   -38356.127    308.80557    237.46407 
   98650    137.08251   -752.57339    135524.83   -35733.056    2651.1067   -38384.163    308.61532    238.57064 
   98700    138.47891   -855.58514    135569.81   -35748.685    2678.1124   -38426.798    308.59153    241.00086 
   98750    137.19735   -686.50639    135595.71   -35722.091    2653.3276   -38375.418    308.92277     238.7705 
   98800    137.85243   -597.82857    135604.95   -35737.852    2665.9965   -38403.849    308.80926    239.91057 
   98850    136.03337   -641.91439    135585.52     -35792.3    2630.8168   -38423.117    309.27368    236.74477 
   98900    138.67048   -643.11821     135549.5   -35776.274    2681.8172   -38458.091     310.0167    241.33425 
   98950    138.92484   -794.81473    135513.34   -35740.676    2686.7363   -38427.412    310.41334    241.77692 
   99000    137.41015   -666.30375    135478.91    -35746.34     2657.443   -38403.783    310.71114    239.14084 
   99050    136.38119   -802.95508    135355.14   -35741.308    2637.5434   -38378.852    310.44134     237.3501 
   99100    139.01679   -727.67357    135333.49   -35706.551    2688.5147   -38395.065    310.71755    241.93695 
   99150      137.747   -899.44769    135311.92   -35682.744    2663.9575   -38346.701    311.03477    239.72707 
   99200    137.37795   -507.36594    135292.65   -35703.756    2656.8202   -38360.576     311.2919     239.0848 
   99250    139.81476    -666.2192    135329.87   -35704.064     2703.947   -38408.011    311.25677    243.32569 
   99300    134.88427   -534.75298    135384.35   -35722.496    2608.5938    -38331.09     311.5006    234.74495 
   99350    140.01874   -559.65368    135466.51    -35689.24    2707.8919   -38397.132    311.79216    243.68069 
   99400    138.08817   -739.99151    135486.48   -35728.279    2670.5556   -38398.834    312.04146    240.32083 
   99450    137.52357   -629.95744    135509.28   -35738.029    2659.6365   -38397.665    312.08524    239.33824 
   99500    139.84888   -517.12932    135485.64   -35701.127    2704.6067   -38405.733    312.38729    243.38506 
   99550    137.36737   -858.51066    135433.66   -35759.254    2656.6157   -38415.869    312.64074    239.06639 
   99600      139.373    -608.1414    135387.79    -35708.09    2695.4035   -38403.493    312.80423    242.55687 
   99650    135.81672   -633.56305    135393.65   -35767.327    2626.6269   -38393.954    313.29286    236.36773 
   99700    138.02254   -726.23641    135305.27   -35730.872    2669.2864   -38400.159    313.20257    240.20661 
   99750    136.84358   -678.22262    135306.95   -35752.105    2646.4859    -38398.59    313.31243    238.15482 
   99800    138.89658   -937.03737    135309.29   -35739.297    2686.1897   -38425.487    313.89807    241.72773 
   99850    135.70405   -756.21963     135328.5   -35785.846     2624.448   -38410.294    313.79991    236.17165 
   99900    137.47805   -790.94021    135285.06   -35816.073    2658.7561   -38474.829    313.93106    239.25901 
   99950    135.39093   -889.20607    135275.83   -35784.934    2618.3924   -38403.327     314.1392    235.62671 
  100000    137.24186   -737.42595    135260.41    -35687.26    2654.1883   -38341.449    314.11186    238.84795 
Loop time of 50.6743 on 128 procs for 100000 steps with 6489 atoms

Performance: 852.503 ns/day, 0.028 hours/ns, 1973.387 timesteps/s
96.5% CPU use with 128 MPI tasks x no OpenMP threads

MPI task timing breakdown:
Section |  min time  |  avg time  |  max time  |%varavg| %total
---------------------------------------------------------------
Pair    | 5.5147     | 12.942     | 34.669     | 301.8 | 25.54
Neigh   | 0.445      | 0.95012    | 2.8999     |  81.1 |  1.87
Comm    | 5.8738     | 14.818     | 38.324     | 303.7 | 29.24
Output  | 0.16672    | 0.16951    | 0.17993    |   0.4 |  0.33
Modify  | 3.7445     | 21.027     | 37.013     | 334.9 | 41.49
Other   |            | 0.7677     |            |       |  1.51

Nlocal:    50.6953 ave 137 max 29 min
Histogram: 96 0 0 9 7 0 0 0 7 9
Nghost:    572.406 ave 961 max 376 min
Histogram: 64 0 0 32 0 0 0 0 14 18
Neighs:    0 ave 0 max 0 min
Histogram: 128 0 0 0 0 0 0 0 0 0
FullNghs:  4063.09 ave 17322 max 1084 min
Histogram: 96 0 0 3 13 0 0 0 4 12

Total # of neighbors = 520076
Ave neighs/atom = 80.1473
Neighbor list builds = 5990
Dangerous builds = 0

write_data		${DIR}/data.eq-${NAME}-${TEMP}
write_data		run_14/data.eq-${NAME}-${TEMP}
write_data		run_14/data.eq-het_freeze_14-${TEMP}
write_data		run_14/data.eq-het_freeze_14-240
undump          1

reset_timestep  0

unfix           2
unfix           3
unfix           4


################################################
#######         Run Simulation         #########
################################################

log				${DIR}/log.run_${NAME}
log				run_14/log.run_${NAME}
log				run_14/log.run_het_freeze_14
