LAMMPS data file via write_data, version 16 Mar 2018, timestep = 6000000

6736 atoms
2 atom types

0.0000000000000000e+00 4.9219999999999999e+01 xlo xhi
0.0000000000000000e+00 4.9019635930410494e+01 ylo yhi
4.8750378019230212e-01 5.9574496219803422e+01 zlo zhi

Masses

1 18.015
2 12.01

Atoms # atomic

4381 1 2.6304650919002275e+00 2.9402273792734510e+00 1.5965865283791572e+00 1 1 1
1206 1 4.2294261490994040e-01 1.3809703005087341e+00 2.6081007654025998e+00 0 -1 0
5491 1 7.0232835451933717e-01 1.2179621364814253e+00 5.2999084547571735e+00 3 -2 0
4415 1 4.9240958360280853e+00 1.7666830986472450e+00 2.3776090917970505e+00 1 1 1
5181 1 7.3125122321844582e+00 2.7205042903480439e+00 1.7137281960397095e+00 0 1 0
5205 1 5.1142264089925868e+00 1.4553839357607170e+00 4.9808091416204281e+00 -3 -1 0
4258 1 9.4142388452755075e+00 1.4805022418768232e+00 2.7392001113744762e+00 1 -2 1
5110 1 9.5795754456536546e+00 1.1823263980341927e+00 5.5452676190142611e+00 1 2 0
1800 1 1.1489619350702823e+01 2.8440487908089320e+00 1.7464807821523671e+00 -2 2 0
62 1 2.7765517376819395e+00 5.4389309217722035e+00 2.6682850340942630e+00 1 -1 0
260 1 2.7720027016408961e+00 5.1989142926940630e+00 5.2352226351568785e+00 3 1 0
5981 1 4.7487968913182638e-01 6.5644854829633230e+00 1.6155340114396732e+00 0 -2 1
933 1 4.9453703509992550e+00 6.4803961016509657e+00 2.2352701938532933e+00 -1 2 1
2781 1 7.3189048910660768e+00 5.1427091073831681e+00 2.8454313347428677e+00 -1 -2 1
2694 1 6.8818641926961384e+00 4.8156372939672698e+00 5.5631656984595672e+00 0 1 0
2161 1 1.1601695339551204e+01 4.9852131167463840e+00 5.4573397953754901e+00 1 1 0
1984 1 9.4217342302792630e+00 6.2581326130808801e+00 1.4780699709254339e+00 0 1 0
6200 1 1.1436212466049577e+01 5.0054774332968073e+00 2.8253256639655056e+00 0 0 1
1185 1 2.9746352476500002e+00 1.0349562758268723e+01 1.6787716568185749e+00 -1 2 0
5569 1 2.3979719782294193e-01 9.1526479513203842e+00 2.5527583826646754e+00 0 0 0
354 1 4.8119162741632487e-01 8.7905781202976510e+00 5.4164441082830050e+00 -1 0 0
1093 1 5.0598037699263401e+00 9.0480135752892323e+00 2.7578499602181186e+00 -1 0 1
5527 1 7.2538639958853928e+00 1.0359542985806494e+01 1.7551037709272308e+00 2 0 0
889 1 9.3060862970304736e+00 8.6692935222965328e+00 2.9203247937189705e+00 3 -2 1
771 1 9.5573932111103659e+00 8.5506047768270097e+00 5.6037806199522286e+00 -1 2 1
6090 1 1.3254750427912687e-01 3.9684855714526148e+00 9.7563966200521488e+00 1 2 1
2778 1 2.8932635551240056e+00 2.7241897766620857e+00 6.1328689441550850e+00 -2 1 0
429 1 2.3171843891440083e+00 2.5165060299124895e+00 8.9549533080853401e+00 -1 -1 0
1181 1 1.1425772943177247e+01 1.0110017352059627e+01 1.9304327959035250e+00 1 0 1
2862 1 7.1899005907892590e+00 2.1279264135971805e+00 6.3126872868708768e+00 -2 1 1
5144 1 7.4497866974611568e+00 2.2331226802417494e+00 9.1948694296849496e+00 0 0 0
1220 1 4.8644606442562148e+00 3.4520339358991108e+00 9.7107003786569628e+00 2 -1 0
6110 1 5.7212442151198140e-01 8.5577001845017335e+00 1.3651898500006709e+01 1 1 0
4533 1 1.1883292297153773e+01 2.4801072407432314e+00 5.7336603536061119e+00 0 -3 1
5507 1 9.9883130623867498e+00 3.5303961889453395e+00 9.7149463399381943e+00 1 -2 0
2711 1 2.7179549072767659e+00 7.4078452218177135e+00 9.8766450163693431e+00 -1 1 1
6137 1 3.5004249148686173e-01 6.4209132241095892e+00 6.0709254267667809e+00 1 1 1
1745 1 1.5958053947806741e-01 6.4990244478314967e+00 8.8134824483280347e+00 2 0 1
2572 1 4.9472219365892354e+00 6.3975677894234311e+00 6.2381937568427652e+00 -2 1 1
2447 1 4.6741975243239313e+00 5.9211415754419958e+00 9.0069355355366767e+00 -1 -1 1
5845 1 6.8232180162163729e+00 7.4931010357556325e+00 9.4686543075402838e+00 -3 0 0
5979 1 9.1320665383714434e+00 5.6301003829548550e+00 6.2255635141735262e+00 -1 0 1
100 1 9.2031885526390642e+00 6.3569755758472954e+00 8.8246749740839778e+00 2 3 1
5990 1 1.1539192187407608e+01 7.6017344088752665e+00 9.2697821339836750e+00 2 -1 0
1789 1 2.7293738673195258e+00 9.9051044759550066e+00 6.1757424163756136e+00 4 -1 1
918 1 2.8420179132073047e+00 9.9131886286714028e+00 8.9063324501265235e+00 2 1 1
5120 1 4.0149314204167852e-01 1.1253620474067002e+01 1.0229725450593682e+01 1 0 0
5102 1 5.3745336248462952e+00 9.1946594035225200e+00 5.3594302815781960e+00 2 1 1
5109 1 7.6230603340778291e+00 1.0295412050842062e+01 6.3702515328945850e+00 0 0 0
5831 1 7.2685500642384184e+00 1.0300974091076194e+01 8.9163975316817652e+00 -2 1 1
2615 1 4.8592331781032057e+00 1.1539973581788578e+01 9.5900431984293633e+00 1 -1 0
4263 1 1.1680020299938125e+01 1.0147048903365244e+01 8.8081246975766909e+00 2 2 1
4262 1 9.4581400976279699e+00 1.1429284464797089e+01 9.8982226057676428e+00 2 -2 1
2712 1 1.1374458738195818e+01 1.0100742962340833e+01 6.1869556346745389e+00 0 1 1
5268 1 7.5509441719180492e-01 3.7850273954003710e+00 1.2447797195287755e+01 -4 -1 0
2137 1 5.5287849755454010e-01 1.1123841199398188e+00 1.3053626549354783e+01 -2 0 0
483 1 5.4059803934826505e+00 1.1572845028379761e+00 1.3187719932025264e+01 2 0 0
3857 1 4.9155243868659273e+00 3.6584745804137024e+00 1.2219550126799952e+01 0 0 1
1992 1 9.5382672776172779e+00 1.0365384609312700e+00 1.3032480081454199e+01 0 1 0
2691 1 9.4814582399966376e+00 3.5798091741157272e+00 1.2578485692919445e+01 0 -2 1
3777 1 2.6981008246544200e+00 5.1003975411957292e+00 1.3638363190005236e+01 0 1 0
3661 1 2.5459440104809397e+00 7.3361173130832391e+00 1.2534575131784512e+01 2 1 0
4569 1 7.0613612313697844e+00 5.0274843200949348e+00 1.3197068448747791e+01 0 3 0
5814 1 6.9638410752308051e+00 7.7569967701524734e+00 1.2379520644648739e+01 -1 -1 1
1044 1 1.1344736797001119e+01 5.0625681916807190e+00 1.3578324906604989e+01 0 1 1
287 1 1.1570428827724605e+01 7.1996451490866535e+00 1.1878367284475003e+01 -1 1 0
116 1 9.3545666098484297e+00 1.1230607009690999e+01 1.2486583403970400e+01 0 1 0
900 1 3.2293639079485381e-01 1.0922732204580239e+01 1.2728761303799978e+01 1 1 1
2442 1 9.1267095950463766e+00 8.9036879744178474e+00 1.3470982316823786e+01 3 -2 1
5356 1 4.4699520914610220e+00 8.8999035650478966e+00 1.3530613838116489e+01 -1 1 0
3453 1 4.7156883878916522e+00 1.1317015725785108e+01 1.2198250245689783e+01 1 0 0
2727 1 1.1879204664009453e+01 2.1152201214296849e+00 8.3605149446363480e+00 1 0 1
1852 1 2.4622407924217802e+00 1.2129457496386586e+01 1.3500768278481035e+01 0 0 0
1918 1 2.8576246200439450e+00 1.3039449539482315e-01 1.2235625804814461e+01 2 3 0
2060 1 3.0425534126136258e+00 2.0927766799078173e+00 1.6873223961054229e+01 2 0 0
6030 1 2.8221832270383427e+00 1.5860606441502343e+00 1.9477515329758852e+01 1 0 1
6170 1 8.0494020265180366e-01 8.7355465428493506e-01 1.5866888326390454e+01 1 1 0
153 1 7.2484838270275480e+00 2.3064828122430856e+00 1.6823726608333764e+01 1 -2 0
4323 1 7.6915805887332525e+00 1.6416803558435855e+00 1.9407003822964938e+01 1 1 1
230 1 5.2442362292233238e+00 1.0336927172708432e+00 1.5703106898531564e+01 1 -1 0
3490 1 1.1639542163681966e+01 9.5892528000690618e+00 2.0022869541148715e+01 1 1 0
273 1 1.1872372876714850e+01 2.0340332022387440e+00 1.6795443850764912e+01 1 2 0
2592 1 1.1903904054323458e+01 1.9819699583177512e+00 1.9393193042089898e+01 0 -1 1
5932 1 9.7047885198443300e+00 2.9261786871075208e+00 2.0520319052089430e+01 1 -2 1
5953 1 2.9862893522454370e+00 4.6229651671316621e+00 1.6344939978226137e+01 2 2 1
6056 1 5.4171127421772769e-01 5.5503639867263743e+00 1.9431379838904604e+01 2 0 1
968 1 4.7049317415406317e-01 5.5461400241795955e+00 1.6780563109285371e+01 1 0 1
5514 1 7.1196244064815772e+00 4.9314955805844027e+00 1.6027321583814796e+01 1 -1 0
6117 1 5.0812141118396577e+00 5.9577384346691336e+00 1.7060302329779159e+01 2 4 1
1080 1 5.2871261054270828e+00 5.0178285145534396e+00 2.0034556924897025e+01 -1 1 0
3793 1 9.5099240580626088e+00 5.9771772710983671e+00 1.6893360780648276e+01 1 2 0
1088 1 9.7352757004270689e+00 5.3817556080876807e+00 1.9418096552158389e+01 0 2 0
5972 1 1.1706615329444242e+01 4.5888481950333562e+00 1.6290404577184233e+01 -2 1 1
6100 1 4.3558613701240118e-01 8.2973360629687480e+00 1.6453771790874807e+01 3 0 1
4594 1 2.7161836331817737e+00 9.6343606172049689e+00 1.7253993593555684e+01 1 -3 0
3710 1 2.8586036124578595e+00 9.3647675162460402e+00 1.9924561030201197e+01 -2 3 0
603 2 9.8440000000000012e+00 8.5251540748539956e+00 2.6774644470445406e+01 0 0 0
6116 1 4.9822726414481258e+00 8.4222900017014286e+00 1.6212903039761983e+01 1 1 1
1897 1 7.0809044524242806e+00 9.7403935371238948e+00 1.7298019358804947e+01 1 1 0
942 1 7.1865182227943141e+00 9.3073694929292099e+00 2.0007332882485006e+01 -1 -2 1
5336 1 7.5376777965355735e-01 1.0708176528129290e+01 2.3359820511089747e+01 1 -2 0
1247 1 9.4922363606428934e+00 8.7212980922678813e+00 1.6365581269840391e+01 -1 1 1
266 1 1.1593206295545848e+01 9.8704015186520948e+00 1.7266616325821378e+01 2 -2 0
580 2 8.6134999999999984e+00 9.2355835810918343e+00 2.6774644470445406e+01 0 0 0
3468 1 5.2078746028810874e-01 2.8481948393841265e+00 2.0382802871544005e+01 1 0 0
5848 1 3.0007410006248154e+00 8.3116656434032965e-01 2.3004461173787952e+01 2 -1 1
1903 1 2.3207529292663776e-01 2.3876825425175885e+00 2.3004932419920792e+01 1 0 0
222 1 5.2704332413032438e+00 2.2549903508165023e+00 2.0638301265070965e+01 -1 1 0
5894 1 5.1352648895451551e+00 2.4853863246747854e+00 2.3297571715643251e+01 -1 -1 1
2819 1 7.5172980980875295e+00 1.7037671542925803e+00 2.4168372912809744e+01 1 3 1
2845 1 9.8575584071606723e+00 2.8672819125651281e+00 2.3335194801824827e+01 4 1 1
3816 1 1.1470227189833539e+01 1.0247124562261236e+00 2.4279296906417059e+01 1 -1 0
6187 1 2.9882330793236500e+00 6.6667024943123288e+00 2.0816157718261550e+01 2 0 1
1737 1 2.7721105742488161e+00 6.3366947845772525e+00 2.3815242744670698e+01 0 1 0
832 1 2.4175861293456688e-01 4.9082809098634836e+00 2.3894776397373757e+01 0 2 1
1757 1 7.4488295220874603e+00 6.4493684365915342e+00 2.0787619864141682e+01 1 -2 0
851 1 5.4059631530268337e+00 4.9454482381376650e+00 2.4042795702417635e+01 2 1 1
3378 1 7.3776142318581206e+00 6.6903267912971947e+00 2.3521677865162893e+01 3 1 1
458 1 9.5369742661917716e+00 5.4115326111194015e+00 2.3937340986006145e+01 1 1 0
4451 1 1.1827413283804235e+01 6.7079962234575676e+00 2.0491839382155863e+01 1 3 1
601 2 8.6134999999999984e+00 1.0656442593567498e+01 2.6774644470445406e+01 0 0 0
2203 1 1.1741173726345771e+01 9.2986747671250853e+00 2.4053515037181196e+01 1 2 0
4222 1 2.6111463810990365e+00 8.9597651635856046e+00 2.4180776900033337e+01 1 1 1
5304 1 5.4510364895853347e-01 1.0818763902648739e+01 2.0579144835739275e+01 1 0 0
5091 1 5.1885520411523096e+00 1.0351656939337531e+01 2.1381872912136632e+01 1 2 0
346 1 4.9367576890294256e+00 1.0495592507695255e+01 2.4029309081292219e+01 3 2 0
4553 1 7.3434789615276781e+00 9.4003315613531413e+00 2.4243126957393688e+01 3 -1 1
625 2 1.1074500000000002e+01 1.0656442593567498e+01 2.6774644470445406e+01 0 0 0
5237 1 9.4131613468600985e+00 1.0375639201958341e+01 2.0786813517278482e+01 0 1 0
481 1 9.5878350768070195e+00 1.0782389926475991e+01 2.3473919707908092e+01 0 -1 0
511 2 0.0000000000000000e+00 2.8417180249513345e+00 2.6774644470445406e+01 0 0 0
512 2 0.0000000000000000e+00 0.0000000000000000e+00 2.6774644470445406e+01 0 0 0
513 2 1.2305000000000001e+00 7.1042950623783474e-01 2.6774644470445406e+01 0 0 0
517 2 1.2305000000000001e+00 2.1312885187134998e+00 2.6774644470445406e+01 0 0 0
518 2 2.4610000000000003e+00 2.8417180249513345e+00 2.6774644470445406e+01 0 0 0
519 2 2.4610000000000003e+00 0.0000000000000000e+00 2.6774644470445406e+01 0 0 0
520 2 3.6915000000000004e+00 7.1042950623783474e-01 2.6774644470445406e+01 0 0 0
528 2 3.6914999999999996e+00 2.1312885187134998e+00 2.6774644470445406e+01 0 0 0
529 2 4.9220000000000006e+00 2.8417180249513332e+00 2.6774644470445406e+01 0 0 0
530 2 4.9220000000000006e+00 0.0000000000000000e+00 2.6774644470445406e+01 0 0 0
531 2 6.1524999999999999e+00 7.1042950623783407e-01 2.6774644470445406e+01 0 0 0
543 2 6.1524999999999999e+00 2.1312885187134989e+00 2.6774644470445406e+01 0 0 0
544 2 7.3829999999999991e+00 2.8417180249513345e+00 2.6774644470445406e+01 0 0 0
545 2 7.3829999999999991e+00 0.0000000000000000e+00 2.6774644470445406e+01 0 0 0
546 2 8.6134999999999984e+00 7.1042950623783407e-01 2.6774644470445406e+01 0 0 0
562 2 8.6134999999999984e+00 2.1312885187135002e+00 2.6774644470445406e+01 0 0 0
563 2 9.8440000000000012e+00 2.8417180249513332e+00 2.6774644470445406e+01 0 0 0
564 2 9.8440000000000012e+00 0.0000000000000000e+00 2.6774644470445406e+01 0 0 0
565 2 1.1074500000000002e+01 7.1042950623783330e-01 2.6774644470445406e+01 0 0 0
585 2 1.1074500000000002e+01 2.1312885187135002e+00 2.6774644470445406e+01 0 0 0
514 2 0.0000000000000000e+00 7.1042950623783341e+00 2.6774644470445406e+01 0 0 0
515 2 0.0000000000000000e+00 4.2625770374269996e+00 2.6774644470445406e+01 0 0 0
516 2 1.2305000000000001e+00 4.9730065436648339e+00 2.6774644470445406e+01 0 0 0
524 2 1.2305000000000001e+00 6.3938655561404980e+00 2.6774644470445406e+01 0 0 0
525 2 2.4610000000000003e+00 7.1042950623783341e+00 2.6774644470445406e+01 0 0 0
526 2 2.4610000000000003e+00 4.2625770374269996e+00 2.6774644470445406e+01 0 0 0
527 2 3.6914999999999996e+00 4.9730065436648339e+00 2.6774644470445406e+01 0 0 0
539 2 3.6914999999999996e+00 6.3938655561404980e+00 2.6774644470445406e+01 0 0 0
540 2 4.9220000000000006e+00 7.1042950623783341e+00 2.6774644470445406e+01 0 0 0
541 2 4.9220000000000006e+00 4.2625770374269978e+00 2.6774644470445406e+01 0 0 0
542 2 6.1524999999999999e+00 4.9730065436648339e+00 2.6774644470445406e+01 0 0 0
558 2 6.1524999999999999e+00 6.3938655561404980e+00 2.6774644470445406e+01 0 0 0
559 2 7.3830000000000009e+00 7.1042950623783341e+00 2.6774644470445406e+01 0 0 0
560 2 7.3829999999999991e+00 4.2625770374269996e+00 2.6774644470445406e+01 0 0 0
561 2 8.6135000000000002e+00 4.9730065436648339e+00 2.6774644470445406e+01 0 0 0
581 2 8.6135000000000002e+00 6.3938655561404980e+00 2.6774644470445406e+01 0 0 0
582 2 9.8440000000000012e+00 7.1042950623783341e+00 2.6774644470445406e+01 0 0 0
583 2 9.8440000000000012e+00 4.2625770374270004e+00 2.6774644470445406e+01 0 0 0
584 2 1.1074500000000002e+01 4.9730065436648339e+00 2.6774644470445406e+01 0 0 0
605 2 1.1074500000000002e+01 6.3938655561404980e+00 2.6774644470445406e+01 0 0 0
535 2 1.2305000000000001e+00 1.0656442593567498e+01 2.6774644470445406e+01 0 0 0
536 2 2.4610000000000003e+00 1.1366872099805333e+01 2.6774644470445406e+01 0 0 0
537 2 2.4610000000000003e+00 8.5251540748539991e+00 2.6774644470445406e+01 0 0 0
554 2 3.6914999999999996e+00 1.0656442593567499e+01 2.6774644470445406e+01 0 0 0
538 2 3.6915000000000004e+00 9.2355835810918343e+00 2.6774644470445406e+01 0 0 0
521 2 0.0000000000000000e+00 1.1366872099805333e+01 2.6774644470445406e+01 0 0 0
522 2 0.0000000000000000e+00 8.5251540748539991e+00 2.6774644470445406e+01 0 0 0
523 2 1.2305000000000001e+00 9.2355835810918343e+00 2.6774644470445406e+01 0 0 0
578 2 7.3829999999999991e+00 1.1366872099805333e+01 2.6774644470445406e+01 0 0 0
579 2 7.3830000000000009e+00 8.5251540748539991e+00 2.6774644470445406e+01 0 0 0
557 2 6.1524999999999999e+00 9.2355835810918343e+00 2.6774644470445406e+01 0 0 0
577 2 6.1524999999999999e+00 1.0656442593567499e+01 2.6774644470445406e+01 0 0 0
556 2 4.9220000000000006e+00 8.5251540748539991e+00 2.6774644470445406e+01 0 0 0
555 2 4.9220000000000006e+00 1.1366872099805333e+01 2.6774644470445406e+01 0 0 0
602 2 9.8440000000000012e+00 1.1366872099805333e+01 2.6774644470445406e+01 0 0 0
626 2 1.2304999999999998e+01 1.1366872099805333e+01 2.6774644470445406e+01 0 0 0
604 2 1.1074500000000002e+01 9.2355835810918343e+00 2.6774644470445406e+01 0 0 0
5108 1 1.1952023003018402e+01 6.7762763365313559e+00 2.3070873863748862e+01 -2 3 1
5203 1 9.4986999614800354e+00 9.4044343843560974e-01 1.5738824548296245e+01 0 0 0
423 1 1.1760900683758058e+01 1.2152244771934996e+01 1.6060523627776671e+01 1 -1 0
1945 1 2.8451701528459772e+00 1.2163416605962706e+01 1.6172768620506631e+01 2 1 1
1250 2 0.0000000000000000e+00 1.4208590124756650e+00 3.0030999999998059e+01 0 0 0
1251 2 0.0000000000000000e+00 0.0000000000000000e+00 3.0030999999998059e+01 0 0 0
1254 2 1.2305000000000001e+00 3.5521475311891644e+00 3.0030999999998059e+01 0 0 0
1255 2 1.2305000000000001e+00 2.1312885187134998e+00 3.0030999999998059e+01 0 0 0
1256 2 2.4610000000000003e+00 1.4208590124756650e+00 3.0030999999998059e+01 0 0 0
1257 2 2.4610000000000003e+00 0.0000000000000000e+00 3.0030999999998059e+01 0 0 0
1264 2 3.6914999999999996e+00 3.5521475311891644e+00 3.0030999999998059e+01 0 0 0
1265 2 3.6914999999999996e+00 2.1312885187134998e+00 3.0030999999998059e+01 0 0 0
1411 2 0.0000000000000000e+00 2.8417180249513345e+00 3.3287355529495514e+01 0 0 0
1412 2 0.0000000000000000e+00 0.0000000000000000e+00 3.3287355529495514e+01 0 0 0
1413 2 1.2305000000000001e+00 7.1042950623783474e-01 3.3287355529495514e+01 0 0 0
1417 2 1.2305000000000001e+00 2.1312885187134998e+00 3.3287355529495514e+01 0 0 0
1418 2 2.4610000000000003e+00 2.8417180249513345e+00 3.3287355529495514e+01 0 0 0
1419 2 2.4610000000000003e+00 0.0000000000000000e+00 3.3287355529495514e+01 0 0 0
1420 2 3.6915000000000004e+00 7.1042950623783474e-01 3.3287355529495514e+01 0 0 0
1428 2 3.6914999999999996e+00 2.1312885187134998e+00 3.3287355529495514e+01 0 0 0
1266 2 4.9220000000000006e+00 1.4208590124756650e+00 3.0030999999998059e+01 0 0 0
1267 2 4.9220000000000006e+00 0.0000000000000000e+00 3.0030999999998059e+01 0 0 0
1278 2 6.1524999999999999e+00 3.5521475311891644e+00 3.0030999999998059e+01 0 0 0
1279 2 6.1524999999999999e+00 2.1312885187134989e+00 3.0030999999998059e+01 0 0 0
1280 2 7.3829999999999991e+00 1.4208590124756659e+00 3.0030999999998059e+01 0 0 0
1281 2 7.3829999999999991e+00 0.0000000000000000e+00 3.0030999999998059e+01 0 0 0
1429 2 4.9220000000000006e+00 2.8417180249513332e+00 3.3287355529495514e+01 0 0 0
1430 2 4.9220000000000006e+00 0.0000000000000000e+00 3.3287355529495514e+01 0 0 0
1431 2 6.1524999999999999e+00 7.1042950623783407e-01 3.3287355529495514e+01 0 0 0
1443 2 6.1524999999999999e+00 2.1312885187134989e+00 3.3287355529495514e+01 0 0 0
1444 2 7.3829999999999991e+00 2.8417180249513345e+00 3.3287355529495514e+01 0 0 0
1445 2 7.3829999999999991e+00 0.0000000000000000e+00 3.3287355529495514e+01 0 0 0
1296 2 8.6134999999999984e+00 3.5521475311891657e+00 3.0030999999998059e+01 0 0 0
1297 2 8.6134999999999984e+00 2.1312885187135002e+00 3.0030999999998059e+01 0 0 0
1298 2 9.8440000000000012e+00 1.4208590124756659e+00 3.0030999999998059e+01 0 0 0
1299 2 9.8440000000000012e+00 0.0000000000000000e+00 3.0030999999998059e+01 0 0 0
1318 2 1.1074500000000002e+01 3.5521475311891644e+00 3.0030999999998059e+01 0 0 0
1319 2 1.1074500000000002e+01 2.1312885187135002e+00 3.0030999999998059e+01 0 0 0
1446 2 8.6134999999999984e+00 7.1042950623783407e-01 3.3287355529495514e+01 0 0 0
1462 2 8.6134999999999984e+00 2.1312885187135002e+00 3.3287355529495514e+01 0 0 0
1463 2 9.8440000000000012e+00 2.8417180249513332e+00 3.3287355529495514e+01 0 0 0
1464 2 9.8440000000000012e+00 0.0000000000000000e+00 3.3287355529495514e+01 0 0 0
1465 2 1.1074500000000002e+01 7.1042950623783330e-01 3.3287355529495514e+01 0 0 0
1485 2 1.1074500000000002e+01 2.1312885187135002e+00 3.3287355529495514e+01 0 0 0
1252 2 0.0000000000000000e+00 5.6834360499026637e+00 3.0030999999998059e+01 0 0 0
1253 2 0.0000000000000000e+00 4.2625770374269996e+00 3.0030999999998059e+01 0 0 0
1260 2 1.2305000000000001e+00 7.8147245686161639e+00 3.0030999999998059e+01 0 0 0
1261 2 1.2305000000000001e+00 6.3938655561404980e+00 3.0030999999998059e+01 0 0 0
1262 2 2.4610000000000003e+00 5.6834360499026637e+00 3.0030999999998059e+01 0 0 0
1263 2 2.4610000000000003e+00 4.2625770374269996e+00 3.0030999999998059e+01 0 0 0
1274 2 3.6914999999999996e+00 7.8147245686161639e+00 3.0030999999998059e+01 0 0 0
1275 2 3.6914999999999996e+00 6.3938655561404980e+00 3.0030999999998059e+01 0 0 0
1414 2 0.0000000000000000e+00 7.1042950623783341e+00 3.3287355529495514e+01 0 0 0
1415 2 0.0000000000000000e+00 4.2625770374269996e+00 3.3287355529495514e+01 0 0 0
1416 2 1.2305000000000001e+00 4.9730065436648339e+00 3.3287355529495514e+01 0 0 0
1424 2 1.2305000000000001e+00 6.3938655561404980e+00 3.3287355529495514e+01 0 0 0
1425 2 2.4610000000000003e+00 7.1042950623783341e+00 3.3287355529495514e+01 0 0 0
1426 2 2.4610000000000003e+00 4.2625770374269996e+00 3.3287355529495514e+01 0 0 0
1427 2 3.6914999999999996e+00 4.9730065436648339e+00 3.3287355529495514e+01 0 0 0
1439 2 3.6914999999999996e+00 6.3938655561404980e+00 3.3287355529495514e+01 0 0 0
1276 2 4.9220000000000006e+00 5.6834360499026637e+00 3.0030999999998059e+01 0 0 0
1277 2 4.9220000000000006e+00 4.2625770374269978e+00 3.0030999999998059e+01 0 0 0
1292 2 6.1524999999999999e+00 7.8147245686161639e+00 3.0030999999998059e+01 0 0 0
1293 2 6.1524999999999999e+00 6.3938655561404980e+00 3.0030999999998059e+01 0 0 0
1294 2 7.3829999999999991e+00 5.6834360499026637e+00 3.0030999999998059e+01 0 0 0
1295 2 7.3829999999999991e+00 4.2625770374269996e+00 3.0030999999998059e+01 0 0 0
1440 2 4.9220000000000006e+00 7.1042950623783341e+00 3.3287355529495514e+01 0 0 0
1441 2 4.9220000000000006e+00 4.2625770374269978e+00 3.3287355529495514e+01 0 0 0
1442 2 6.1524999999999999e+00 4.9730065436648339e+00 3.3287355529495514e+01 0 0 0
1458 2 6.1524999999999999e+00 6.3938655561404980e+00 3.3287355529495514e+01 0 0 0
1459 2 7.3830000000000009e+00 7.1042950623783341e+00 3.3287355529495514e+01 0 0 0
1460 2 7.3829999999999991e+00 4.2625770374269996e+00 3.3287355529495514e+01 0 0 0
1314 2 8.6135000000000002e+00 7.8147245686161639e+00 3.0030999999998059e+01 0 0 0
1315 2 8.6135000000000002e+00 6.3938655561404980e+00 3.0030999999998059e+01 0 0 0
1316 2 9.8440000000000012e+00 5.6834360499026637e+00 3.0030999999998059e+01 0 0 0
1317 2 9.8440000000000012e+00 4.2625770374270004e+00 3.0030999999998059e+01 0 0 0
1337 2 1.1074500000000002e+01 7.8147245686161639e+00 3.0030999999998059e+01 0 0 0
1338 2 1.1074500000000002e+01 6.3938655561404980e+00 3.0030999999998059e+01 0 0 0
1461 2 8.6135000000000002e+00 4.9730065436648339e+00 3.3287355529495514e+01 0 0 0
1481 2 8.6135000000000002e+00 6.3938655561404980e+00 3.3287355529495514e+01 0 0 0
1482 2 9.8440000000000012e+00 7.1042950623783341e+00 3.3287355529495514e+01 0 0 0
1483 2 9.8440000000000012e+00 4.2625770374270004e+00 3.3287355529495514e+01 0 0 0
1484 2 1.1074500000000002e+01 4.9730065436648339e+00 3.3287355529495514e+01 0 0 0
1505 2 1.1074500000000002e+01 6.3938655561404980e+00 3.3287355529495514e+01 0 0 0
1258 2 0.0000000000000000e+00 9.9460130873296642e+00 3.0030999999998059e+01 0 0 0
1259 2 0.0000000000000000e+00 8.5251540748539991e+00 3.0030999999998059e+01 0 0 0
1270 2 1.2305000000000001e+00 1.2077301606043163e+01 3.0030999999998059e+01 0 0 0
1271 2 1.2305000000000001e+00 1.0656442593567498e+01 3.0030999999998059e+01 0 0 0
1272 2 2.4610000000000003e+00 9.9460130873296642e+00 3.0030999999998059e+01 0 0 0
1273 2 2.4610000000000003e+00 8.5251540748539991e+00 3.0030999999998059e+01 0 0 0
1288 2 3.6914999999999996e+00 1.2077301606043163e+01 3.0030999999998059e+01 0 0 0
1289 2 3.6914999999999996e+00 1.0656442593567499e+01 3.0030999999998059e+01 0 0 0
1421 2 0.0000000000000000e+00 1.1366872099805333e+01 3.3287355529495514e+01 0 0 0
1422 2 0.0000000000000000e+00 8.5251540748539991e+00 3.3287355529495514e+01 0 0 0
1423 2 1.2305000000000001e+00 9.2355835810918343e+00 3.3287355529495514e+01 0 0 0
1435 2 1.2305000000000001e+00 1.0656442593567498e+01 3.3287355529495514e+01 0 0 0
1436 2 2.4610000000000003e+00 1.1366872099805333e+01 3.3287355529495514e+01 0 0 0
1437 2 2.4610000000000003e+00 8.5251540748539991e+00 3.3287355529495514e+01 0 0 0
1438 2 3.6915000000000004e+00 9.2355835810918343e+00 3.3287355529495514e+01 0 0 0
1454 2 3.6914999999999996e+00 1.0656442593567499e+01 3.3287355529495514e+01 0 0 0
1290 2 4.9220000000000006e+00 9.9460130873296642e+00 3.0030999999998059e+01 0 0 0
1291 2 4.9220000000000006e+00 8.5251540748539991e+00 3.0030999999998059e+01 0 0 0
1310 2 6.1524999999999999e+00 1.2077301606043163e+01 3.0030999999998059e+01 0 0 0
1311 2 6.1524999999999999e+00 1.0656442593567499e+01 3.0030999999998059e+01 0 0 0
1312 2 7.3830000000000009e+00 9.9460130873296642e+00 3.0030999999998059e+01 0 0 0
1313 2 7.3830000000000009e+00 8.5251540748539991e+00 3.0030999999998059e+01 0 0 0
1455 2 4.9220000000000006e+00 1.1366872099805333e+01 3.3287355529495514e+01 0 0 0
1456 2 4.9220000000000006e+00 8.5251540748539991e+00 3.3287355529495514e+01 0 0 0
1457 2 6.1524999999999999e+00 9.2355835810918343e+00 3.3287355529495514e+01 0 0 0
1477 2 6.1524999999999999e+00 1.0656442593567499e+01 3.3287355529495514e+01 0 0 0
1478 2 7.3829999999999991e+00 1.1366872099805333e+01 3.3287355529495514e+01 0 0 0
1479 2 7.3830000000000009e+00 8.5251540748539991e+00 3.3287355529495514e+01 0 0 0
1333 2 8.6135000000000002e+00 1.2077301606043163e+01 3.0030999999998059e+01 0 0 0
1334 2 8.6134999999999984e+00 1.0656442593567498e+01 3.0030999999998059e+01 0 0 0
1335 2 9.8440000000000012e+00 9.9460130873296642e+00 3.0030999999998059e+01 0 0 0
1336 2 9.8440000000000012e+00 8.5251540748539956e+00 3.0030999999998059e+01 0 0 0
1356 2 1.1074500000000002e+01 1.2077301606043163e+01 3.0030999999998059e+01 0 0 0
1357 2 1.1074500000000002e+01 1.0656442593567498e+01 3.0030999999998059e+01 0 0 0
1480 2 8.6134999999999984e+00 9.2355835810918343e+00 3.3287355529495514e+01 0 0 0
1501 2 8.6134999999999984e+00 1.0656442593567498e+01 3.3287355529495514e+01 0 0 0
1502 2 9.8440000000000012e+00 1.1366872099805333e+01 3.3287355529495514e+01 0 0 0
1503 2 9.8440000000000012e+00 8.5251540748539956e+00 3.3287355529495514e+01 0 0 0
1504 2 1.1074500000000002e+01 9.2355835810918343e+00 3.3287355529495514e+01 0 0 0
1525 2 1.1074500000000002e+01 1.0656442593567498e+01 3.3287355529495514e+01 0 0 0
1526 2 1.2304999999999998e+01 1.1366872099805333e+01 3.3287355529495514e+01 0 0 0
3800 1 2.4936983665535886e+00 3.1516322839195694e+00 3.9479892782419100e+01 -2 1 0
749 1 2.4093670815197448e+00 3.0078863276509136e+00 3.6856963910988995e+01 0 -2 -1
215 1 4.0762459489193398e-01 1.8711895467382396e+00 4.0239680452083206e+01 -1 1 -1
5856 1 2.7539245768491283e-01 1.5829881205000853e+00 3.5662967794036234e+01 -1 0 0
2549 1 5.0857429781866310e+00 2.2574698176101342e+00 3.5803974809131574e+01 0 1 -1
156 1 7.6225885250384264e+00 2.9666366846475940e+00 3.6611999149990297e+01 -1 -1 -1
3602 1 7.2745621462993268e+00 3.2424245153221531e+00 3.9305191810449912e+01 2 -2 -1
357 1 4.8853500616581069e+00 2.1126050043104616e+00 4.0099748700769013e+01 2 -1 -1
4310 1 9.1746130873813598e+00 1.3539859116899851e+00 3.5722183949097712e+01 1 1 0
1748 1 1.1590370324659855e+01 2.9243694431104235e+00 3.9054089776503233e+01 0 0 -1
1862 1 1.1379126782000965e+01 2.9182628129897874e+00 3.6481214189939507e+01 2 4 -1
1039 1 9.3778392922816582e+00 1.6114259963088580e+00 4.0051706528725632e+01 2 -5 0
3750 1 4.0262749753067478e-01 6.7705870809016266e+00 3.9490198118972117e+01 3 -1 -1
371 1 2.7198551595749847e+00 5.5141433351212976e+00 3.6004380615265660e+01 1 1 -1
3679 1 9.2337447314185308e+00 9.3320869566684443e+00 4.3257850780745841e+01 -1 1 -1
6240 1 5.0694422749135120e+00 6.8763906293366661e+00 3.9324465702036278e+01 0 0 0
3775 1 7.2707482813736064e+00 5.5612216783668034e+00 3.5689375217252078e+01 0 1 -1
5525 1 5.1190741380330786e+00 6.7111136053865366e+00 3.6831206068008726e+01 0 1 -1
6238 1 9.3973186753190330e+00 7.0765306977184954e+00 3.9497526540277050e+01 0 -2 -1
2740 1 8.8716349623387512e+00 6.9660149187429292e+00 3.6798141252425197e+01 -1 2 0
3593 1 1.0998039882510906e+01 5.6101699821332716e+00 3.5841756764511871e+01 0 2 -1
5278 1 2.5525523636809817e+00 1.0694362127750846e+01 3.9562896357197204e+01 -2 3 -1
4496 1 2.7319934177398020e+00 1.0829808914756676e+01 3.6855183648958672e+01 2 2 0
1158 1 4.9595115719924798e-01 6.6892738212470269e+00 3.6885470390852419e+01 -1 -1 0
5480 1 4.6069341981146579e+00 9.2649112678134955e+00 3.6036401124110341e+01 2 1 -1
1084 1 7.0180583005586250e+00 1.0476022860783393e+01 3.6726398344083449e+01 1 1 0
1722 1 6.9730066220053324e+00 1.0273610818416280e+01 3.9492892067874379e+01 0 0 -1
5857 1 1.1784551750992261e+01 1.0471631119544169e+01 3.6692821580745687e+01 -1 0 0
2084 1 9.3288363736026234e+00 9.5218011546803165e+00 3.6173655589187717e+01 1 2 -1
1105 1 1.2002644476366369e+01 1.0483000301183514e+01 3.9386282751340914e+01 1 0 -1
2637 1 9.6407125966093794e+00 9.6230060654835157e+00 4.0546192257186291e+01 -2 -2 0
4337 1 4.9755915848414185e+00 1.1981500351952999e+01 4.3710458620802470e+01 1 1 -1
2738 1 6.9804323225130469e+00 3.5177566576920316e-01 4.3291686880845745e+01 0 2 -1
4153 1 4.7151873365432522e+00 1.6443918422082140e+00 4.2558493829911370e+01 -2 -2 0
6167 1 5.7880316619732219e-01 1.8295475751200343e+00 4.2904974029199337e+01 3 -1 0
1998 1 9.2133190592125391e+00 1.5848069635143964e+00 4.2804011509612437e+01 1 4 0
5090 1 3.7741805309187809e-01 4.3217008609229204e+00 4.3872552033932294e+01 3 3 -1
2143 1 2.6178098947533575e+00 5.6885736922418113e+00 4.0247749070018671e+01 0 1 -1
836 1 2.6815458072071388e+00 5.6398338050903289e+00 4.3084967301692402e+01 0 0 0
4317 1 7.3702054405383999e+00 5.7350498769571594e+00 4.0265803162660163e+01 2 2 0
2821 1 4.8052286096811283e+00 4.1039136521052111e+00 4.3757360958207897e+01 -1 -2 -1
3740 1 6.9922906314857771e+00 5.4752524068035671e+00 4.3073701019189784e+01 1 -1 -1
5508 1 1.1413393002058251e+01 5.6056426896758618e+00 4.3264690487133052e+01 0 3 -1
308 1 1.1332610815214659e+01 5.7581217900535275e+00 4.0532124191855061e+01 -1 2 -1
4517 1 1.1655805360731605e+01 8.3703200863416853e+00 4.3908857932849401e+01 0 0 0
6307 1 9.1512256314928084e+00 4.2460654373416729e+00 4.3768215152366778e+01 -1 1 -1
3480 1 2.6054139021316050e+00 8.3012631505753216e+00 4.4232373803292177e+01 1 3 -1
2599 1 5.0727735775605465e-01 9.6262110938137493e+00 4.3028347830045547e+01 4 2 0
52 1 5.9871550034536114e-01 9.2963531669433301e+00 4.0334827945967660e+01 1 -1 0