
# Create simulation box and atoms

read_data data.graphite_substrate
  orthogonal box = (0 0 -0.0398667) to (49.22 49.0196 60.1019)
  4 by 4 by 4 MPI processor grid
  reading atoms ...
  6736 atoms
  reading velocities ...
  6736 velocities
group water type 1
3976 atoms in group water
group graphite type 2
2760 atoms in group graphite

# Define potential

pair_style sw
pair_coeff * * mWC.sw mW C
Reading potential file mWC.sw with DATE: 2019-02-27


# Fix graphite atoms in place

fix 5 graphite setforce 0.0 0.0 0.0
velocity graphite set 0.0 0.0 0.0


# Equilibration of molecular water

# Add velocity/set timestep

velocity	    water create ${TEMP} ${SEED} rot yes dist gaussian
velocity	    water create 225 ${SEED} rot yes dist gaussian
velocity	    water create 225 23557 rot yes dist gaussian
timestep	    5.0

# Define output

compute			1 water msd
compute			3 water temp
thermo	    	50
thermo_style	custom step temp press vol etotal ke pe c_1[4] c_3

# Neighbor lists

neigh_modify    delay 0 every 1 check yes

# Set fixes

fix             1 water momentum 10 linear 1 1 1 rescale
fix             2 water nve
fix             3 water temp/csvr ${TEMP} ${TEMP} 500.0 ${SEED}
fix             3 water temp/csvr 225 ${TEMP} 500.0 ${SEED}
fix             3 water temp/csvr 225 225 500.0 ${SEED}
fix             3 water temp/csvr 225 225 500.0 23557
fix             4 water press/berendsen z ${PRES} ${PRES} 1000.0 modulus 20000
fix             4 water press/berendsen z 1 ${PRES} 1000.0 modulus 20000
fix             4 water press/berendsen z 1 1 1000.0 modulus 20000

# Run 0.5 ns equilibration

dump		    1 all atom 2000 ${DIR}/eq.${NAME}-${TEMP}.dump
dump		    1 all atom 2000 run_17/eq.${NAME}-${TEMP}.dump
dump		    1 all atom 2000 run_17/eq.het_freeze_17-${TEMP}.dump
dump		    1 all atom 2000 run_17/eq.het_freeze_17-225.dump

reset_timestep  0

run	            100000
Neighbor list info ...
  update every 1 steps, delay 0 steps, check yes
  max neighbors/atom: 2000, page size: 100000
  master list distance cutoff = 7.76
  ghost atom cutoff = 7.76
  binsize = 3.88, bins = 13 13 16
  1 neighbor lists, perpetual/occasional/extra = 1 0 0
  (1) pair sw, perpetual
      attributes: full, newton on
      pair build: full/bin/atomonly
      stencil: full/bin/3d
      bin: standard
Per MPI rank memory allocation (min/avg/max) = 4.084 | 4.203 | 4.509 Mbytes
Step Temp Press Volume TotEng KinEng PotEng c_1[4] c_3 
       0     132.7951   -1147.9579    145106.76   -36018.829     2665.962   -38684.791            0          225 
      50      170.484   -918.76683    144496.75   -36412.624    3422.5952   -39835.219   0.84975313     288.8578 
     100    165.82265    -831.4428    144101.46   -36799.579    3329.0151   -40128.594    1.8571696    280.95989 
     150    160.92207   -686.59956     143712.9   -37169.237    3230.6321   -40399.869    2.6969127    272.65663 
     200    156.73451   -900.56651    143306.85   -37451.125    3146.5637   -40597.689    3.5083961    265.56149 
     250    151.48437   -690.62353    143021.97   -37705.826    3041.1633   -40746.989    4.2781908    256.66598 
     300    148.81858   -895.04312    142716.79   -37965.531    2987.6455   -40953.176    4.9188987    252.14922 
     350    144.55696    -866.6548    142364.67   -38133.352    2902.0903   -41035.442    5.5656815    244.92859 
     400    143.99923   -723.91519    142047.68   -38224.589    2890.8934   -41115.483    6.1551141     243.9836 
     450    144.21162   -525.40153    141810.33   -38324.255    2895.1573   -41219.412    6.6986709    244.34346 
     500    143.16543   -656.84394    141574.68   -38396.975    2874.1541   -41271.129      7.19547    242.57085 
     550     140.8035   -563.35731    141428.96   -38449.994    2826.7367   -41276.731    7.7304554    238.56895 
     600    141.25004   -550.13426    141315.86   -38465.864    2835.7013   -41301.565     8.242012    239.32554 
     650    137.71178   -484.24226    141171.29   -38639.176    2764.6681   -41403.844    8.7515862    233.33053 
     700    138.89334   -300.20366     141090.6   -38743.019    2788.3887   -41531.408    9.0975612    235.33248 
     750    138.87699   -334.36858    140994.94   -38812.267    2788.0606   -41600.328     9.486423     235.3048 
     800    135.80192   -505.64457    140873.88   -38883.294    2726.3262    -41609.62    9.9252437    230.09458 
     850    135.52819   -164.10849    140873.79   -38878.485    2720.8309   -41599.316    10.219327    229.63079 
     900    138.10547   -504.65091    140831.56   -38849.559    2772.5716    -41622.13    10.589606    233.99756 
     950    139.88133   -296.29521     140722.8   -38888.515    2808.2234   -41696.739    10.990873    237.00648 
    1000    135.18427   -250.86385    140661.86   -38983.416    2713.9264   -41697.342    11.407794    229.04806 
    1050    132.72361   -263.14648    140595.41   -39023.305    2664.5268   -41687.832    11.817243    224.87888 
    1100    134.44802   -262.45896    140556.63   -39012.516    2699.1457   -41711.661    12.045024    227.80061 
    1150    134.10947   -343.34784    140478.19   -39012.406     2692.349   -41704.755    12.377832    227.22699 
    1200    133.27704   -84.249397    140461.96   -39053.706    2675.6372   -41729.343    12.872912    225.81657 
    1250    133.85052   -239.99741    140489.13   -39095.955    2687.1504   -41783.105    13.246987    226.78824 
    1300    134.31839   -257.35195    140510.14   -39088.801    2696.5431   -41785.344    13.593888    227.58096 
    1350    133.07818   -201.49335    140410.28   -39130.884    2671.6451    -41802.53    14.014091    225.47964 
    1400    133.08823   -130.99455    140420.99   -39158.093    2671.8468    -41829.94    14.465305    225.49666 
    1450    133.81743   -22.599805    140498.51   -39136.921     2686.486   -41823.407    14.807884    226.73217 
    1500    133.36888   -256.63761    140471.53   -39123.434    2677.4811   -41800.915    15.102348    225.97218 
    1550    134.21245   -232.14926    140545.91   -39142.312    2694.4164   -41836.729    15.370346    227.40147 
    1600    131.76321   -64.188399    140570.41   -39166.405    2645.2459   -41811.651    15.636465    223.25162 
    1650    135.07628   -89.408874    140552.35   -39156.345    2711.7584   -41868.103    15.970891    228.86509 
    1700    133.27762   -94.161068    140619.55   -39147.234     2675.649   -41822.883    16.342955    225.81755 
    1750    134.46285    -409.3021    140637.32   -39235.077    2699.4434    -41934.52    16.697218    227.82574 
    1800    135.99036    -63.04189    140643.38   -39231.765    2730.1093   -41961.874    17.021489    230.41386 
    1850    135.65212   -389.38009    140648.22   -39186.631    2723.3188    -41909.95      17.2511    229.84076 
    1900    134.51398    -221.0071    140598.54   -39198.483    2700.4699   -41898.952    17.587128    227.91237 
    1950     134.7584   -266.54849    140587.79   -39189.333    2705.3768    -41894.71     17.95952     228.3265 
    2000    133.72457   -346.54642    140495.65    -39219.46    2684.6217   -41904.082    18.357291    226.57483 
    2050    131.89581   -245.52086    140502.25   -39225.826    2647.9081   -41873.734    18.637468     223.4763 
    2100    132.41536   -365.96778    140436.95   -39238.647    2658.3384   -41896.985    18.968668    224.35659 
    2150    131.86377   -349.03541    140362.29   -39275.479    2647.2647   -41922.744    19.242091      223.422 
    2200    133.50206   -155.90052    140304.49   -39301.923    2680.1547   -41982.078    19.417055    226.19782 
    2250    132.76569   -292.72151    140294.89   -39261.495    2665.3715   -41926.866    19.695609    224.95016 
    2300    134.53524   -165.11767    140369.55   -39292.332    2700.8966   -41993.228    19.841251    227.94839 
    2350     133.4886   -191.36349    140375.71   -39272.073    2679.8845   -41951.957    20.284782    226.17502 
    2400    134.51225   -304.61388    140314.43   -39296.359     2700.435   -41996.794     20.51541    227.90943 
    2450    132.96827   -213.02985    140359.48   -39303.925    2669.4386   -41973.364    20.755313    225.29341 
    2500    129.52953   -181.78288    140350.13   -39326.041    2600.4032   -41926.444    21.059141    219.46701 
    2550    131.75967   -401.64237    140353.66   -39327.381     2645.175   -41972.556    21.354792    223.24564 
    2600    135.03565   -118.75707    140328.41   -39313.778    2710.9427   -42024.721    21.687546    228.79625 
    2650    133.76916    -105.4717    140402.83   -39335.799     2685.517   -42021.316    21.921349    226.65039 
    2700    131.52351   -192.94228    140383.81   -39367.574    2640.4338   -42008.008    22.108174    222.84549 
    2750    130.57401   -43.056204    140369.39    -39387.05     2621.372   -42008.422    22.336697    221.23672 
    2800    133.62207   -177.71694    140374.87   -39333.437    2682.5641   -42016.001    22.535504    226.40117 
    2850    131.41413   -105.89291    140355.91   -39313.974    2638.2379   -41952.212    22.731482    222.66016 
    2900    134.52171     104.7138    140443.65    -39296.41    2700.6249   -41997.035    23.055941    227.92546 
    2950    131.67809   -21.443766    140501.21   -39306.017    2643.5371   -41949.555    23.222578     223.1074 
    3000    134.05254   -213.90343    140511.12   -39270.964    2691.2061    -41962.17    23.303332    227.13053 
    3050    136.39219   -77.475924    140526.12   -39326.363    2738.1763    -42064.54    23.457366     231.0947 
    3100    131.48803   -81.613146    140550.09   -39312.026    2639.7215   -41951.747     23.61854    222.78537 
    3150    133.01044   -154.56736    140563.41   -39334.059    2670.2852   -42004.345    23.873048    225.36487 
    3200     134.6237    -313.3927    140564.76   -39351.888    2702.6726    -42054.56    24.155668    228.09828 
    3250    134.27605   -152.03674    140486.01   -39346.501    2695.6931   -42042.194    24.406836    227.50923 
    3300    135.64999   -225.51094    140408.21   -39368.454    2723.2761    -42091.73    24.715814    229.83716 
    3350    130.39153   -109.03156    140400.68   -39379.311    2617.7085   -41997.019    25.039253    220.92754 
    3400     132.7544   -25.385141    140437.38    -39387.93    2665.1449   -42053.075    25.404558    224.93104 
    3450    132.74806   -109.04833    140536.61   -39386.447    2665.0175   -42051.464    25.743457    224.92029 
    3500    134.45333   -127.88507     140557.1   -39387.304    2699.2522   -42086.556    26.092056     227.8096 
    3550    135.65412   -321.49919    140561.84   -39341.353     2723.359   -42064.712    26.310289    229.84415 
    3600    134.19041    71.865961    140615.19   -39359.492    2693.9738   -42053.466    26.486495    227.36412 
    3650    133.52332   -341.15691    140665.99   -39338.865    2680.5815   -42019.446    26.770046    226.23384 
    3700    135.40953   -195.48449    140617.77    -39326.72    2718.4487   -42045.169    27.193353    229.42974 
    3750    133.44571   -178.85748    140550.52   -39393.227    2679.0235    -42072.25    27.440977    226.10235 
    3800    133.18593   -202.25896    140564.78   -39412.563    2673.8083   -42086.371    27.683345     225.6622 
    3850    134.39473   -236.34143    140564.43   -39369.408    2698.0758   -42067.484    28.060558    227.71032 
    3900    131.97816   -322.62423    140532.27   -39420.659    2649.5614    -42070.22    28.265408    223.61583 
    3950    131.35529   -189.44003    140556.62   -39428.802    2637.0567   -42065.859    28.331347    222.56047 
    4000    134.78783   -238.73546    140552.38   -39409.157    2705.9676   -42115.125     28.43493    228.37637 
    4050    131.24602    102.54774    140671.19   -39436.366    2634.8629   -42071.229    28.658904    222.37532 
    4100    132.44612   -55.832184    140774.21   -39393.909    2658.9559   -42052.865    28.793144    224.40871 
    4150    134.48299   -361.50145    140855.55   -39423.063    2699.8476   -42122.911    29.133503    227.85985 
    4200    131.82597   -348.07827    140785.46   -39433.262    2646.5059   -42079.768    29.576804    223.35796 
    4250    131.56549   -172.04431    140734.11   -39386.409    2641.2767   -42027.686    29.889255    222.91663 
    4300    131.51517   -312.58367    140692.11   -39396.357    2640.2664   -42036.624    30.196729    222.83136 
    4350    131.42144   -407.18668    140651.93   -39373.654    2638.3847   -42012.039    30.454223    222.67255 
    4400    130.90622   -102.91013    140638.81   -39401.895    2628.0413   -42029.937    30.706121     221.7996 
    4450    132.30635   -245.91397    140580.99   -39428.731      2656.15   -42084.881    31.039396     224.1719 
    4500    130.80693   -259.06435    140509.26   -39440.196    2626.0479   -42066.244    31.386962    221.63136 
    4550    132.43261   -201.76614    140463.89   -39476.158    2658.6847   -42134.842    31.707482    224.38582 
    4600    130.27236   -199.89295    140452.37   -39503.674    2615.3162    -42118.99    32.010389    220.72563 
    4650    131.72538   -154.08233    140512.24   -39462.156    2644.4866   -42106.643    32.228964    223.18754 
    4700     133.7972   -335.75332    140532.04   -39443.787    2686.0799   -42129.867    32.664818    226.69789 
    4750    129.89099   -195.70324    140538.24   -39484.078    2607.6598   -42091.738    32.799958    220.07945 
    4800    132.48147   -342.75843    140555.37   -39445.016    2659.6655   -42104.681    32.999967     224.4686 
    4850    132.89057   -152.46626    140594.87   -39455.757    2667.8787   -42123.635    33.202961    225.16176 
    4900    132.75064   -283.19786    140608.72   -39477.677    2665.0694   -42142.746    33.617166    224.92466 
    4950    134.05495   -224.37319    140610.23   -39511.251    2691.2544   -42202.505    33.879652    227.13461 
    5000    132.22662   -182.02019    140679.28   -39434.934    2654.5493   -42089.483    34.259164     224.0368 
    5050    131.07381   -263.90444    140706.23   -39456.726    2631.4058   -42088.132    34.432202    222.08355 
    5100    132.12051    -341.4768    140735.76   -39402.637    2652.4191   -42055.056    34.501661    223.85702 
    5150    133.10721   -407.90856    140658.49   -39415.628    2672.2279   -42087.856    34.676901    225.52883 
    5200    134.62071   -38.288472    140635.65   -39393.597    2702.6124    -42096.21    34.901885     228.0932 
    5250    130.74535   -5.3000378    140728.41   -39441.715    2624.8118   -42066.527    34.856009    221.52703 
    5300    131.08235   -285.02936    140710.33   -39416.897    2631.5773   -42048.474    35.016625    222.09802 
    5350    134.32906   -177.03749    140726.15   -39386.517    2696.7575   -42083.275     35.38136    227.59906 
    5400    133.91622   -36.075397    140725.03   -39386.553    2688.4694   -42075.023    35.603616    226.89956 
    5450    134.33489   -247.47123    140705.86   -39398.952    2696.8744   -42095.827    35.675734    227.60893 
    5500    132.71835   -454.83645    140754.86   -39407.822    2664.4212   -42072.243    35.946949    224.86996 
    5550    131.86642   -397.16683    140693.95   -39446.086     2647.318   -42093.404    36.318906     223.4265 
    5600    132.17005   -222.16372    140606.74   -39403.033    2653.4136   -42056.446    36.611421    223.94095 
    5650    131.66221   -102.41801    140666.52   -39463.963    2643.2183   -42107.182     36.82368    223.08049 
    5700       130.45   -237.89544    140727.45   -39503.325    2618.8822   -42122.207     37.06178     221.0266 
    5750     132.5008     -263.559    140676.54   -39495.192    2660.0537   -42155.245     37.44476    224.50136 
    5800     133.3715   -462.38574     140607.5   -39468.869    2677.5337   -42146.403    37.902064    225.97662 
    5850     128.3144   -294.53413    140533.46   -39468.548    2576.0085   -42044.557    38.218884    217.40817 
    5900    131.33281   -299.16177    140512.85   -39451.616    2636.6055   -42088.221     38.48446    222.52239 
    5950    131.26082    -283.5377    140556.06   -39444.791    2635.1601   -42079.951    38.801495     222.4004 
    6000     130.8124   -221.21309    140586.83   -39435.981    2626.1577   -42062.138    39.117595    221.64063 
    6050    129.90301   -213.70784    140573.85   -39458.979    2607.9012    -42066.88    39.487749    220.09982 
    6100    132.23102   -317.52582    140559.42   -39435.217    2654.6377   -42089.855    39.692101    224.04426 
    6150    133.06432   -351.05179    140589.36   -39382.895    2671.3669   -42054.262    39.934465    225.45616 
    6200    133.92203   -170.48663    140536.84   -39345.947    2688.5859   -42034.533    40.142251     226.9094 
    6250      134.504   -258.55295    140524.99   -39377.318    2700.2694   -42077.588    40.417893    227.89546 
    6300    131.17907   -84.539031    140511.44   -39364.815     2633.519   -41998.334    40.797259     222.2619 
    6350    132.71679   -432.06273    140388.97   -39413.868    2664.3898   -42078.258    41.129179    224.86731 
    6400    136.89858   -241.37175    140258.69   -39345.842    2748.3423   -42094.184    41.363864    231.95268 
    6450    134.13167   -391.67808    140211.52   -39325.799    2692.7946   -42018.594    41.606786     227.2646 
    6500    132.26468   -234.99487    140256.62   -39358.109    2655.3133   -42013.423    41.704273    224.10128 
    6550    135.66503   -389.92091    140258.36   -39338.955     2723.578   -42062.533    41.902917    229.86264 
    6600    135.38725   -153.93029    140264.75   -39333.973    2718.0014   -42051.974    42.171356    229.39199 
    6650    135.33541   -237.55559    140199.32   -39352.111    2716.9607   -42069.072    42.344734    229.30415 
    6700    134.63827    75.069612    140183.38   -39406.048     2702.965   -42109.013    42.376651    228.12296 
    6750    133.11653   -64.929891    140170.13   -39357.133    2672.4149   -42029.547    42.609741    225.54461 
    6800    132.87504   -138.23477    140199.34   -39358.141    2667.5669   -42025.708    42.834112    225.13545 
    6850    134.76364   -217.89061    140257.75    -39372.91     2705.482   -42078.392    42.958144    228.33538 
    6900    132.49789   -310.43891     140276.5   -39413.989    2659.9953   -42073.984    43.386481    224.49643 
    6950    130.78354   -21.134615    140225.44   -39401.953    2625.5784   -42027.532    43.862508    221.59173 
    7000    132.70518   -180.01691    140245.09    -39368.76    2664.1568   -42032.917    44.092003    224.84764 
    7050    133.08276   -71.630039    140307.17   -39359.353     2671.737    -42031.09    44.330305    225.48739 
    7100    132.33817   -288.06069    140285.95   -39373.969    2656.7889   -42030.758    44.650368    224.22581 
    7150    133.37488   -188.19259    140259.93     -39315.3    2677.6016   -41992.902    44.903758    225.98235 
    7200    133.91826    -113.1879    140247.82   -39244.285    2688.5103   -41932.795    45.222592    226.90302 
    7250    133.55509   -335.60349    140213.18   -39262.936    2681.2193   -41944.155    45.382837    226.28768 
    7300    134.40115    21.990899    140230.97   -39268.742    2698.2047   -41966.946    45.553729     227.7212 
    7350    130.00795   -187.95956    140287.16   -39313.559    2610.0079   -41923.567    45.915796    220.27762 
    7400    131.54845     -355.028    140249.83   -39319.518    2640.9345   -41960.452    46.028382    222.88774 
    7450    132.37852   -351.56876    140226.78   -39313.274    2657.5989   -41970.873    46.291866    224.29418 
    7500    133.12291   -221.74114    140250.43   -39339.207    2672.5431    -42011.75    46.497915    225.55543 
    7550    132.93986   -141.73265    140315.42   -39376.319    2668.8682   -42045.187    46.600743    225.24528 
    7600    132.43338   -305.38672    140295.18    -39408.21    2658.7002    -42066.91    46.870311    224.38713 
    7650    132.07401   -234.99024    140337.29   -39410.436    2651.4855   -42061.922    47.278483    223.77822 
    7700    134.07817   -247.68722    140302.23   -39392.567    2691.7207   -42084.287    47.504272    227.17396 
    7750    133.95869 -0.014994641    140313.77   -39413.681    2689.3219   -42103.003    47.770059    226.97151 
    7800    132.89519    -154.7627    140318.09   -39430.143    2667.9713   -42098.114    48.059513    225.16958 
    7850    132.38186   -334.67262    140308.28   -39404.661    2657.6658   -42062.326    48.462304    224.29982 
    7900    134.25817   -313.62332     140326.7   -39361.032    2695.3343   -42056.367    48.869172    227.47894 
    7950    135.08301    -212.5752    140349.84   -39365.105    2711.8935   -42076.998    48.898122    228.87649 
    8000    133.46341   -170.12848    140310.66   -39386.126    2679.3788   -42065.505    49.072392    226.13234 
    8050    132.70272   -318.66159    140260.61   -39362.114    2664.1073   -42026.221    49.142941    224.84347 
    8100    130.70372   -147.40875    140244.26   -39381.796     2623.976   -42005.772     49.26053     221.4565 
    8150    131.20189    119.85084    140290.91   -39362.034    2633.9772   -41996.011    49.507866    222.30057 
    8200    133.69817    -26.69841    140371.06   -39346.717    2684.0919   -42030.809    49.848512    226.53011 
    8250    134.86476   -154.54733    140354.82   -39346.696    2707.5119   -42054.208    50.148276     228.5067 
    8300    131.34654     -244.147    140305.55   -39403.498    2636.8811    -42040.38    50.359443    222.54565 
    8350    133.28158   -199.52153    140256.65   -39413.357    2675.7284   -42089.085    50.534343    225.82426 
    8400    134.11761   -140.49824       140194   -39403.936    2692.5125   -42096.449    50.733253    227.24079 
    8450    132.74223   -119.45346    140216.76    -39452.71    2664.9006   -42117.611    50.673917    224.91042 
    8500    131.61366   -253.04302    140217.54   -39458.658    2642.2437   -42100.901     50.76029    222.99824 
    8550    131.18535    42.121401    140256.19   -39485.951     2633.645   -42119.596    50.938741    222.27254 
    8600    128.63498   -130.80904    140373.36   -39497.497    2582.4444   -42079.941     51.33386    217.95134 
    8650     128.9343   -245.88229    140402.64   -39463.838    2588.4536   -42052.291    51.568428     218.4585 
    8700    133.14625   -248.27074    140338.65   -39408.243    2673.0117   -42081.255    51.745693    225.59498 
    8750    132.61343    -116.3331     140278.2   -39443.995    2662.3149    -42106.31    52.147934    224.69219 
    8800    132.18352   -80.828849    140359.93   -39425.422    2653.6841   -42079.107    52.278753    223.96378 
    8850     133.3215   -58.733537    140404.68   -39397.187    2676.5298   -42073.717    52.624789     225.8919 
    8900    133.17954   -8.9875409    140422.94    -39453.59    2673.6799    -42127.27    52.865528    225.65137 
    8950    133.79842   -215.77661    140449.01   -39467.121    2686.1043   -42153.226    53.013669    226.69996 
    9000    131.53818   -379.02569    140344.55   -39508.675    2640.7283   -42149.403    53.205936    222.87035 
    9050     129.9106   -126.84847    140426.35   -39517.743    2608.0534   -42125.797    53.257917    220.11267 
    9100    132.03262    -91.24967    140422.58   -39512.457    2650.6547   -42163.112    53.351743     223.7081 
    9150    134.16116   -251.89983    140580.42   -39513.737    2693.3866   -42207.124    53.511374    227.31456 
    9200    128.88227   -205.44333    140532.28   -39535.739    2587.4091   -42123.148    53.658355    218.37034 
    9250    131.30699   -161.06576    140495.65   -39499.023    2636.0871    -42135.11    54.150972    222.47864 
    9300    129.25908    -157.3704    140496.04   -39467.348    2594.9737   -42062.321    54.487709    219.00878 
    9350    130.83513   -266.23216     140484.5   -39460.448    2626.6142   -42087.062    54.811993    221.67915 
    9400    130.58789   -168.54208    140556.56   -39443.333    2621.6506   -42064.983    55.075625    221.26024 
    9450    129.50333   -331.07367    140512.49   -39445.804    2599.8772   -42045.681    55.334142    219.42263 
    9500    132.14401   -347.11756    140455.49   -39429.765    2652.8909   -42082.656    55.876191    223.89683 
    9550    133.52118   -533.70308    140423.21   -39361.484    2680.5386   -42042.023    56.317706    226.23023 
    9600    131.30436   -199.06277    140429.69   -39362.522    2636.0343   -41998.556    56.647046    222.47418 
    9650    133.39237   -218.20912    140459.87   -39305.257    2677.9526    -41983.21    57.079666    226.01198 
    9700    133.80479   -86.986996     140526.3   -39351.302    2686.2322   -42037.535    57.293368    226.71075 
    9750    131.94914   -69.830494    140551.05   -39375.451    2648.9787   -42024.429    57.618233    223.56666 
    9800    134.58234   -132.05385    140636.06   -39352.764    2701.8423   -42054.606    57.951915     228.0282 
    9850    137.02562   -197.28458    140692.53   -39363.566    2750.8928   -42114.459    58.142271    232.16794 
    9900    134.59708   -189.62313     140715.6   -39370.274     2702.138   -42072.412    58.412375    228.05316 
    9950    132.21266   -9.3688747     140732.9   -39370.937    2654.2691   -42025.206    58.650232    224.01315 
   10000    134.98255    -78.31386    140793.34   -39322.807    2709.8767   -42032.683    58.592575    228.70628 
   10050    134.00089   -102.59506    140786.58   -39299.022    2690.1691   -41989.191     58.68046    227.04302 
   10100    134.46406   -86.389977    140749.01   -39292.263    2699.4677   -41991.731    58.947258    227.82779 
   10150    132.34965   -126.22872    140750.21   -39284.142    2657.0192   -41941.161    59.202372    224.24525 
   10200    134.15399   -137.66272    140776.92   -39300.039    2693.2428   -41993.281    59.578831    227.30242 
   10250    131.74665   -266.17018    140765.02   -39313.354    2644.9136   -41958.268    59.773978    223.22357 
   10300    132.45827   -546.05658    140659.12   -39289.006    2659.1999   -41948.206    60.134203     224.4293 
   10350    133.57598   -110.24744    140608.77   -39287.851    2681.6388    -41969.49    60.282469    226.32308 
   10400    133.78695   -115.29244    140701.67   -39310.717    2685.8742   -41996.591     60.48609    226.68054 
   10450    133.21081   -172.83779    140728.48   -39278.653    2674.3076    -41952.96    60.745605    225.70435 
   10500    135.01898    -45.99091    140808.34   -39256.132    2710.6081    -41966.74    61.080847    228.76801 
   10550    138.16276    -70.81049     140871.7   -39256.777    2773.7217   -42030.499    61.323975    234.09463 
   10600    134.72456   -222.59164    140836.81   -39303.328    2704.6974   -42008.026    61.640727    228.26917 
   10650    136.84547   -290.49865    140747.37   -39292.708    2747.2762   -42039.984      61.8616     231.8627 
   10700    134.76222   -106.41585    140774.79   -39326.285    2705.4535   -42031.739     61.86208    228.33297 
   10750    132.52947   -326.86734    140713.78   -39337.768    2660.6292   -41998.397    61.898434    224.54993 
   10800    134.34363   -197.14141    140719.88   -39345.018    2697.0498   -42042.067    61.990325    227.62373 
   10850    137.48046   -97.262012    140775.88   -39334.319    2760.0242   -42094.344    62.131608     232.9386 
   10900     133.9889   -270.98036    140774.21   -39415.049    2689.9285   -42104.978    62.240411    227.02271 
   10950    131.23774   -105.08716    140782.01   -39415.436    2634.6968   -42050.133     62.59285    222.36131 
   11000    132.81122   -433.54859    140729.17   -39395.186    2666.2856   -42061.472    62.782302    225.02731 
   11050    133.92877   -276.24213     140693.7   -39423.013    2688.7213   -42111.734    63.105133    226.92082 
   11100    132.81142   -197.30681    140669.62   -39416.045    2666.2895   -42082.335    63.413664    225.02764 
   11150    135.76456   -184.19721    140775.63   -39391.884    2725.5762    -42117.46    63.498804    230.03128 
   11200    135.21746   -176.65684    140739.63   -39373.555    2714.5927   -42088.147    63.908849     229.1043 
   11250    131.21273    -218.8425    140789.54   -39382.356    2634.1947   -42016.551    64.098613    222.31893 
   11300    134.33602   -155.43204    140854.21   -39355.665    2696.8972   -42052.562    64.239898    227.61085 
   11350    135.00663   -368.71935    140831.87   -39363.057      2710.36   -42073.417    64.340929    228.74708 
   11400    133.77873   -175.58206    140818.88   -39364.175    2685.7092   -42049.884    64.341479    226.66661 
   11450    133.34068   -385.23495    140715.16   -39372.465    2676.9149    -42049.38    64.747568    225.92439 
   11500    131.94447   -102.59844    140686.21   -39392.545     2648.885    -42041.43    64.907878    223.55875 
   11550    129.39955   -313.37985    140743.17   -39406.699    2597.7937   -42004.493    65.115549    219.24678 
   11600    133.72287   -41.755686    140800.98   -39402.651    2684.5876   -42087.238    65.297231    226.57195 
   11650     133.6715     -97.5492    140880.67   -39379.405    2683.5564   -42062.961    65.442927    226.48492 
   11700    136.06658    -141.7001    140968.98   -39394.607    2731.6394   -42126.246    65.451751      230.543 
   11750    132.68266   -9.0768123       140987    -39416.92    2663.7047   -42080.625    65.800259    224.80949 
   11800    136.46825   -296.75621    141035.91   -39349.013    2739.7032   -42088.716    66.101045    231.22356 
   11850    132.98016   -211.39449    140982.07   -39380.013    2669.6773    -42049.69     66.27844    225.31356 
   11900    133.09791   -124.16297    140912.37   -39391.473    2672.0411   -42063.515    66.411999    225.51306 
   11950    131.08118   -187.53655    140933.06    -39457.94    2631.5537   -42089.494    66.714957    222.09603 
   12000    131.87455    -362.8409    140853.96   -39506.596    2647.4813   -42154.078     67.05094    223.44028 
   12050    132.30611   -260.75945    140812.66   -39468.732    2656.1451   -42124.877    67.384281    224.17148 
   12100    133.58911   -413.80673    140786.64   -39488.121    2681.9023   -42170.023    67.625931    226.34532 
   12150    132.17558   -359.73488    140753.66   -39512.774    2653.5247   -42166.299    67.642523    223.95033 
   12200    132.77654   -252.29914    140755.83   -39454.129    2665.5893   -42119.719    67.796112    224.96854 
   12250    132.08943   -130.22344    140774.78   -39502.009     2651.795   -42153.804    67.942093    223.80435 
   12300    134.71047   -316.36982    140765.66   -39530.079    2704.4145   -42234.493     68.04313    228.24529 
   12350    134.52364   -339.43758    140798.34   -39486.845    2700.6638   -42187.509    68.296531    227.92874 
   12400    133.93298   -151.38286    140778.47   -39454.174    2688.8058    -42142.98    68.613446    226.92796 
   12450    132.73898   -241.91402    140825.54   -39469.067    2664.8354   -42133.903    69.112474    224.90492 
   12500     132.8672   -457.11356    140803.04   -39512.776    2667.4095   -42180.185    69.512925    225.12217 
   12550    131.26289    25.654286    140757.94   -39528.968    2635.2017    -42164.17    69.864861    222.40392 
   12600    133.42634    -108.0853    140824.66   -39468.682    2678.6346   -42147.316    70.217437    226.06954 
   12650    131.69487   -93.260568    140846.16   -39428.482    2643.8741   -42072.356    70.524076    223.13584 
   12700    132.39115    45.479152    140879.91   -39443.692    2657.8525   -42101.544    70.624787    224.31558 
   12750    134.48636    -338.9873    140867.26    -39436.54    2699.9152   -42136.455    70.844588    227.86556 
   12800    132.55245   -151.94655    140941.01   -39441.394    2661.0905   -42102.485    70.968961    224.58886 
   12850    133.21226   -241.86214    140976.24   -39414.222    2674.3367   -42088.559    71.405235     225.7068 
   12900    132.02342    -406.1827    140925.91   -39404.842      2650.47   -42055.312    71.575526    223.69252 
   12950    133.54749   -288.10537    140954.82   -39356.378    2681.0667   -42037.445    71.839676     226.2748 
   13000    133.73097   -431.32484    140926.29   -39376.599    2684.7503   -42061.349    72.031491    226.58568 
   13050    134.09595    -248.8518     140901.3   -39371.919    2692.0775   -42063.997    72.312197    227.20408 
   13100    136.02618   -225.87175    140907.66   -39373.283    2730.8283   -42104.111    72.623869    230.47454 
   13150    133.26295   -418.74454    140894.61   -39414.608    2675.3544   -42089.963     72.83658    225.79269 
   13200      132.711   -552.82615    140818.19   -39414.406    2664.2735    -42078.68     73.27633     224.8575 
   13250     136.7006    -219.2151    140760.73    -39421.84    2744.3679   -42166.208    73.350284    231.61725 
   13300    132.63522   -265.30946    140848.48   -39446.373    2662.7523   -42109.125    73.557263    224.72911 
   13350    132.41507   -441.03932    140808.39   -39450.184    2658.3325   -42108.516    73.733202    224.35609 
   13400    130.10118   -217.46759    140754.88   -39513.506    2611.8796   -42125.386    73.930888    220.43559 
   13450    135.97969   -211.86999    140781.95   -39422.305    2729.8951     -42152.2    74.129658    230.39578 
   13500    134.48404   -200.37233    140799.98   -39377.759    2699.8688   -42077.627    74.402414    227.86164 
   13550    134.49239    -240.6496    140913.76   -39369.408    2700.0364   -42069.444    74.364224    227.87579 
   13600    133.15197   -157.15925     140937.8   -39379.986    2673.1264   -42053.112    74.668443    225.60465 
   13650    134.85538   -182.82127    140957.07   -39377.585    2707.3236   -42084.908    74.726471    228.49081 
   13700    132.35621   -183.02782    140929.57   -39352.615     2657.151   -42009.766    74.891706    224.25638 
   13750    133.14151   -218.98579    140946.91   -39374.635    2672.9165   -42047.551    75.228459    225.58694 
   13800     133.2459   -139.47469    140976.93   -39363.443    2675.0121   -42038.455    75.399228     225.7638 
   13850    131.07154   -218.74526    140906.07   -39405.133    2631.3601   -42036.493    75.548781     222.0797 
   13900    133.22365   -112.56988    140907.68    -39406.94    2674.5654   -42081.506    75.727326    225.72611 
   13950      130.183   -276.37055    140958.16   -39429.656    2613.5221   -42043.178    75.961556    220.57421 
   14000    131.24433   -498.78072    140906.17   -39465.785     2634.829   -42100.614    76.363114    222.37246 
   14050    131.76857   -214.72216    140907.91     -39469.3    2645.3535   -42114.654    76.579733     223.2607 
   14100    132.80197   -342.33689    140916.06   -39479.808       2666.1   -42145.908    76.828818    225.01165 
   14150    133.63718   -374.85702    140882.59   -39467.543    2682.8673    -42150.41    77.186077    226.42676 
   14200    132.00487   -370.80681    140798.33   -39437.146    2650.0975   -42087.243    77.444686    223.66108 
   14250     131.9075    -140.8581    140757.85   -39461.307    2648.1428   -42109.449    77.644772     223.4961 
   14300    131.13344   -217.17519    140704.06   -39438.358    2632.6028   -42070.961    77.773851    222.18458 
   14350    128.67123   -302.41027    140700.86   -39484.099    2583.1721   -42067.271    77.898594    218.01276 
   14400    131.45233   -303.22663    140731.53   -39424.951    2639.0048   -42063.955    78.011554    222.72489 
   14450    130.06566   -230.94913    140780.74   -39415.355    2611.1664   -42026.522    78.289129     220.3754 
   14500    133.00522   -340.73325    140780.75   -39358.713    2670.1804   -42028.893    78.497281    225.35602 
   14550     134.0609   -64.316379    140795.88   -39355.635    2691.3739   -42047.009    78.585284     227.1447 
   14600    133.86983   -267.02398    140823.42   -39378.105     2687.538   -42065.643    78.787284    226.82096 
   14650     130.7751   -179.51328    140855.73   -39414.767    2625.4089   -42040.176    79.018192    221.57743 
   14700    131.85763   -240.97343    140802.51   -39436.851    2647.1416   -42083.992    79.385066    223.41161 
   14750      131.444    -135.6604     140754.6    -39421.05    2638.8375   -42059.887    79.646295    222.71077 
   14800    134.44493   -161.03757    140765.31   -39362.788    2699.0835   -42061.871     80.21369    227.79537 
   14850     132.0807   -221.60135    140740.92   -39381.192    2651.6198   -42032.811    80.464178    223.78956 
   14900    134.40794   -111.92747    140817.14   -39344.636    2698.3409   -42042.977    80.628631    227.73269 
   14950    133.26682   -363.22661    140720.52   -39428.168    2675.4322   -42103.601     80.91299    225.79926 
   15000    130.80647   -99.489316    140717.53   -39460.356    2626.0387   -42086.394    81.199956    221.63058 
   15050    133.23747     -381.133    140640.38   -39446.174    2674.8428   -42121.017    81.319756    225.74952 
   15100      131.734   -108.03796     140684.3   -39432.143    2644.6597   -42076.802    81.868494    223.20214 
   15150    132.59365   -105.03162    140754.26   -39459.367    2661.9178   -42121.285    82.105308    224.65868 
   15200    130.27724   -369.71431    140783.42   -39488.877     2615.414   -42104.292    82.348341    220.73389 
   15250    132.08921   -209.36637    140766.82   -39510.001    2651.7908   -42161.792    82.565216    223.80399 
   15300    130.08637   -122.58322    140770.43   -39511.167    2611.5822   -42122.749    82.773616    220.41049 
   15350    132.68267   -232.24434    140769.12   -39510.945    2663.7048   -42174.649    82.948377     224.8095 
   15400    131.82345   -206.48637    140802.98   -39544.102    2646.4554   -42190.558    83.194925    223.35369 
   15450    131.16005   -67.677293    140778.22   -39555.861    2633.1371   -42188.998    83.216123    222.22967 
   15500    133.73539   -145.74223    140843.98   -39526.969     2684.839   -42211.808    83.416851    226.59317 
   15550     131.0964   -262.14466    140823.08   -39517.731    2631.8593   -42149.591     83.68734    222.12182 
   15600    132.75234   -52.238518    140884.39    -39518.02    2665.1034   -42183.123    83.883255    224.92754 
   15650    131.25936   -218.70764    140943.93   -39472.227    2635.1309   -42107.357    84.234187    222.39794 
   15700    132.54291   -211.34573    140993.08   -39457.158    2660.8991   -42118.057    84.464452     224.5727 
   15750    134.61061    -167.7731     141012.9   -39426.169    2702.4098   -42128.579    84.513439     228.0761 
   15800    133.74672   -131.47681    141099.97   -39417.349    2685.0664   -42102.416    84.866121    226.61236 
   15850    132.74265   -190.05831    141130.01   -39410.938     2664.909   -42075.847    85.199119    224.91113 
   15900    132.16231   -75.485772    141131.89   -39438.484    2653.2582   -42091.742    85.461848    223.92783 
   15950    133.82135   -228.07747    141186.53   -39416.588    2686.5647   -42103.153    85.761204    226.73881 
   16000    131.84003   -258.73667    141083.07   -39418.871    2646.7882   -42065.659    86.022518    223.38179 
   16050    132.36214   -349.56867    141049.05   -39437.935    2657.2699   -42095.205    86.127289    224.26641 
   16100    131.93148   -324.90053     141032.2   -39417.819    2648.6241   -42066.444      86.1907    223.53673 
   16150    134.74253    -397.6827     140906.1   -39386.195    2705.0581   -42091.253    86.231875    228.29961 
   16200    133.98351   -175.56577    140830.31   -39340.675    2689.8203   -42030.495    86.427791    227.01358 
   16250    131.79694   -136.91728     140908.4    -39383.76    2645.9231   -42029.683    86.581273    223.30877 
   16300    133.75387   -263.25703    140908.91   -39361.882      2685.21   -42047.092    86.690994    226.62448 
   16350    135.10631   -339.24931    140937.06   -39345.561    2712.3612   -42057.922    86.750929    228.91597 
   16400    134.13365   -276.56686    140942.99    -39380.47    2692.8345   -42073.304    86.673742    227.26796 
   16450    132.58112   -220.84584    140930.98   -39387.312    2661.6663   -42048.978    86.917586    224.63745 
   16500    131.38176    -168.2032    140962.33   -39385.498     2637.588   -42023.086    87.011234    222.60531 
   16550    136.21598   -308.29068    141021.94   -39364.343    2734.6388   -42098.982    86.762904    230.79613 
   16600    132.16173   -201.92746    141048.23   -39367.448    2653.2466   -42020.695    86.759356    223.92686 
   16650    135.66823   -176.46113     141049.1   -39420.041    2723.6423   -42143.684    87.041213    229.86806 
   16700    133.14889   -150.72234    141005.01   -39425.769    2673.0646   -42098.834    87.060073    225.59944 
   16750    134.81123   -282.96969    141067.24   -39451.632    2706.4373   -42158.069    87.380226    228.41601 
   16800    131.23034   -128.98457    141098.48   -39477.513    2634.5483   -42112.061    87.659562    222.34877 
   16850    134.53339   -379.71807    141158.54   -39456.928    2700.8594   -42157.787     87.99282    227.94525 
   16900    132.80209   -154.72628    141202.25   -39419.681    2666.1024   -42085.784    88.148426    225.01185 
   16950    135.02307   -315.63995    141148.19   -39375.778    2710.6902   -42086.468    88.208266    228.77494 
   17000    131.62236   -298.62154    141088.23   -39375.885    2642.4184   -42018.304    88.444995    223.01299 
   17050    132.84303   -266.30325    141108.46   -39386.228    2666.9242   -42053.152    88.807298    225.08121 
   17100    131.08681   -76.165052    141105.19   -39385.921    2631.6667   -42017.588    88.936001    222.10557 
   17150    132.20116   -378.26269    141113.76   -39394.128    2654.0382   -42048.166    89.048808    223.99367 
   17200    132.91151   -306.77879    141005.56   -39376.633    2668.2991   -42044.932     89.58674    225.19725 
   17250    132.02642   -359.65566    140934.02   -39381.003    2650.5302   -42031.533    89.690476     223.6976 
   17300    131.31682   -445.17621    140898.83   -39398.051    2636.2845   -42034.336     90.01176     222.4953 
   17350    129.79584   -251.38657    140843.41   -39459.839    2605.7495   -42065.588    90.304338    219.91823 
   17400    130.19535   -145.68077     140826.4   -39460.408    2613.7701   -42074.178    90.377571    220.59514 
   17450    132.52673   -94.106259    140819.72   -39419.037    2660.5743   -42079.612    90.601525    224.54529 
   17500    131.84935   -327.70401    140862.67   -39429.609    2646.9753   -42076.585    90.772008    223.39757 
   17550    129.99345   -391.26275     140830.8   -39466.568    2609.7167   -42076.284    90.977647    220.25305 
   17600    131.73753   -182.34634     140785.5   -39444.144    2644.7304   -42088.874    91.485327    223.20811 
   17650    129.82166   -363.60888    140838.73   -39499.287    2606.2679   -42105.555    91.893399    219.96198 
   17700    129.82619   -204.96336    140775.06   -39466.624     2606.359   -42072.983    92.156944    219.96967 
   17750    132.09728   -316.44631    140700.29   -39489.318    2651.9528   -42141.271     92.60163    223.81766 
   17800    129.10142   -299.57944    140662.71   -39496.417    2591.8086   -42088.225     92.80448    218.74165 
   17850    133.07492   -54.221597    140617.56   -39485.813    2671.5795   -42157.392    93.102565     225.4741 
   17900    133.21384   -122.98892    140735.92   -39439.576    2674.3685   -42113.944    93.454353    225.70949 
   17950     131.5382   -402.36245    140727.97   -39452.789    2640.7287   -42093.517    93.939325    222.87038 
   18000    130.50827    -159.6672     140656.5   -39439.701    2620.0522   -42059.753    94.356709    221.12534 
   18050    133.49782   -256.63984    140629.42   -39449.038    2680.0697   -42129.107    94.621025    226.19065 
   18100    132.01624   -206.84346    140558.87    -39468.02    2650.3257   -42118.346    94.895024    223.68034 
   18150     132.3686    -193.5245    140552.15   -39477.849    2657.3996   -42135.248    95.104448    224.27736 
   18200    130.78383   -218.08265     140531.6   -39475.687    2625.5841   -42101.271    95.415166    221.59222 
   18250    132.46618   -278.59647    140517.18   -39509.974    2659.3588   -42169.333    95.705823     224.4427 
   18300    132.08503   -161.51284    140517.44   -39526.718    2651.7068   -42178.424    95.780533     223.7969 
   18350    129.65318    -101.3633    140538.41   -39506.601    2602.8855   -42109.487    95.816851    219.67652 
   18400    134.26829   -114.62006    140555.98   -39452.599    2695.5373   -42148.136    96.051365    227.49608 
   18450    131.55886   -129.12225    140517.82   -39480.039    2641.1435   -42121.183    96.282052    222.90539 
   18500    131.51366   -149.51218    140539.53   -39515.703     2640.236   -42155.939     96.65511     222.8288 
   18550    132.01667    -8.281707    140565.91   -39530.687    2650.3343   -42181.021    97.040018    223.68107 
   18600    130.89729   -160.16663    140608.26   -39533.597     2627.862   -42161.459    97.446461    221.78447 
   18650     130.9358    -124.2035    140663.99   -39505.373    2628.6352   -42134.008     97.80091    221.84972 
   18700    132.72234   -216.18844    140562.31   -39509.964    2664.5013   -42174.465    98.046663    224.87672 
   18750    133.80118    -70.81007    140642.96   -39456.191    2686.1597   -42142.351    98.176358    226.70464 
   18800    135.81745   -236.97451    140745.67   -39433.094     2726.638   -42159.732    98.350921    230.12089 
   18850    135.89917   -210.41746    140755.28   -39387.583    2728.2785   -42115.862    98.669742    230.25935 
   18900    134.11178   -299.38317    140743.95   -39427.285    2692.3953    -42119.68    99.133657     227.2309 
   18950    133.05751     -222.609    140720.65   -39411.107    2671.2301   -42082.338    99.375257    225.44461 
   19000    133.32269   -86.875312     140821.6   -39424.336    2676.5538    -42100.89    99.580677    225.89392 
   19050    132.97906   -190.40112    140817.86   -39388.269    2669.6552   -42057.925    99.767032     225.3117 
   19100    133.17243   -258.90004    140802.84   -39373.449    2673.5371   -42046.987    100.01192    225.63932 
   19150    134.66259   -247.79647    140740.26   -39407.986    2703.4533   -42111.439    99.996203    228.16416 
   19200    135.35848   -60.329346    140803.12    -39355.83    2717.4238   -42073.254    100.38019    229.34323 
   19250    133.80124   -297.69744    140810.99    -39373.46    2686.1609   -42059.621    100.75482    226.70474 
   19300    131.70176   -226.17385    140807.18   -39364.962    2644.0124   -42008.975    101.21437    223.14751 
   19350    133.49253   -360.39627    140812.74   -39387.291    2679.9635   -42067.254    101.37865    226.18169 
   19400    134.45176   -327.11463    140826.23   -39420.009    2699.2207    -42119.23    101.55935    227.80695 
   19450    132.23322   -290.30078    140753.22   -39436.723    2654.6818   -42091.405    101.55983    224.04798 
   19500    133.46908   -104.56337    140754.22   -39396.539    2679.4927   -42076.031    101.84389    226.14195 
   19550    131.20046   -377.08948     140761.9   -39433.487    2633.9485   -42067.435    102.18741    222.29814 
   19600    132.93362   -250.77482     140769.7   -39498.302    2668.7428   -42167.045    102.62046    225.23469 
   19650    130.60633   -285.01412    140751.75   -39503.172    2622.0209   -42125.193    102.36408    221.29149 
   19700    130.99464   -434.02049    140783.14   -39517.207    2629.8165   -42147.023    102.19288    221.94941 
   19750    132.75728   -376.94789    140758.38   -39465.282    2665.2028   -42130.485    102.34602    224.93593 
   19800    131.19195   -230.44808    140777.65   -39490.605    2633.7776   -42124.383    102.30831    222.28373 
   19850     131.1237   -38.284194    140795.42    -39471.54    2632.4073   -42103.947    102.27441    222.16808 
   19900    129.55513   -308.77655    140801.32   -39508.767    2600.9172   -42109.685    102.57315     219.5104 
   19950    131.33967   -145.02628    140825.07   -39529.463     2636.743   -42166.206    103.05405      222.534 
   20000    131.81465   -272.54534     140851.4   -39529.635    2646.2786   -42175.914    103.16144    223.33878 
   20050    131.15128   -370.66139    140859.97   -39539.178     2632.961   -42172.139    103.41313    222.21481 
   20100     133.5868   -158.15341    140886.99   -39499.252     2681.856   -42181.108    103.48107    226.34141 
   20150     135.5054    -376.8334    140958.95   -39463.188    2720.3733   -42183.561    103.76072    229.59217 
   20200    132.57485   -284.42572    141030.32   -39461.546    2661.5403   -42123.087    103.94213    224.62682 
   20250    134.54248   -2.6656421    141039.56   -39454.227    2701.0419   -42155.269    104.42417    227.96065 
   20300     132.3774   -265.04444    141117.06   -39468.859    2657.5763   -42126.435    104.66542    224.29227 
   20350    129.84587   -422.36215    141125.88   -39512.232     2606.754   -42118.986    105.15801    220.00301 
   20400    131.75429    -244.2141    141069.93   -39450.914     2645.067   -42095.981      105.289    223.23652 
   20450    131.51797   -65.317135    141063.47   -39486.113    2640.3226   -42126.436    105.38067    222.83611 
   20500    128.38679   -229.74853    141052.53   -39508.386    2577.4618   -42085.848    105.66031    217.53082 
   20550    131.35524   -234.17286     141037.6   -39555.144    2637.0557     -42192.2    105.76882    222.56039 
   20600    130.14644   -63.999031    141107.27   -39587.362    2612.7881    -42200.15    106.20038    220.51227 
   20650    132.30457   -323.57046    141079.58   -39589.904    2656.1143   -42246.018    106.38912    224.16888 
   20700    130.77818   -224.77384    141036.18   -39561.386    2625.4708   -42186.857    106.62592    221.58266 
   20750    130.13601   -214.15652    141090.14    -39528.81    2612.5787   -42141.389    106.94982     220.4946 
   20800    128.62412   -299.17096    141055.25   -39521.963    2582.2265   -42104.189    106.94115    217.93295 
   20850    131.09059   -326.56445    141026.86   -39498.974    2631.7427   -42130.716    107.21219    222.11198 
   20900    135.82516    -258.4579    140984.75   -39403.177    2726.7928   -42129.969    107.37926    230.13395 
   20950    134.38281   -164.80462    141002.33   -39388.698    2697.8365   -42086.535     107.2084    227.69012 
   21000    136.09089   -38.003444     140999.8   -39355.117    2732.1275   -42087.245    107.11301    230.58419 
   21050    134.38828   -106.40414     141072.3   -39345.374    2697.9463   -42043.321    107.03013    227.69939 
   21100     134.8655      -230.56     141068.3   -39347.486    2707.5268   -42055.012    107.08801    228.50795 
   21150    135.45557   -265.84609     140995.2   -39333.832    2719.3729   -42053.205    107.41432    229.50774 
   21200    134.82339   -179.92086    141022.02   -39391.214    2706.6814   -42097.896    107.68932    228.43661 
   21250    132.97319    31.806854    141015.18   -39408.225    2669.5372   -42077.762    108.08134    225.30174 
   21300     132.9943   -252.90746    141030.61   -39396.276     2669.961   -42066.237    108.05271     225.3375 
   21350    135.87003   -181.39989    140980.39   -39365.933    2727.6936   -42093.627    108.14409    230.20998 
   21400    133.86079   -122.25736    140937.03   -39366.423    2687.3565    -42053.78    108.15213    226.80564 
   21450    135.28728   -201.57629    140947.77   -39377.548    2715.9944   -42093.542    108.15335     229.2226 
   21500     133.6585   -186.16266    140996.15   -39426.722    2683.2955   -42110.017    108.35694     226.4629 
   21550    134.00532   -135.97371     141017.1   -39433.025    2690.2581   -42123.283    108.52318    227.05053 
   21600    134.99475    46.478795    141022.76   -39447.837    2710.1217   -42157.959    108.89225    228.72696 
   21650    134.20031   -150.34054    141017.07   -39465.602    2694.1727   -42159.775    109.32303    227.38091 
   21700    133.19471   -270.93072    140971.32   -39459.188    2673.9845   -42133.172    109.36542    225.67708 
   21750    132.34768   -265.47355    140902.25   -39502.495    2656.9797   -42159.475    109.44017    224.24192 
   21800    131.23643   -268.04068    140807.31   -39492.619    2634.6705   -42127.289    109.58806    222.35908 
   21850    131.30599   -34.282441    140770.38   -39522.339    2636.0671   -42158.407    109.81009    222.47695 
   21900    131.98901   -97.246308    140743.16   -39517.018    2649.7792   -42166.797    110.17731    223.63422 
   21950    133.91327   -97.666177    140816.51   -39512.069      2688.41   -42200.479    110.33148    226.89455 
   22000    132.71964   -290.14357     140790.8   -39551.687     2664.447   -42216.134      110.738    224.87214 
   22050    131.75846   -396.09682     140712.3   -39571.983    2645.1506   -42217.134    111.04121    223.24357 
   22100    132.08451   -150.81207    140754.19   -39529.884    2651.6963    -42181.58    111.31209    223.79601 
   22150    130.03284   -53.593737    140799.96   -39525.868    2610.5076   -42136.375    111.49922     220.3198 
   22200     132.5002   -212.76245    140865.01   -39575.332    2660.0416   -42235.374    111.72518    224.50034 
   22250     134.1725   -131.08108    140967.38   -39549.285    2693.6144   -42242.899    111.97294    227.33379 
   22300    133.67481   -377.85114    140992.03   -39562.744    2683.6229   -42246.367    111.99942    226.49053 
   22350    132.07441   -109.42271    140987.69   -39547.445    2651.4937   -42198.938     112.4521    223.77891 
   22400    130.60394   -162.33601     141007.7   -39540.497    2621.9728    -42162.47    112.61805    221.28743 
   22450     132.9224   -168.32509    141001.08   -39542.764    2668.5177   -42211.282    112.96953     225.2157 
   22500    131.80614   -203.19581    140997.54    -39545.84    2646.1078   -42191.948    113.10067    223.32436 
   22550    131.62123   -263.47252    140989.86   -39581.321    2642.3956   -42223.716    113.25583    223.01106 
   22600    133.22342   -255.18047     140975.7   -39516.824    2674.5608   -42191.385    113.31247    225.72571 
   22650     135.0908   -148.56442     141027.1   -39474.485    2712.0498   -42186.535    113.57393    228.88969 
   22700    133.98988   -180.16634    141082.94   -39468.805    2689.9481   -42158.753    114.00143    227.02436 
   22750    131.56344    -359.5004    141058.63   -39494.538    2641.2355   -42135.774    114.18345    222.91315 
   22800    134.02445   -355.08685    141064.92   -39497.088     2690.642    -42187.73    114.49299    227.08293 
   22850    131.33131   -325.13909    141029.33    -39561.51    2636.5754   -42198.086    114.50166    222.51985 
   22900    130.82681   -276.77195    140985.37   -39556.405    2626.4472   -42182.852    114.67947    221.66506 
   22950    127.65451     -189.336    140912.87    -39557.78    2562.7608    -42120.54    114.80782     216.2901 
   23000    132.92844   -336.60119    140849.53   -39538.728    2668.6389   -42207.367    114.81939    225.22592 
   23050    135.25281   -222.75433    140762.68   -39510.575    2715.3024   -42225.877     114.9195     229.1642 
   23100     132.0396   -309.75734    140716.65   -39494.621    2650.7947   -42145.415    115.11454    223.71993 
   23150    131.65133    -267.5856    140703.67   -39442.005         2643   -42085.005    115.44816    223.06207 
   23200    134.47938   -326.16299    140772.55   -39413.781    2699.7752   -42113.556    115.81332    227.85375 
   23250    135.34343     -13.7235    140791.12   -39338.133    2717.1216   -42055.255    115.84694    229.31773 
   23300    134.44003     -172.727    140878.37   -39369.508    2698.9851   -42068.493    116.16149    227.78706 
   23350    135.78732   -60.782504    140951.78   -39390.949     2726.033   -42116.982    116.13354    230.06983 
   23400     134.7736   -10.286686    140995.79   -39410.401    2705.6818   -42116.083    116.12726    228.35225 
   23450    133.56792   -179.14797    141002.52   -39438.293    2681.4769    -42119.77    116.39933    226.30941 
   23500    131.55255   -335.54802    141010.88   -39453.382    2641.0168   -42094.399    116.39014    222.89469 
   23550    134.31555   -139.12611    141009.79   -39456.932    2696.4861   -42153.418    116.71598    227.57615 
   23600    135.34931   -209.69095     140984.3   -39444.167    2717.2398   -42161.407    116.79214    229.32771 
   23650    136.24253   -54.533083    141035.87   -39410.692    2735.1717   -42145.864    116.69023    230.84112 
   23700    137.42705    1.7496638    141149.76     -39374.1     2758.952   -42133.052    116.73931     232.8481 
   23750    134.21678    -13.89055    141117.97    -39399.48    2694.5033   -42093.984    116.79543    227.40881 
   23800    135.30567   -49.004571    141150.23   -39448.755    2716.3636   -42165.118    116.72255    229.25376 
   23850    132.12154   -136.21142    141195.17   -39470.028    2652.4399   -42122.468    117.09307    223.85877 
   23900    133.40637   -219.41612    141088.83   -39485.898    2678.2337   -42164.132    117.51158     226.0357 
   23950    133.59925   -147.79289    141061.06    -39533.44    2682.1059   -42215.546    117.64092     226.3625 
   24000    132.42122   -150.69117    141051.29   -39530.199     2658.456   -42188.655    117.99274    224.36651 
   24050    134.40368   -429.46452    140967.95   -39549.052    2698.2554   -42247.307    118.01207    227.72547 
   24100    135.40564    -38.99465    140906.38   -39554.317    2718.3705   -42272.688    118.03231    229.42314 
   24150    130.90682   -82.986773    140909.87   -39566.495    2628.0534   -42194.548    118.42856    221.80062 
   24200    132.22714   -240.42457     140882.8   -39522.876    2654.5598   -42177.436    118.24633    224.03768 
   24250    132.52878   -26.483966    140897.64   -39495.751    2660.6154   -42156.366    118.62006    224.54876 
   24300    133.39634   -315.01994    140898.24   -39557.284    2678.0323   -42235.317    118.73721     226.0187 
   24350    135.19814   -153.97316    140862.84    -39532.45    2714.2049   -42246.655    118.94679    229.07157 
   24400    130.15846   -159.81013    140888.37     -39519.9    2613.0295   -42132.929    118.93288    220.53264 
   24450    130.67217   -27.463587    140927.14   -39583.902    2623.3425   -42207.245    119.19262    221.40303 
   24500    133.02282   -249.41773    140923.71    -39572.27    2670.5336   -42242.804    119.39634    225.38583 
   24550    131.82252   -281.43888    140880.21   -39587.153    2646.4366    -42233.59     119.6304    223.35211 
   24600    131.71683   -250.60733    140840.56    -39587.45    2644.3148   -42231.765     119.9484    223.17304 
   24650    131.84023   -356.98726    140793.59   -39597.774    2646.7922   -42244.566    120.07441    223.38212 
   24700    131.17697   -297.07586     140758.8   -39617.006    2633.4767   -42250.483    120.11759    222.25833 
   24750    130.90973   -121.06377    140838.05   -39612.015    2628.1117   -42240.127     120.2214    221.80554 
   24800    131.80483    -105.0488    140841.86   -39599.102    2646.0815   -42245.183    120.42263    223.32214 
   24850    132.82686   -166.15437    140858.77   -39608.129    2666.5996   -42274.728    120.84153    225.05382 
   24900    131.70099   -473.95605    140819.23   -39582.527    2643.9969   -42226.524    120.87673    223.14621 
   24950    129.40498   -351.31838     140733.6   -39633.409    2597.9027   -42231.312    121.10327    219.25598 
   25000    133.38377   -261.31923    140752.98     -39615.8      2677.78    -42293.58    121.01599    225.99741 
   25050    135.27363   -117.60748    140907.56   -39552.217    2715.7203   -42267.938    121.00276    229.19946 
   25100    130.71375   -170.69193    140929.01   -39620.599    2624.1773   -42244.776    120.91994    221.47349 
   25150    133.75402   -10.255292    140949.32   -39585.871     2685.213   -42271.084    121.01592    226.62473 
   25200    131.53755   -355.09865    140957.85    -39568.16    2640.7157   -42208.876    121.21068    222.86928 
   25250     130.3773   -285.06209    140862.63   -39567.375    2617.4228   -42184.798    121.58779    220.90342 
   25300    131.42051    59.282206    140803.39    -39588.33    2638.3661   -42226.696    121.65275    222.67098 
   25350    132.51844   -212.73758    140840.07   -39524.486    2660.4079   -42184.894    121.59016    224.53125 
   25400    132.37951   -57.835929    140798.73    -39480.22    2657.6186   -42137.839    121.84665    224.29584 
   25450    130.89865   -111.59154    140917.01   -39463.485    2627.8894   -42091.374    121.96734    221.78678 
   25500    132.93566   -173.16558    140965.57    -39461.71    2668.7838   -42130.494    121.87951    225.23815 
   25550    132.72285   -187.69943    140955.67   -39488.048    2664.5115   -42152.559    122.40344    224.87758 
   25600    133.72764    -240.1048       140964   -39440.018    2684.6835   -42124.702    122.51166    226.58004 
   25650    134.23077   -123.13573    140897.68   -39452.072    2694.7842   -42146.856    122.58456    227.43252 
   25700    130.11613   -315.27225    140871.76   -39470.055    2612.1796   -42082.235    122.96638    220.46092 
   25750    133.29677    2.1764026    140888.22   -39463.695    2676.0334   -42139.729    123.08808       225.85 
   25800     131.9789    -24.17738    140988.66   -39509.192    2649.5761   -42158.768    123.03869    223.61707 
   25850    130.23982   -471.85293    140938.61   -39488.498    2614.6629   -42103.161    123.14054    220.67049 
   25900     133.3371   -88.461466    140894.09   -39513.413     2676.843   -42190.256    123.19786    225.91833 
   25950    131.01524   -120.42775    140877.75   -39525.043    2630.2299   -42155.273    123.62369    221.98431 
   26000    130.27126   -265.01407    140900.01   -39516.403    2615.2939   -42131.697    123.85479    220.72375 
   26050    129.78483    -188.5613    140839.76   -39610.901    2605.5285   -42216.429    124.04729    219.89958 
   26100      132.699   -284.65741    140825.17    -39591.91    2664.0327   -42255.942    124.08523    224.83717 
   26150    130.42143   -221.10933    140820.65   -39569.325    2618.3087   -42187.634    124.41743    220.97819 
   26200    134.08363   -173.24913    140914.55   -39542.823    2691.8301   -42234.653    124.85456     227.1832 
   26250    131.67362   -390.05302     140913.3   -39495.636    2643.4475   -42139.083    125.36066    223.09984 
   26300    133.28492   -268.37088    140845.14   -39465.903    2675.7956   -42141.699    125.71495    225.82993 
   26350    133.64741   -325.64138    140850.37   -39458.277    2683.0727   -42141.349    126.11987     226.4441 
   26400    128.80216   -294.66654    140889.48   -39491.057    2585.8006   -42076.857    126.59378     218.2346 
   26450    130.42096   -259.72029     140902.1    -39458.39    2618.2992   -42076.689    126.96295    220.97739 
   26500    132.80575   -234.53509     140945.1   -39437.084    2666.1759    -42103.26     127.4053    225.01805 
   26550    134.56082    -127.2682    140951.48   -39430.533    2701.4102   -42131.944    127.38033    227.99174 
   26600    131.33866   -93.795371    140981.19   -39411.721    2636.7229   -42048.444    127.55596     222.5323 
   26650    132.77926   -89.832302    140999.88   -39370.389     2665.644   -42036.033    127.79946    224.97316 
   26700     135.4432   -35.485756    140967.77   -39356.362    2719.1246   -42075.487     128.4209    229.48678 
   26750    130.62593   -81.911772    140909.64   -39424.639    2622.4142   -42047.053    128.45477    221.32468 
   26800     132.6251   -202.15088    140884.94   -39442.775     2662.549   -42105.325    128.85774    224.71196 
   26850    132.18232   -339.03522    140887.52   -39434.036    2653.6599   -42087.696    129.12001    223.96174 
   26900    133.12523   -305.35661    140819.25   -39424.252    2672.5897   -42096.842    129.66647    225.55936 
   26950    135.61349   -198.29374    140820.38   -39418.839    2722.5433   -42141.383    130.16999    229.77531 
   27000    130.81589   -215.92486    140865.62   -39422.619    2626.2279   -42048.846    130.43236    221.64655 
   27050    131.82276   -272.60293    140910.62    -39453.14    2646.4415   -42099.582    130.88504    223.35253 
   27100    134.47741   -194.06086    140876.58   -39393.328    2699.7356   -42093.064    131.30956     227.8504 
   27150    131.35105   -400.29253    140846.97   -39435.213    2636.9715   -42072.185    131.32628    222.55328 
   27200    135.09586   -371.45787    140709.54   -39390.996    2712.1516   -42103.147    131.09788    228.89828 
   27250    133.43213   -295.41455    140672.18   -39402.724    2678.7509   -42081.475    131.29696    226.07935 
   27300    132.04686   -259.93129     140612.1   -39425.054    2650.9405   -42075.995    131.40913    223.73223 
   27350    134.18036   -357.33553    140614.92   -39435.968    2693.7721    -42129.74    131.76794     227.3471 
   27400    135.68749   -81.687392    140654.03    -39398.68    2724.0288   -42122.709    131.99574    229.90069 
   27450    134.86543   -165.03562    140684.68   -39364.455    2707.5254    -42071.98    132.25717    228.50784 
   27500     136.5099   -33.926339    140712.82   -39358.028    2740.5394   -42098.567    132.46411    231.29414 
   27550    134.62285    -67.36447    140782.25   -39399.135    2702.6555    -42101.79    132.86061    228.09683 
   27600     132.4995   -201.26903    140825.64   -39441.341    2660.0275   -42101.368    132.90962    224.49915 
   27650    134.58417   -317.63665     140785.6   -39367.183    2701.8788   -42069.061     132.9556    228.03128 
   27700    133.72472   -33.150944    140758.32   -39380.406    2684.6247   -42065.031    133.22914    226.57509 
   27750    134.20301   -195.39416    140769.81   -39365.339    2694.2268   -42059.565    133.43583    227.38548 
   27800    134.17045    -306.2589    140788.36   -39445.114    2693.5731   -42138.687    133.66271    227.33031 
   27850    131.91786   -311.29801    140773.32   -39472.134    2648.3507   -42120.485    133.95936    223.51366 
   27900    133.68795   -278.24732    140643.41   -39493.704    2683.8867    -42177.59    134.11956     226.5128 
   27950    134.36013   -209.55758    140611.72   -39511.411     2697.381   -42208.792    134.20122    227.65168 
   28000    132.66169   -265.72578    140541.29   -39452.728    2663.2836   -42116.012    134.44527    224.77395 
   28050    132.54839   -157.31385    140518.48    -39433.36     2661.009   -42094.369    134.79468    224.58198 
   28100    132.06714    -47.66749    140600.07    -39472.18    2651.3476   -42123.528    134.66111    223.76659 
   28150    132.07157   -182.99495    140535.33    -39465.06    2651.4366   -42116.497    134.86861     223.7741 
   28200    130.05972    180.25417    140562.85   -39524.826    2611.0473   -42135.873    134.90275    220.36534 
   28250    133.06969   -212.63546    140608.23   -39472.037    2671.4745   -42143.511    135.19597    225.46524 
   28300    134.85508   -53.438996    140585.15   -39471.902    2707.3177    -42179.22    135.67675    228.49031 
   28350    131.64635   -51.116938    140598.23   -39483.477       2642.9   -42126.377    135.91392    223.05363 
   28400     133.8192    71.997869    140514.26   -39469.526    2686.5216   -42156.048     135.9201    226.73517 
   28450    135.45756   -72.561674    140593.37   -39434.349    2719.4129   -42153.762    135.91413    229.51111 
   28500    131.51623   -93.254344    140593.63   -39462.337    2640.2877   -42102.625    136.29983    222.83316 
   28550    132.76272   -62.653348    140602.02    -39484.33     2665.312   -42149.642    136.16012    224.94514 
   28600    133.33974   -209.47247    140576.55   -39493.576    2676.8961   -42170.472    136.16071    225.92281 
   28650    136.09703   -179.87345    140593.08       -39461    2732.2507   -42193.251    136.26835    230.59459 
   28700    134.58695   -242.30415    140612.33   -39512.021    2701.9347   -42213.955    136.27974      228.036 
   28750     132.0338   -177.00073    140591.91   -39504.688    2650.6783   -42155.366    136.63099     223.7101 
   28800    134.59846   -7.1389925    140618.08   -39477.352    2702.1658   -42179.518     136.5678     228.0555 
   28850    135.42897   -370.87054    140657.51   -39509.124    2718.8388   -42227.963    137.02061    229.46266 
   28900    133.80318   -103.00094     140609.9   -39529.788       2686.2   -42215.988    137.37333    226.70803 
   28950    131.81969   -218.91018    140641.61   -39558.377    2646.3799   -42204.757     137.7773    223.34732 
   29000    132.02205    -84.32797    140661.69   -39567.817    2650.4425    -42218.26     138.1231     223.6902 
   29050    131.30087   -14.864795    140669.25    -39564.81    2635.9642   -42200.774    138.45822    222.46826 
   29100    130.63731   -148.23003    140715.51   -39541.474    2622.6427   -42164.117    138.58608    221.34397 
   29150    131.03829   -246.14082    140745.21   -39521.176    2630.6926   -42151.869    138.98817    222.02336 
   29200    132.41197   -20.336458    140809.87   -39505.057    2658.2704   -42163.328    139.00867    224.35085 
   29250     131.6499   -109.47628    140835.29   -39501.776    2642.9712   -42144.747    139.23141    223.05964 
   29300    130.54199   -60.364412    140882.46   -39556.975    2620.7291   -42177.704    139.51153    221.18247 
   29350     131.4709   -223.96316    140979.08   -39584.179    2639.3776   -42223.556    139.83238    222.75635 
   29400    129.46931   -199.53965    140943.49   -39601.058    2599.1943   -42200.253    139.94089    219.36499 
   29450    132.78393   -157.58347    140895.79   -39586.998    2665.7378   -42252.736    139.99484    224.98107 
   29500    132.51746   -305.80207    140779.57   -39578.063    2660.3882   -42238.451     139.9968    224.52959 
   29550    132.80139   -91.354282    140719.09   -39488.479    2666.0882   -42154.567    139.94721    225.01065 
   29600    132.62141   -247.20003     140729.8    -39473.78     2662.475   -42136.255    140.15106    224.70571 
   29650     133.5973   -267.67798     140716.5   -39415.689    2682.0668   -42097.756    140.42463     226.3592 
   29700    134.63652   -160.69753    140699.29   -39387.939      2702.93   -42090.869    140.38055       228.12 
   29750    136.92944   -77.747664    140757.73   -39377.868     2748.962    -42126.83    140.56297    232.00498 
   29800    136.02429   -233.80819    140805.23   -39332.621    2730.7904   -42063.412    140.84244    230.47135 
   29850    136.49625   -177.13767    140776.37   -39375.565    2740.2653   -42115.831    140.74907      231.271 
   29900    134.20601   -16.813551     140801.1    -39399.36    2694.2871   -42093.647    140.87569    227.39056 
   29950    133.88947   -41.817815    140857.81   -39389.791    2687.9323   -42077.723    141.19302    226.85424 
   30000    136.18413   -353.63945    140888.33   -39403.554    2733.9993   -42137.553    141.41066    230.74217 
   30050     134.9225   -300.00065    140847.29   -39382.246    2708.6711   -42090.917    141.56614    228.60453 
   30100    133.91223   -243.46448    140801.15   -39379.971    2688.3893    -42068.36    142.02821     226.8928 
   30150    132.46694   -409.11154    140654.86   -39410.384    2659.3738   -42069.758    142.33123    224.44398 
   30200    132.39715   -380.41639    140605.31   -39456.744    2657.9729   -42114.717    142.53843    224.32574 
   30250    132.31139   -230.70871    140674.07   -39446.894    2656.2511   -42103.145    142.43949    224.18043 
   30300    134.54713   -229.12725    140644.96   -39424.183    2701.1354   -42125.318    142.92326    227.96854 
   30350    134.02584    -273.4085    140573.99   -39412.123      2690.67   -42102.793    143.34596    227.08529 
   30400    132.24371   -336.27185    140604.48    -39449.74    2654.8924   -42104.633    143.48136    224.06575 
   30450    132.67676   -217.92167    140595.83    -39475.44    2663.5862   -42139.026    143.87801    224.79949 
   30500    134.91768   -243.53595    140658.47   -39438.709    2708.5744   -42147.283     143.8895    228.59638 
   30550    134.69134   -228.83757    140641.72   -39404.565    2704.0304   -42108.596    143.85316    228.21287 
   30600      135.868   -144.45231    140576.78   -39384.877    2727.6529    -42112.53    143.81994    230.20654 
   30650    133.80755   -155.10419    140591.02   -39402.812    2686.2878     -42089.1    144.12265    226.71544 
   30700    131.49088   -29.900598    140562.01   -39424.026    2639.7789   -42063.805    144.17615    222.79021 
   30750    131.97928    -163.5722    140627.19   -39408.526    2649.5839    -42058.11    144.52615    223.61773 
   30800    134.01241   -185.54542    140598.78   -39401.836    2690.4004   -42092.236    144.77365    227.06253 
   30850    137.53139   -309.27508    140538.09   -39321.255    2761.0465   -42082.302    144.90884    233.02488 
   30900    135.37182    12.573066    140534.92   -39314.282    2717.6915   -42031.974    145.31027    229.36583 
   30950    134.44226   -176.60969    140573.83   -39358.558    2699.0301   -42057.588    145.61238    227.79086 
   31000    133.03513   -140.20842    140566.68   -39390.015    2670.7808   -42060.796    145.95907     225.4067 
   31050    133.97983   -116.41865    140545.04   -39449.674    2689.7463    -42139.42    146.19359    227.00733 
   31100    132.62535    1.8539149    140543.67   -39425.947    2662.5542   -42088.501    146.68019    224.71239 
   31150    133.61263   -97.141811    140552.48   -39430.291    2682.3745   -42112.666    147.06521    226.38518 
   31200    130.35888   -154.92356    140573.12   -39493.966     2617.053   -42111.019    147.34196    220.87221 
   31250    131.87048   -153.26692       140526     -39477.8    2647.3995   -42125.199    147.40851    223.43338 
   31300    130.45314   -293.08781    140420.21   -39496.309    2618.9453   -42115.254    147.62359    221.03192 
   31350    132.67719   -65.734519    140357.24   -39457.824    2663.5949   -42121.419    147.82827    224.80022 
   31400    132.55286   -147.18636    140443.11   -39451.264    2661.0988   -42112.363    147.92761    224.58956 
   31450    133.53288   -153.33029    140465.75   -39448.992    2680.7735   -42129.765    148.26568    226.25006 
   31500    132.80924   -66.473828    140401.54   -39474.136    2666.2458   -42140.382    148.56139    225.02395 
   31550    132.10232   -138.42411    140386.62   -39474.856    2652.0539    -42126.91    149.01862     223.8262 
   31600     133.0987   -321.51044    140405.73   -39475.226     2672.057   -42147.283    149.51408     225.5144 
   31650    132.68269   -72.474963    140387.78   -39442.335    2663.7052    -42106.04    149.88007    224.80953 
   31700    134.88015    54.356704     140497.9   -39369.634    2707.8209   -42077.455    150.20889    228.53278 
   31750    132.54096   -416.78037    140507.05   -39384.549      2660.86   -42045.409    150.62767     224.5694 
   31800    133.78162   -169.30851    140435.65   -39371.762    2685.7672   -42057.529    151.12033    226.67151 
   31850    135.40931   -196.62035    140350.33   -39308.381    2718.4442   -42026.826    151.41688    229.42936 
   31900    133.93615   -358.03571    140345.69   -39351.761    2688.8695   -42040.631    151.67231    226.93333 
   31950    135.75092   -48.024988    140411.02     -39315.9    2725.3022   -42041.202    151.86479    230.00816 
   32000    134.00184   -180.20251    140413.82    -39355.45    2690.1883   -42045.638    152.19733    227.04463 
   32050     131.1255   -362.66306     140383.1    -39349.99    2632.4436   -41982.434    152.53878    222.17113 
   32100    134.86424   -243.63808     140331.4   -39407.023    2707.5015   -42114.525     152.9677    228.50582 
   32150    134.15809   -342.35053    140300.96   -39416.487     2693.325   -42109.812    153.06284    227.30936 
   32200     134.2501   -127.62565    140331.27   -39399.682    2695.1722   -42094.854    153.40547    227.46526 
   32250    136.20866   -101.78513    140460.79    -39374.54    2734.4918   -42109.032    154.00031    230.78373 
   32300    131.31478   -237.84477    140510.24   -39412.304    2636.2434   -42048.547    154.14209    222.49183 
   32350    132.37492   -191.16734    140495.91   -39427.777    2657.5265   -42085.304    154.26728    224.28807 
   32400    129.93799   -177.34054     140463.1   -39476.514    2608.6033   -42085.117    154.64415    220.15908 
   32450    128.72048   -178.93472    140520.76    -39518.39    2584.1609   -42102.551    155.15023    218.09621 
   32500    130.02429   -274.42211    140478.69   -39537.961    2610.3359   -42148.297    155.45837    220.30531 
   32550     131.0879   -222.46775    140475.15   -39532.824    2631.6887   -42164.512     155.7408    222.10742 
   32600    131.83781   -182.88462     140454.2   -39501.654    2646.7436   -42148.398    155.98267    223.37802 
   32650    132.16363   -189.51784    140538.34   -39518.195    2653.2847    -42171.48    156.15219    223.93007 
   32700    130.75718   -153.17175    140609.51   -39495.309    2625.0493   -42120.358    156.26397    221.54708 
   32750    133.52586   -130.82739    140754.32   -39510.065    2680.6325   -42190.697    156.44809    226.23815 
   32800    132.26198   -277.55288    140757.62   -39516.629    2655.2593   -42171.888    156.52932    224.09672 
   32850    132.39928    -112.0574    140759.22   -39490.162    2658.0156   -42148.177    156.40924    224.32935 
   32900    132.46035   -403.93449    140741.38   -39527.158    2659.2417   -42186.399     156.0979    224.43282 
   32950    135.03473    -188.5148    140640.67   -39475.731    2710.9242   -42186.656    156.09222    228.79469 
   33000     130.7186    -181.6456    140589.36   -39450.075    2624.2746   -42074.349    156.50374     221.4817 
   33050    132.95202   -195.64158    140564.26   -39448.473    2669.1122   -42117.585     156.4869    225.26587 
   33100    132.85098   -188.83876    140588.64   -39440.842    2667.0838   -42107.926    156.88515    225.09467 
   33150    133.22115   -77.423062    140682.51   -39429.611    2674.5152   -42104.126    157.27295    225.72187 
   33200    134.24419    -307.7153    140706.08   -39419.299    2695.0536   -42114.353    157.74232    227.45525 
   33250    134.77794   -177.86998    140685.61   -39387.194     2705.769   -42092.963    157.91186     228.3596 
   33300    134.30991    4.4742064    140719.44   -39386.167    2696.3729    -42082.54    158.19196     227.5666 
   33350    131.55527   -187.24939    140714.42   -39418.884    2641.0714   -42059.955    158.23582     222.8993 
   33400    132.38152   -139.18346    140741.44   -39411.297     2657.659   -42068.956    158.16936    224.29925 
   33450    133.57693   -226.44295    140742.04   -39391.643    2681.6579   -42073.301    158.33441    226.32469 
   33500    129.72718   -171.36902    140717.08   -39429.353    2604.3712   -42033.725    158.67488     219.8019 
   33550    135.37192   -283.90334    140730.34   -39381.988    2717.6937   -42099.681    158.41169    229.36602 
   33600    134.12645   -102.22204    140811.75   -39371.644    2692.6898   -42064.334    158.44586    227.25575 
   33650    132.90263   -61.373462    140896.15   -39416.788    2668.1207   -42084.908    158.58604    225.18219 
   33700    134.40363   -246.19555     140880.1   -39380.764    2698.2545   -42079.019    158.53273     227.7254 
   33750    134.66334   -312.63252    140877.89   -39367.046    2703.4683   -42070.514    158.51217    228.16543 
   33800    131.72057   -352.65702    140882.73   -39351.898      2644.39   -41996.288    158.66014    223.17938 
   33850    132.08204    -242.0407    140800.07    -39403.05    2651.6469   -42054.697    158.47927    223.79184 
   33900    132.87214   -207.68223    140872.22   -39430.194    2667.5086   -42097.703    158.57152    225.13053 
   33950    131.99352   -61.501021    140983.87   -39450.151    2649.8697   -42100.021    158.69933    223.64185 
[...]
   92000       134.16   -335.85354    141001.68   -39417.137    2693.3634     -42110.5    401.77114    227.31261 
   92050     131.4643   -342.48809    140956.24   -39425.168    2639.2452   -42064.413     401.8349    222.74518 
   92100    132.42503   -234.49821    140884.16   -39435.101    2658.5325   -42093.633    401.66597    224.37297 
   92150    134.19864   -27.309217    140895.45   -39405.114    2694.1391   -42099.253     402.0619    227.37807 
   92200    133.39905    54.729405    140952.54    -39422.68    2678.0867   -42100.767    401.90869    226.02329 
   92250    131.30744    -60.37608    140991.99   -39446.236    2636.0962   -42082.332    402.39528    222.47941 
   92300    132.47917   -240.93076    140967.17   -39456.981    2659.6195     -42116.6    402.84947    224.46471 
   92350    133.95874   -412.18242    140846.59   -39437.056    2689.3229   -42126.379    402.78411     226.9716 
   92400    134.18525   -257.73894    140776.72   -39464.971    2693.8703   -42158.842    402.87913    227.35539 
   92450    135.92337   -282.92565    140748.84   -39435.687    2728.7645   -42164.451     402.7633    230.30036 
   92500    131.51839   -121.34738    140748.18   -39451.186    2640.3311   -42091.517    402.85146    222.83683 
   92550    132.60955   -392.87602    140833.11   -39400.573    2662.2369    -42062.81    403.47884    224.68561 
   92600     132.9151   -292.12223    140745.67   -39404.034    2668.3711   -42072.405    403.79087    225.20332 
   92650    129.15229   -329.68172    140690.94   -39479.687    2592.8298   -42072.517    403.74119    218.82784 
   92700    130.61069   -381.15985    140627.68   -39508.778    2622.1083   -42130.886    404.40526    221.29886 
   92750    130.32481   -104.34994     140644.3   -39502.598     2616.369   -42118.967    404.32172    220.81448 
   92800    129.66435   -75.600344    140636.69   -39525.723    2603.1098   -42128.833     404.5275    219.69545 
   92850    131.59152   -160.29722    140648.69   -39501.241    2641.7991    -42143.04     404.6241    222.96072 
   92900    128.84778   -74.344613    140710.52    -39538.43    2586.7165   -42125.147    404.99566    218.31189 
   92950    131.06132   -132.88738    140797.03    -39525.67     2631.155   -42156.825    405.09884    222.06239 
   93000    132.07661   -15.850954    140912.77   -39471.639    2651.5378   -42123.177    405.24137    223.78264 
   93050    134.19961   -322.25466    140962.72   -39436.326    2694.1585   -42130.484     405.7528    227.37971 
   93100     133.2835    -3.432659    140965.19   -39391.562     2675.767   -42067.329    405.63176    225.82751 
   93150    135.56821    -184.1182    141097.92    -39386.22    2721.6343   -42107.854    405.82226    229.69859 
   93200    135.25134   -149.49722    141157.41   -39355.232    2715.2728   -42070.505    406.21658     229.1617 
   93250    134.51409   -132.46406    141223.23   -39313.248     2700.472    -42013.72    406.68893    227.91255 
   93300    135.70691   -342.81796    141165.34   -39324.417    2724.4188   -42048.836    406.95198     229.9336 
   93350    135.37084   -437.98651    141030.48    -39335.78     2717.672   -42053.452    407.12105    229.36418 
   93400    134.68766   -437.00621    140974.05   -39350.432    2703.9565   -42054.388    407.16324    228.20663 
   93450    132.04451   -268.44193    140878.13   -39415.022    2650.8933   -42065.915    407.19934    223.72825 
   93500    131.43648   -372.90422    140857.13   -39421.763    2638.6866   -42060.449    407.58409    222.69803 
   93550    133.95754    -167.5702    140865.21   -39379.641    2689.2988    -42068.94    407.60992    226.96956 
   93600    135.21148    -327.6485     140845.2   -39343.877    2714.4727    -42058.35    407.74659    229.09417 
   93650    136.41055   -223.64379    140824.96   -39290.216    2738.5448   -42028.761    408.12798    231.12579 
   93700    136.15599   -275.99016    140835.18   -39303.888    2733.4344   -42037.323    408.36218    230.69449 
   93750    136.57259   -378.04159    140853.61   -39252.802     2741.798     -41994.6    407.98552    231.40035 
   93800    136.58404   -128.82418    140911.98   -39303.224    2742.0278   -42045.252    408.17506    231.41975 
   93850    132.84163   -474.82951    140884.24   -39309.104    2666.8961       -41976    408.13741    225.07883 
   93900    131.59809   -236.57828    140840.31   -39390.583    2641.9311   -42032.514    408.04163    222.97186 
   93950    131.03583   -128.34226    140813.15   -39431.303    2630.6434   -42061.946    407.96745     222.0192 
   94000    133.99786   -250.20472    140801.88   -39415.477    2690.1083   -42105.585    408.27736    227.03788 
   94050     133.8528   -37.607222    140816.24   -39446.417    2687.1962   -42133.613    408.99485    226.79211 
   94100    132.78522   -345.30017    140842.41   -39467.782    2665.7636   -42133.546    409.29259    224.98326 
   94150    135.78411   -302.95302    140779.06   -39444.699    2725.9687   -42170.668    409.35738     230.0644 
   94200    132.75907    -84.83805    140745.65   -39485.704    2665.2387   -42150.942    409.82893    224.93896 
   94250    132.40751   -123.70979    140756.77   -39450.779    2658.1807    -42108.96    409.56996    224.34328 
   94300    135.30345    -187.7564    140744.32   -39421.844    2716.3189   -42138.163    410.31832    229.24999 
   94350    133.93915   -116.32286    140714.57   -39419.479    2688.9297   -42108.409    410.16688    226.93841 
   94400    130.95512   -40.603174    140794.46   -39434.443     2629.023   -42063.466    409.99506    221.88245 
   94450    130.06766   -392.95041    140786.23   -39464.418    2611.2066   -42075.624    410.42792    220.37879 
   94500    131.95627     -343.489    140712.55   -39431.141    2649.1218   -42080.263    410.18063    223.57873 
   94550    130.78023   -67.439693    140784.58   -39445.891     2625.512   -42071.403    409.94694    221.58613 
   94600    133.08803   -149.42211    140797.24   -39497.068    2671.8428   -42168.911    410.02752    225.49632 
   94650    132.15283   -397.28627     140860.7   -39484.071     2653.068   -42137.139     410.2764    223.91178 
   94700    131.15589   -205.24867    140835.99   -39494.096    2633.0536    -42127.15    410.52005    222.22262 
   94750    129.87151   -231.51427    140865.01   -39549.037    2607.2687   -42156.306    411.08931    220.04644 
   94800    131.60787   -178.82486    140809.96   -39546.292    2642.1275   -42188.419     411.7356    222.98843 
   94850    129.01073   -234.45286    140929.16   -39538.308    2589.9879   -42128.296    411.82117    218.58799 
   94900    129.94882   -224.88908    141015.98   -39527.101    2608.8208   -42135.921    411.57299    220.17743 
   94950     131.1453   -190.37145    141052.74   -39540.512    2632.8411   -42173.353    411.56654    222.20469 
   95000    130.99933   -227.44345    141068.51   -39477.447    2629.9106   -42107.358    411.61339    221.95736 
   95050    130.20847   -218.69437    141032.36   -39468.035    2614.0335   -42082.069    412.03851    220.61738 
   95100     132.0643   -104.00256    141005.95    -39456.59    2651.2907   -42107.881    412.51593    223.76178 
   95150      131.691   -285.68678    141022.19   -39505.439    2643.7963   -42149.236    412.72593    223.12928 
   95200    132.18358   -232.05661    140986.15   -39505.251    2653.6853   -42158.936    412.78718    223.96388 
   95250    132.90201   -209.14037    140908.59    -39467.07    2668.1083   -42135.178    413.07932    225.18114 
   95300    131.18608   -125.52331    140947.22   -39554.531    2633.6596   -42188.191    413.14451    222.27377 
   95350     131.2649   -83.180474     140894.2   -39514.919     2635.242   -42150.161    413.30308    222.40732 
   95400    131.57396   -126.73392    140835.82   -39546.042    2641.4466   -42187.489    413.39928    222.93097 
   95450    130.87449   -192.50862    140915.47     -39566.9    2627.4042   -42194.304    413.54256    221.74583 
   95500    132.38552   -86.582127    141056.19   -39548.256    2657.7394   -42205.995     413.9577    224.30604 
   95550    132.76649   -60.056739    141190.84   -39492.494    2665.3876   -42157.881    414.18608    224.95153 
   95600    134.35577   -234.87981    141264.18   -39425.731    2697.2935   -42123.024    414.50676     227.6443 
   95650    130.91809    -148.1986     141252.6    -39461.94    2628.2796    -42090.22    414.79245    221.81971 
   95700    133.00666   -216.30868    141283.63   -39473.756    2670.2093   -42143.965     414.8651    225.35846 
   95750    132.54207   -339.98174    141303.19   -39520.778    2660.8822    -42181.66    415.11282    224.57128 
   95800    130.45383   -169.89225    141215.83   -39554.863    2618.9592   -42173.822    415.45232    221.03309 
   95850     128.6953   -71.179978    141164.33   -39541.453    2583.6555   -42125.108     415.8917    218.05355 
   95900    132.08498   -304.78217    141163.14   -39514.361    2651.7057   -42166.066    416.23111    223.79681 
   95950    130.95183   -360.12862    141084.24   -39512.507    2628.9569   -42141.464    416.96351    221.87687 
   96000    133.28599   -134.22242    141109.84   -39478.132    2675.8169   -42153.949    416.65432    225.83173 
   96050    131.20374   -382.19702    141003.15   -39512.377    2634.0142   -42146.391     417.2307     222.3037 
   96100     132.5073   -241.78817    141026.35   -39546.151    2660.1841   -42206.335    417.65053    224.51236 
   96150    131.16992   -149.62955    140943.77   -39603.008    2633.3353   -42236.344    417.76078     222.2464 
   96200    131.29767   -166.92668    140990.49   -39541.786    2635.8999   -42177.686    418.19953    222.46284 
   96250    131.37472   -304.20483    141017.16   -39539.113    2637.4468    -42176.56    419.05238     222.5934 
   96300    129.84052   -470.42824    140984.89   -39519.426    2606.6466   -42126.072    419.46623    219.99394 
   96350    132.01426   -96.986108    140932.17   -39501.559     2650.286   -42151.845    420.35898    223.67699 
   96400    131.59579   -237.42566    140877.65   -39472.699     2641.885   -42114.584    420.61193    222.96797 
   96450    130.58606   -320.28933    140853.99   -39441.928    2621.6138   -42063.542    420.81602    221.25714 
   96500    130.97738   -228.95404    140796.76   -39417.118    2629.4698   -42046.587    421.12173    221.92016 
   96550    132.16544   -255.07696    140755.48    -39417.81    2653.3211   -42071.131     421.4797    223.93314 
   96600    131.84782   -261.77033    140755.69   -39428.779    2646.9446   -42075.723    421.46502    223.39498 
   96650    132.18898   -291.79137    140710.13   -39494.794    2653.7936   -42148.588    421.75095    223.97302 
   96700    133.04498   -144.15636    140662.21   -39465.423    2670.9785   -42136.402    422.68448    225.42338 
   96750    131.48367   -240.85244    140637.34   -39480.786    2639.6341    -42120.42      422.694    222.77799 
   96800      134.462   -189.36813    140701.81   -39436.433    2699.4262    -42135.86    423.31634    227.82429 
   96850    134.58493    38.474728     140746.7   -39407.703    2701.8942   -42109.597    423.50672    228.03258 
   96900    132.54247   -58.970651    140813.24   -39513.901    2660.8903   -42174.791    423.87536    224.57197 
   96950    130.48715   -54.692984       140867    -39550.14    2619.6281   -42169.769    423.84488    221.08954 
   97000    131.62428   -274.52126    140912.26   -39565.521    2642.4569   -42207.977    423.90601    223.01623 
   97050     132.5296   -162.78209    140884.51   -39550.187     2660.632   -42210.819    423.72538    224.55016 
   97100    131.72622   -153.20343    140891.64   -39544.591    2644.5034   -42189.094    423.20636    223.18895 
   97150    130.81948     19.23238    140876.95   -39525.909    2626.2999   -42152.209    423.38644    221.65263 
   97200    130.91913   -197.08033    140871.19   -39556.071    2628.3005   -42184.371    423.06214    221.82147 
   97250     130.6693    -223.1634       140891   -39576.646    2623.2849   -42199.931    422.73744    221.39817 
   97300    129.46571   -236.98619    140810.71   -39596.494     2599.122   -42195.616    422.70959    219.35888 
   97350    127.51132   -271.80125    140774.58   -39611.192    2559.8861   -42171.079    422.67746    216.04748 
   97400     131.3174   -251.06046    140737.89   -39566.751    2636.2961   -42203.047    422.75549    222.49628 
   97450    132.60933   -138.44452     140782.5   -39542.917    2662.2326   -42205.149    422.99505    224.68525 
   97500    132.55225   -199.86744    140731.01   -39514.419    2661.0867   -42175.506    422.78378    224.58853 
   97550    133.95229   -60.605969    140694.53   -39478.499    2689.1934   -42167.692    422.85135    226.96067 
   97600     133.7451   -166.39664    140638.34   -39443.149     2685.034   -42128.183    423.38067    226.60963 
   97650    132.07222   -210.78374    140638.23   -39450.219    2651.4496   -42101.669    423.70671     223.7752 
   97700    132.43182      -160.02    140627.39   -39477.549    2658.6689   -42136.218    424.28504    224.38448 
   97750    130.85283   -169.00959    140634.99   -39535.526    2626.9695   -42162.496    424.43984    221.70914 
   97800    134.19935   -203.88517    140694.46    -39478.34    2694.1533   -42172.493    425.06171    227.37927 
   97850    132.48726     -196.743    140684.95   -39473.546    2659.7819   -42133.328    425.31879    224.47842 
   97900    133.80663    67.775106    140678.81   -39456.258    2686.2691   -42142.527    425.54636    226.71387 
   97950     134.5866   -266.79408    140766.82   -39457.574    2701.9276   -42159.502    426.01924     228.0354 
   98000    133.69545   -129.51124    140791.15   -39480.495    2684.0373   -42164.533     425.9008     226.5255 
   98050    134.57016   -163.80108    140861.75   -39442.135    2701.5977   -42143.733    426.20262    228.00756 
   98100    133.16242    -381.6231    140771.92   -39480.025    2673.3362   -42153.361    426.47706    225.62236 
   98150    132.51806     -187.303    140814.74   -39460.403    2660.4003   -42120.804    426.58632    224.53061 
   98200    132.92918   -161.71737    140836.53   -39414.578    2668.6537   -42083.232    426.69561    225.22717 
   98250    132.54496   -96.275396    140924.03   -39467.753    2660.9401   -42128.693    427.00027    224.57617 
   98300    133.54815   -21.889972     141037.6   -39446.613      2681.08   -42127.693     427.1229    226.27592 
   98350    131.11824   -191.07152    141028.12   -39420.153    2632.2977   -42052.451    427.67995    222.15883 
   98400    133.44558   -364.90975     140966.9   -39359.035    2679.0209   -42038.055    428.54683    226.10213 
   98450    132.12766    -406.5619    140903.79   -39362.519    2652.5626   -42015.081    428.68714    223.86913 
   98500    134.57525   -97.741794    140988.97   -39318.835    2701.6998   -42020.534     429.0026    228.01617 
   98550    132.04288   -221.25496    141064.09   -39385.137    2650.8605   -42035.998    429.34448    223.72548 
   98600    131.96013    -147.4856    141045.44   -39416.475    2649.1993   -42065.675    429.09053    223.58527 
   98650     132.1592   -267.29564    141040.11   -39413.703    2653.1959   -42066.899    428.74318    223.92258 
   98700    131.40975   -283.67702    141054.85   -39452.733    2638.1499   -42090.883    428.63719    222.65274 
   98750    131.54598   -445.15498    140969.64   -39417.552    2640.8849   -42058.437    429.27485    222.88356 
   98800    131.24897   -219.25492    140872.13   -39436.207    2634.9222   -42071.129    429.40948    222.38032 
   98850    132.88895   -80.078945    140933.53   -39423.409    2667.8462   -42091.256    429.56348    225.15902 
   98900    132.18105   -246.23133     140913.1   -39461.527    2653.6344   -42115.161    430.23391    223.95958 
   98950    129.59575   -152.36792    140925.61   -39471.678    2601.7326   -42073.411    430.69807    219.57921 
   99000     130.7266   -218.46564    140982.41   -39487.853    2624.4354   -42112.288    431.17443    221.49527 
   99050    129.83494   -330.03855    140943.22    -39517.16    2606.5346   -42123.695    431.18637    219.98449 
   99100    130.50281   -400.09538    140886.17   -39496.998    2619.9425    -42116.94    431.77237    221.11608 
   99150    130.65842   -402.03841    140870.29    -39457.13    2623.0666   -42080.197    432.04196    221.37975 
   99200    130.45384   -337.96006    140794.45   -39434.946    2618.9594   -42053.905    432.65853    221.03311 
   99250     132.7638   -445.83646    140684.31   -39354.306    2665.3335    -42019.64    432.57851    224.94696 
   99300    133.10444   -428.71433    140606.17   -39396.041    2672.1721   -42068.213    432.87486    225.52412 
   99350    131.65772   -272.28906    140602.44     -39387.1    2643.1282   -42030.228    433.27374    223.07289 
   99400    133.57573   -330.56253    140573.98   -39397.713    2681.6337   -42079.347    433.47299    226.32265 
   99450    132.30691   -231.58921    140554.97   -39418.218    2656.1612   -42074.379    433.67649    224.17284 
   99500    130.79329   -372.91157    140530.83   -39468.486    2625.7742   -42094.261    433.90073    221.60826 
   99550      131.705   -282.21933    140421.65   -39442.559    2644.0774   -42086.636    433.77862      223.153 
   99600    132.18054   -492.63862    140378.74   -39486.508    2653.6243   -42140.132    434.13227    223.95873 
   99650    131.86148    -368.3751    140314.59   -39434.042    2647.2188    -42081.26    433.67689    223.41813 
   99700    131.09609   -96.587076    140387.26   -39450.679     2631.853   -42082.532    433.60396    222.12129 
   99750    133.27735   -102.48611    140523.79   -39419.521    2675.6435   -42095.164    433.15429     225.8171 
   99800    131.91735   -206.24975    140594.38   -39386.178    2648.3405   -42034.519    433.75683    223.51279 
   99850    132.83298   -335.81982    140600.17    -39385.02    2666.7225   -42051.742    434.03484    225.06418 
   99900     133.1878   -179.54533    140605.19   -39407.767    2673.8457   -42081.613    433.78846    225.66536 
   99950    134.17984   -390.30058    140567.29   -39410.953    2693.7616   -42104.715    433.82363    227.34621 
  100000    133.52674   -171.94596     140596.9   -39426.119    2680.6502   -42106.769    433.73973    226.23964 
Loop time of 194.794 on 64 procs for 100000 steps with 6736 atoms

Performance: 221.773 ns/day, 0.108 hours/ns, 513.363 timesteps/s
100.0% CPU use with 64 MPI tasks x no OpenMP threads

MPI task timing breakdown:
Section |  min time  |  avg time  |  max time  |%varavg| %total
---------------------------------------------------------------
Pair    | 36.896     | 92.578     | 156.1      | 572.1 | 47.53
Neigh   | 1.302      | 2.6242     | 4.8942     |  87.2 |  1.35
Comm    | 25.431     | 87.207     | 145.97     | 569.4 | 44.77
Output  | 0.12488    | 0.12639    | 0.13949    |   0.5 |  0.06
Modify  | 7.0275     | 11.516     | 20.385     | 143.8 |  5.91
Other   |            | 0.7425     |            |       |  0.38

Nlocal:    105.25 ave 172 max 71 min
Histogram: 32 0 2 11 3 0 0 0 5 11
Nghost:    1000.27 ave 1349 max 682 min
Histogram: 32 0 0 0 0 0 0 0 12 20
Neighs:    0 ave 0 max 0 min
Histogram: 64 0 0 0 0 0 0 0 0 0
FullNghs:  12665.2 ave 27590 max 4506 min
Histogram: 32 0 0 0 16 0 0 0 2 14

Total # of neighbors = 810572
Ave neighs/atom = 120.334
Neighbor list builds = 6144
Dangerous builds = 0

write_data		${DIR}/data.eq-${NAME}-${TEMP}
write_data		run_17/data.eq-${NAME}-${TEMP}
write_data		run_17/data.eq-het_freeze_17-${TEMP}
write_data		run_17/data.eq-het_freeze_17-225
undump          1

reset_timestep  0

unfix           2
unfix           3
unfix           4


################################################
#######         Run Simulation         #########
################################################

log				${DIR}/log.run_${NAME}
log				run_17/log.run_${NAME}
log				run_17/log.run_het_freeze_17
