LAMMPS data file via write_data, version 16 Mar 2018, timestep = 6000000

6768 atoms
2 atom types

0.0000000000000000e+00 4.9219999999999999e+01 xlo xhi
0.0000000000000000e+00 4.9019635930410494e+01 ylo yhi
-1.0513052257002506e+00 6.1113305225711805e+01 zlo zhi

Masses

1 18.015
2 12.01

Atoms # atomic

76 1 3.7150657946874848e+00 3.7867168797605220e+00 2.1078874088897277e+00 -1 0 1
3515 1 3.7425863055978446e+00 3.7056217990158107e+00 -6.1943480099541737e-01 1 -2 1
3182 1 1.1311473475422549e+00 3.2951323390664498e+00 2.8799422634021705e+00 0 1 1
4915 1 1.1496978326539333e+01 2.2039211092743965e+01 -6.2002975922201609e-01 -3 1 1
1495 1 5.3324186576298169e+00 1.5424007430271338e+00 2.7004423252894516e+00 0 -1 1
2095 1 7.8782975167748521e+00 2.2228651180127370e+00 1.9723211858025347e+00 -2 1 0
5304 1 7.0445614599424902e+00 6.7590471679673154e+00 -4.3291649684253630e-01 -1 0 0
6696 1 2.3915290467941754e+00 7.6405615475958211e+00 1.9940514946566297e+00 2 2 1
1631 1 2.5568439128497706e+00 7.8745971146270595e+00 -5.7562158228504523e-01 0 4 1
5626 1 6.9594130693349134e+00 6.9735609172543960e+00 2.2617276274143805e+00 -1 1 0
3799 1 1.2247652009030805e+01 1.7393335133556704e+01 1.0121388506246923e+01 -2 -1 0
5637 1 4.4159561083690022e+00 6.1076633810003012e+00 3.0654108154642197e+00 1 -1 0
485 1 1.1208854224557639e+01 5.5550242179935196e+00 -5.8205918238298104e-01 1 1 0
6434 1 1.0967740814796667e+01 5.8725475937447635e+00 2.1043134932794101e+00 1 2 1
6585 1 8.5971529304362271e+00 4.9413489690170680e+00 3.0542715065022117e+00 -1 1 1
5182 1 7.3946550699278895e+00 5.8167396365159420e-02 6.4963008999777525e+00 -1 -3 0
62 1 1.3929456459649905e+00 1.1618931276035502e+01 1.9489958244047281e+00 0 1 0
1729 1 3.3868145011594142e+00 9.9810719610566778e+00 3.1389092424742566e+00 -1 -2 0
3529 1 9.0522185319483075e+00 1.4249636710694709e+01 -3.6198245274075336e-01 -1 1 0
500 1 6.1183061363725342e+00 1.1067512698305952e+01 2.3429431064629687e+00 -3 1 0
1855 1 8.0298465599865683e+00 9.4536888721343644e+00 3.3426611540416005e+00 0 -1 0
3469 1 3.7895703119531643e-01 5.8862048279976296e-03 9.9244475873240585e+00 2 1 0
5250 1 1.0272231819211722e+01 1.0280156228092590e+01 2.0849769645364935e+00 0 0 0
3605 1 1.0308722858723677e+01 9.9893472968385915e+00 -6.6789729327743208e-01 0 -1 0
254 1 4.7286544083932185e+00 1.5427260658932035e+01 -4.8310466017851594e-01 2 1 0
1508 1 4.5304533448270394e+00 1.5057012754335259e+01 1.9543664127871003e+00 2 1 1
3065 1 6.7190515764650138e+00 1.3601644489827832e+01 2.9692561479335193e+00 1 1 1
5540 1 1.1235845147336628e+01 1.2756748195944501e+01 2.8465673711415058e+00 -1 0 0
4773 1 9.2586271707966059e+00 1.4487058805032868e+01 2.2896855340467757e+00 0 1 1
5365 1 4.9264491445746905e-01 1.6604491413839511e+01 -7.0544530997769805e-01 3 -1 0
2128 1 8.1440981906531835e+00 2.3303544948265498e+00 -5.4960798805475319e-01 -2 1 0
5481 1 3.9343833686768442e-01 7.6372580959870973e-01 2.1371661587347099e+00 2 -2 0
3249 1 3.8645755085317770e+00 1.9393656397420845e+01 2.0629014619915491e+00 2 1 0
305 1 1.1895697240935087e+01 8.6609342073654894e+00 5.7649652778376872e+00 1 -1 0
3566 1 8.0439304582866153e+00 1.8786505582504848e+01 -6.3135947628760680e-01 0 -3 0
2002 1 5.5137517218299283e+00 1.7228589674564539e+01 2.8707792007924842e+00 1 -1 0
1942 1 7.8626728970589106e+00 1.8881897180835100e+01 2.0347100725538376e+00 0 3 0
3820 1 1.0070743420058923e+01 1.7187373253703900e+01 2.8839865891335825e+00 1 -1 0
6642 1 3.7440850892757807e+00 2.0003127325125877e+01 -5.3505516511940276e-01 1 1 0
145 1 1.1905548498536271e+01 8.2028200175297705e+00 3.1062843820218680e+00 0 2 0
3543 1 7.2282704127323463e+00 2.3377801716658904e+01 -5.6986796173262189e-01 -2 1 1
4862 1 7.1232899311907225e+00 2.3305163639138840e+01 1.9408956039106902e+00 1 1 0
5068 1 4.7488230673515526e+00 2.2200133461724562e+01 3.1181795057734156e+00 -2 1 0
5484 1 5.7183623701502144e+00 1.1075416955502247e+01 -1.4009583123628155e-01 1 2 0
4983 1 1.1555151012566519e+01 2.2323088077823023e+01 2.3233551207281051e+00 0 2 1
5543 1 8.9057286409626570e+00 2.1270405351599379e+01 2.7983678741828553e+00 0 -1 0
6582 1 2.5633109278209294e+00 2.3812865808702448e+01 9.9894633777825241e+00 0 2 1
1903 1 1.1340453809590734e+00 2.8970789337663132e+00 5.5810974985678525e+00 0 -1 0
1662 1 3.0277535178914525e+00 9.3888872494651676e-01 6.5511601500288563e+00 -2 2 0
2246 1 5.2736324606461551e+00 1.8017487875061966e+00 5.5407408994955523e+00 -1 2 0
4841 1 1.0069690975268003e+01 7.6237753756239346e-01 3.0295186430017065e+00 -1 3 1
4878 1 9.8827614516254307e+00 6.7210201936496483e-01 5.9186776035243929e+00 0 1 1
1716 1 1.0579372657103342e+01 3.0772463796181841e+00 6.6760807810216853e+00 2 2 1
6462 1 6.3358676537723113e-01 4.3950591348494422e-01 -5.1182856711474489e-01 3 0 1
385 1 2.1532344638443535e+00 5.3115439745851631e+00 6.5287177595442820e+00 0 1 0
414 1 6.1852922634959739e+00 4.1176059488349317e+00 6.5519606719950625e+00 2 1 0
1521 1 4.8654330029707102e+00 6.1826184130993989e+00 5.7091895845765821e+00 2 2 1
3651 1 9.5441732468743048e+00 2.3869033032405294e+01 9.3647358905545843e+00 2 0 0
4965 1 8.5019897713511270e+00 5.0247642263652095e+00 5.8961156004952411e+00 1 4 1
236 1 9.4295525888067004e+00 7.3767452359538508e+00 6.7092385816337101e+00 0 1 0
6588 1 6.6028004096542114e-01 9.7804557957049649e+00 6.7651482693927152e+00 1 0 1
6454 1 3.3553608733416747e+00 1.0453747407049168e+01 5.9331354000613281e+00 0 3 1
3383 1 5.4532661981631856e+00 8.7529195675689095e+00 6.6097248631491192e+00 0 2 0
3603 1 8.1020910518601852e+00 9.3640941152628709e+00 5.9400962937143946e+00 0 1 0
6729 1 8.5998736645441500e+00 1.2087361864681917e+01 6.5709417738616063e+00 0 1 0
3859 1 1.1035792738962854e+01 1.2803677686500240e+01 5.5564937530655829e+00 2 1 0
395 1 2.0031802430224221e+00 1.4463575801664069e+01 2.6935130550263042e+00 1 2 0
1646 1 1.8962864692764834e+00 1.4528459654368005e+01 5.5980908627695323e+00 -1 -1 1
6678 1 3.7471682507305517e+00 1.2881928515813614e+01 6.6023113522955148e+00 0 0 1
1330 1 6.4762912810225020e+00 1.3532420680244366e+01 5.6293436189153621e+00 0 -2 1
5109 1 7.7972545641966162e+00 1.6117841571601353e+01 6.6542577049245581e+00 4 1 0
6560 1 1.1988752315661671e+01 1.5258858389022677e+01 6.6204430377473624e+00 1 1 1
1635 1 1.3677402397101464e+00 1.8780542489900455e+01 2.8408692200181695e+00 3 -2 0
3137 1 1.1480950199172093e+00 1.8738450030579514e+01 5.6578611558541327e+00 0 -1 1
6649 1 3.1173156591454378e+00 1.7028093908772135e+01 6.2495452626251202e+00 -3 1 1
5294 1 5.7471966124528429e+00 1.7584469402006320e+01 5.6513358023758107e+00 2 2 0
1726 1 6.3784296756350978e+00 2.0374488532571544e+01 6.3156374080351769e+00 2 -1 1
5221 1 1.0219623183465288e+01 1.7173315222297280e+01 5.4755335478319225e+00 1 -2 0
605 1 1.0690665581197445e+01 1.9443824163670204e+01 6.3988789905639241e+00 1 3 1
6554 1 4.8512759576344283e-01 1.6284539188550465e+01 1.0197564460367673e+01 -1 2 1
197 1 1.6456103785124661e+00 2.1341527402709961e+01 6.2906392829198206e+00 2 -1 0
310 1 4.4675154338969030e+00 2.2247978092202874e+01 5.7313561852202044e+00 2 -1 0
6658 1 9.7637431773311043e+00 2.3471888992891898e+01 6.7469066847910417e+00 -1 1 0
1476 1 8.7786090893081337e+00 2.1128115687683511e+01 5.4852585577006501e+00 0 1 1
5442 1 2.9530306247548674e+00 1.1139410024794503e+00 9.3401390627345648e+00 2 -1 0
3319 1 4.1713963828123175e+00 3.4592006032710367e+00 1.0141133839763246e+01 0 -2 1
1447 1 1.1311196094835308e+01 2.1831657765189480e+01 1.0083578894091426e+01 0 1 1
5456 1 6.9229734252430735e+00 4.0578006506072875e+00 9.4031788297755448e+00 0 1 1
3056 1 8.2568573515886516e+00 1.8874144397107935e+00 1.0294475043942921e+01 3 -2 1
220 1 1.0723603664830527e+01 3.3241454060560480e+00 9.3783554492709182e+00 -1 2 0
2187 1 2.1728738522575854e+00 5.1712554626129519e+00 9.4920964340843028e+00 -2 2 0
5576 1 2.9216732039177504e+00 7.7235468374208303e+00 1.0203375188968879e+01 3 -2 1
3431 1 7.2882297034274721e+00 6.7567318114483772e+00 1.0408198284635674e+01 1 0 1
3187 1 1.1300545495828276e+01 5.8994455050717427e+00 1.0317064392195089e+01 1 2 1
5549 1 9.5820666813813062e+00 7.7219690681520570e+00 9.2780080337192068e+00 2 -1 0
475 1 8.7991071325882853e-01 9.7162806672302953e+00 9.4062706095781596e+00 0 -2 0
2038 1 1.9506840433951589e+00 1.2207253514347467e+01 1.0387642155450681e+01 0 2 0
2079 1 5.2314718446805388e+00 8.4973660054834301e+00 9.2774422082962964e+00 4 1 0
5178 1 6.0596016808022526e+00 1.1075784011341010e+01 1.0258306834403475e+01 2 2 0
3532 1 8.4964013372006253e+00 1.2196638295890939e+01 9.1709372021306006e+00 1 0 1
117 1 1.0472286994920079e+01 1.0154211883695702e+01 1.0154392803816023e+01 3 -2 0
4859 1 7.1591580041444089e+00 2.2711579753588278e+01 1.0223637611923875e+01 -1 0 1
459 1 4.3397407692089187e+00 1.2955500952517122e+01 9.1464250476002871e+00 1 0 0
5618 1 7.5234413497679533e+00 1.6394629179268527e+01 9.3795385222816439e+00 -4 0 0
4791 1 4.9116740041965876e+00 1.5628126084504439e+01 9.9293099625672170e+00 1 -2 1
4714 1 9.2938375393396520e+00 1.4485933352509246e+01 1.0095641072436960e+01 2 3 1
5253 1 1.1725666805800049e+01 1.4786003241308432e+01 9.1744305137062714e+00 -1 1 0
2025 1 3.9392163474694888e+00 1.9993296045244104e+01 1.0085741669846467e+01 1 0 0
1682 1 2.9164847090147936e+00 1.7199226146393073e+01 9.0668448570506524e+00 -1 0 1
3828 1 6.2525301441401648e+00 2.0093123688726546e+01 9.0516246190043415e+00 0 -1 0
2017 1 1.0601911299984083e+01 1.9270214164771218e+01 9.1945969944352992e+00 1 -1 0
1533 1 8.1110759265847143e+00 1.8807245906131268e+01 1.0010612914977672e+01 0 1 1
5600 1 5.4797267360912716e-01 1.6465879171852901e+01 2.1031385187856970e+00 3 2 1
1822 1 1.7560303309293961e+00 2.1322968436902862e+01 8.9056427564286817e+00 1 -2 0
2112 1 2.6651725087113918e+00 2.4245977699008716e+01 2.2384978219349869e+00 1 2 0
2180 1 2.9520748643838588e+00 2.4478118004052085e+01 -4.7731801711042854e-01 3 1 1
1352 1 3.6051023312086539e-01 2.3397202115797676e+01 3.1388849995042376e+00 -2 0 1
3277 1 9.9287230939177040e-01 2.5469323159412816e+00 1.3856502806191928e+01 0 0 0
6659 1 3.8799813006276471e+00 3.4632535546152097e+00 1.2673511450269418e+01 0 0 0
5170 1 6.9071404825831220e+00 2.2712229758020651e+01 2.0000207359520882e+01 2 2 1
1848 1 5.4332551103473454e+00 1.4188442508253900e+00 1.3724031540426131e+01 2 2 0
5264 1 8.1413988460113700e+00 2.1349817104232360e+00 1.2916161836605818e+01 0 2 0
3837 1 5.1788401279189600e+00 1.6151038931525882e+01 2.3521403328389791e+01 3 -1 0
65 1 2.8021800984858531e+00 7.8676348958904212e+00 1.2759026127145399e+01 0 1 0
5420 1 4.4282361192739357e+00 5.8315243943442736e+00 1.3644255998652509e+01 1 1 0
213 1 7.0455950442732753e+00 6.7516773440686917e+00 1.3082352835850987e+01 2 -1 0
6768 1 8.7519326301864826e+00 4.7790184217192841e+00 1.3913919212202051e+01 1 -1 1
335 1 1.1584560465003079e+01 5.6819963029750538e+00 1.3164220525752960e+01 0 -2 0
5644 1 3.3741705914920366e+00 1.0270811575217630e+01 1.3548873600542581e+01 0 2 1
3189 1 6.1818520266653953e+00 1.1017672446334206e+01 1.2981136727241182e+01 3 1 1
3958 1 7.8565912022699687e+00 9.2668276161256191e+00 1.3778261446727035e+01 2 -4 1
4737 1 1.0557023387037805e+01 1.0091006850316667e+01 1.2728454301209124e+01 0 -2 1
5352 1 1.6914625620735635e+00 1.2303234271856304e+01 1.3132906719220026e+01 1 0 0
6624 1 2.7360329403150017e+00 1.4535691796279048e+01 1.3443259475139065e+01 2 0 0
4729 1 5.0967422177699877e+00 1.5223101332137400e+01 1.2425608280895723e+01 -2 0 1
4909 1 6.7821980504894102e+00 1.3578795005958495e+01 1.3514397947219329e+01 -2 1 1
3511 1 1.1095999176472779e+01 1.2929059413560807e+01 1.3957347452142773e+01 0 0 0
3267 1 9.5880827374929396e+00 1.4826017981849679e+01 1.2781838445174779e+01 3 -2 1
1456 1 8.2854867366685170e+00 2.1234232090406149e+00 2.3670747233926516e+01 3 1 1
4784 1 1.6815195195345429e+00 1.8865750627785772e+01 1.3701296481514094e+01 -1 -1 1
4993 1 4.1527616616802518e+00 1.9996866365128238e+01 1.2843742913082933e+01 -1 0 1
3940 1 5.7342403225229202e+00 1.8060780640955446e+01 1.3457744713835249e+01 1 4 1
1634 1 8.1454196985347362e+00 1.8783861109779647e+01 1.2747239475855217e+01 1 -1 0
3154 1 1.0223293215318765e+01 1.7284626021183051e+01 1.3981508563908173e+01 -2 -1 1
5444 1 3.7732604600236325e-01 2.3219381215396858e+01 1.6301136210549750e+01 2 0 0
1936 1 4.7476661638101234e+00 2.2233270004429578e+01 1.3987184613828576e+01 -1 2 0
3574 1 7.1966685659336100e+00 2.2918990877916347e+01 1.3082460236016411e+01 1 0 0
5189 1 8.9830876088487859e+00 2.1367387756108091e+01 1.3657678741995756e+01 0 -1 1
5013 1 1.1611404400198928e+01 2.1934570051426309e+01 1.2863084464314326e+01 3 -2 1
3435 1 1.1364092912275912e+00 2.3129768707232716e+00 1.6440887317095246e+01 -3 -2 0
3467 1 3.1960585687574765e+00 8.0832037810411972e-01 1.7247551892692606e+01 1 2 1
1746 1 3.2078446840802779e+00 1.0420299291324897e+00 1.9663398546279513e+01 1 1 0
334 1 5.5414105320498459e+00 1.6402738618061055e+00 1.6245671253077614e+01 1 0 0
1889 1 9.3250510743685986e+00 1.4592687581920213e+01 2.3791960462744104e+01 2 -1 0
5369 1 1.0744689643743474e+01 3.1410712086538775e+00 1.7113079037198048e+01 1 1 0
4016 1 1.8957795561728668e+00 4.8487594125560758e+00 1.7462075464621293e+01 0 0 1
1309 1 2.1908931437588790e+00 5.3260267283534652e+00 2.0250997314833047e+01 0 1 1
3800 1 1.1953533955705263e+01 1.4936895750199001e+01 2.0087348157280491e+01 1 2 0
466 1 6.1365092279395332e+00 4.1904512195671382e+00 1.7356478743277417e+01 0 -3 1
5354 1 4.0658672299705270e+00 5.8739471945858366e+00 1.6377342698328814e+01 2 -2 0
6584 1 8.9149673055765390e+00 4.8678118372949921e+00 1.6780503820102506e+01 0 3 1
1370 1 9.8037162470881416e+00 7.5716683634198203e+00 1.7562678650356688e+01 0 0 1
5592 1 9.5345046537467173e+00 7.5686034758653582e+00 2.0128887199176091e+01 -3 1 1
621 1 3.4178715282940932e+00 1.0121672574519890e+01 1.6390893010370341e+01 1 1 1
1599 1 1.0806448984561643e+00 9.1617387720736758e+00 1.7278837844864782e+01 2 1 1
1735 1 5.2613701705212179e+00 8.3309782409612154e+00 1.7156238310868666e+01 3 1 0
5110 1 7.7923262645030373e+00 9.2477174958495070e+00 1.6540346848119274e+01 4 -2 1
363 1 8.5117252060317092e+00 1.1796469741501610e+01 1.7528140709208738e+01 3 0 0
3633 1 4.9167269565462690e-01 7.0162375043148234e-02 2.0373039141096260e+01 0 2 0
6535 1 2.5999798677476491e+00 1.4733712743538707e+01 1.6623008981259574e+01 2 1 1
3625 1 4.2317065348589296e+00 1.2749597086262744e+01 1.7110831188155331e+01 -1 1 1
6690 1 6.8344550872412428e+00 1.3542839446546237e+01 1.6315180139336896e+01 2 -1 1
6429 1 7.4266397193015949e+00 1.5963532109650693e+01 1.7208882042095556e+01 4 1 1
168 1 1.1204776014812813e+01 1.2581662540624182e+01 1.6779110152600019e+01 3 -1 0
1938 1 2.5303425488275716e-01 7.0076018319202182e+00 1.3375464039704843e+01 -2 1 0
4854 1 1.4001919542536090e+00 1.8807170653129152e+01 1.6322748861587446e+01 1 2 1
6517 1 3.0166171207538071e+00 1.6992817249204478e+01 1.7434474209849139e+01 1 1 1
6459 1 5.6114844889235895e+00 1.7592420463391424e+01 1.6220591003549416e+01 3 4 1
290 1 6.1887405902412924e+00 2.0013927883195361e+01 1.7614666642299621e+01 1 0 0
5613 1 1.0162872713608049e+01 1.6801103569456895e+01 1.6669049281797015e+01 2 -4 1
6546 1 1.1028071859164402e+01 1.9342980418365649e+01 1.7341911521754803e+01 -1 1 1
2166 1 2.1311922701282819e+00 2.1374321630458073e+01 1.7346465239659707e+01 -1 0 0
5301 1 3.0133630819860686e+00 2.4201690649397836e+01 2.1412462727732407e+01 -1 -2 0
4736 1 4.6655957052859689e+00 2.2291190675812839e+01 1.6495983176018612e+01 2 1 1
542 1 9.8546490229045620e+00 2.3603456065666503e+01 1.7051256647915338e+01 2 -3 0
1652 1 9.1968177667732665e+00 2.0991133097276439e+01 1.6457022906376313e+01 0 1 1
3630 1 9.9528023764425324e+00 2.7421132961941658e-01 1.3402447204978490e+01 2 -3 1
3629 1 9.8769718133245128e+00 5.6543073388819565e-01 1.6296177083606938e+01 0 1 0
390 1 3.9376601452991546e+00 3.3086239749346666e+00 2.1000665053119683e+01 1 0 0
3054 1 8.0204738299041534e-01 1.6570841923494779e+01 1.2845032104472553e+01 2 -2 1
3790 1 4.1875464759682526e+00 1.3177015611500517e+01 2.3576357054878557e+01 0 -2 0
5055 1 8.4129799947853066e+00 2.0812096436559728e+00 2.0621009105045868e+01 -3 -1 0
3164 1 1.0744295360257999e+01 3.0957195224822809e+00 1.9737952480028103e+01 1 -2 1
5324 1 1.8840510895152360e+00 5.0065679669372036e+00 2.3357942871976636e+01 1 2 0
4753 1 4.0755483791023570e+00 3.3781927555059528e+00 2.3651564583508204e+01 2 1 1
3447 1 2.9300822650353591e+00 8.0807019534490792e+00 2.1106771630108792e+01 -1 -3 1
4868 1 6.5948104954577138e+00 4.0819818176660521e+00 2.0358931897794818e+01 -2 1 1
4976 1 7.1370449960066429e+00 6.5839849598643578e+00 2.1175357636356690e+01 0 0 1
3156 1 1.2088767939840480e+01 1.5073255593722712e+01 2.3372135458233586e+01 1 -1 1
5173 1 1.2260723069329872e+01 2.4399195003533642e+01 1.3555782094857159e+01 1 3 0
296 1 1.1475941431807513e+01 5.5929743743499323e+00 2.0731287251524112e+01 -1 0 0
1354 1 7.1321559771847109e-01 9.6646592835877350e+00 1.9973989384499237e+01 -2 1 1
1493 1 1.6457860898958248e+00 1.2207812883617875e+01 2.0679850412343061e+01 0 -1 1
2057 1 1.7935327720946534e+00 1.2066729740311013e+01 2.3588008140015170e+01 2 1 0
6683 1 2.9643891627896095e+00 2.3877931266508877e+01 1.2808731167274185e+01 1 -1 1
4872 1 5.3735886291447130e+00 8.2559444877150234e+00 2.0206095783752207e+01 0 -1 1
5358 1 6.1890969710990875e+00 1.0996569274702319e+01 2.0937332447893859e+01 0 0 0
2169 1 8.6481419737425469e+00 1.1867566527508227e+01 2.0052672692522481e+01 -2 -2 0
165 1 1.0225300027950617e+01 1.0164722276698743e+01 2.1132202718257432e+01 1 1 0
2999 1 1.1877470751251401e+01 1.5127395258143125e+01 1.7562932672988708e+01 -1 1 1
6763 1 4.8447648509688279e-01 1.6238197249990375e+01 2.1041151626021556e+01 0 1 1
1947 1 7.9331759831208251e+00 1.6799572066335610e+01 2.3550798911723525e+01 -2 0 0
3172 1 4.4128300318257629e+00 1.3109177746123560e+01 1.9920367550628562e+01 0 -1 1
331 1 7.1188453672111098e+00 1.5838686241223305e+01 1.9888130293479879e+01 2 -1 0
3230 1 4.6758781433541170e+00 1.5518774675602868e+01 2.0889235961351478e+01 0 -1 1
3688 1 2.1309487951007635e+00 2.1733073122500389e+01 2.0269027847523439e+01 3 0 0
451 1 9.1192693240785498e+00 1.4412968251127827e+01 2.0928548950783224e+01 -1 -1 0
439 1 9.3051665741464955e+00 2.3614777442443113e+01 1.9729950792683375e+01 2 0 1
6575 1 2.8394137801533605e+00 1.7264976491920258e+01 2.0307255938276370e+01 3 0 0
1723 1 1.1461250655232130e+01 2.2187879120241952e+01 2.0630741869763146e+01 -1 0 1
6385 1 3.5978841177672209e+00 1.9865363939190708e+01 2.1507049990059240e+01 -1 -1 1
1580 1 6.0962411081513252e+00 1.9854589568626089e+01 2.0345509792784434e+01 4 -3 1
5069 1 8.3430281946697900e+00 1.8239221981779863e+01 2.1323207403462966e+01 1 1 1
1338 1 1.0636339270892586e+01 1.9484480267984981e+01 2.0179940966708660e+01 0 -2 1
3040 1 4.9652651123322633e-01 2.3200952344945815e+01 1.3693881519404940e+01 0 3 1
4876 1 1.1460980584340968e+01 5.3977668925911830e+00 2.3141854065163709e+01 -1 1 1
3191 1 5.1362679242128673e-01 5.1405376450624374e-02 1.2678014697356788e+01 -1 -1 1
1513 1 1.2263344629299194e+01 8.4910897559182796e+00 1.3801533253244033e+01 -1 2 1
1806 1 1.2196414250308237e+01 8.2354410077606452e+00 1.6586363961770981e+01 -2 0 0
3384 1 2.0724646695824803e-01 1.3751066589028541e+01 1.7327612645269323e+01 0 0 0
1567 1 1.6557482122713707e-01 6.8674482674416844e+00 1.6375988380767161e+01 1 0 1
3280 1 5.2582044187878496e-01 1.6582387381847820e+01 2.3713491043753336e+01 -1 2 1
80 1 6.0777399336553746e+00 1.1141535317215373e+01 2.3411181323404218e+01 -1 0 1
404 1 3.0003325080631167e+00 7.6443062641302708e+00 2.3708403479957646e+01 1 2 0
623 2 0.0000000000000000e+00 2.8417180249513345e+00 2.6710530222009350e+01 0 0 0
625 2 0.0000000000000000e+00 0.0000000000000000e+00 2.6710530222009350e+01 0 0 0
627 2 1.2305000000000001e+00 7.1042950623783474e-01 2.6710530222009350e+01 0 0 0
634 2 1.2305000000000001e+00 2.1312885187134998e+00 2.6710530222009350e+01 0 0 0
636 2 2.4610000000000003e+00 2.8417180249513345e+00 2.6710530222009350e+01 0 0 0
638 2 2.4610000000000003e+00 0.0000000000000000e+00 2.6710530222009350e+01 0 0 0
640 2 3.6915000000000004e+00 7.1042950623783474e-01 2.6710530222009350e+01 0 0 0
655 2 3.6914999999999996e+00 2.1312885187134998e+00 2.6710530222009350e+01 0 0 0
657 2 4.9220000000000006e+00 2.8417180249513332e+00 2.6710530222009350e+01 0 0 0
659 2 4.9220000000000006e+00 0.0000000000000000e+00 2.6710530222009350e+01 0 0 0
661 2 6.1524999999999999e+00 7.1042950623783407e-01 2.6710530222009350e+01 0 0 0
684 2 6.1524999999999999e+00 2.1312885187134989e+00 2.6710530222009350e+01 0 0 0
686 2 7.3829999999999991e+00 2.8417180249513345e+00 2.6710530222009350e+01 0 0 0
688 2 7.3829999999999991e+00 0.0000000000000000e+00 2.6710530222009350e+01 0 0 0
1056 2 4.9220000000000006e+00 2.1312885187134995e+01 3.3351469777992875e+01 0 0 0
690 2 8.6134999999999984e+00 7.1042950623783407e-01 2.6710530222009350e+01 0 0 0
721 2 8.6134999999999984e+00 2.1312885187135002e+00 2.6710530222009350e+01 0 0 0
723 2 9.8440000000000012e+00 2.8417180249513332e+00 2.6710530222009350e+01 0 0 0
725 2 9.8440000000000012e+00 0.0000000000000000e+00 2.6710530222009350e+01 0 0 0
727 2 1.1074500000000002e+01 7.1042950623783330e-01 2.6710530222009350e+01 0 0 0
766 2 1.1074500000000002e+01 2.1312885187135002e+00 2.6710530222009350e+01 0 0 0
3208 1 1.0736601412062591e+01 3.1174291664515201e+00 2.4411157938856128e+01 4 0 1
628 2 0.0000000000000000e+00 7.1042950623783341e+00 2.6710530222009350e+01 0 0 0
630 2 0.0000000000000000e+00 4.2625770374269996e+00 2.6710530222009350e+01 0 0 0
632 2 1.2305000000000001e+00 4.9730065436648339e+00 2.6710530222009350e+01 0 0 0
647 2 1.2305000000000001e+00 6.3938655561404980e+00 2.6710530222009350e+01 0 0 0
649 2 2.4610000000000003e+00 7.1042950623783341e+00 2.6710530222009350e+01 0 0 0
651 2 2.4610000000000003e+00 4.2625770374269996e+00 2.6710530222009350e+01 0 0 0
653 2 3.6914999999999996e+00 4.9730065436648339e+00 2.6710530222009350e+01 0 0 0
676 2 3.6914999999999996e+00 6.3938655561404980e+00 2.6710530222009350e+01 0 0 0
4745 1 9.9997557117276532e+00 7.5073256338585121e+00 2.4271060603065582e+01 1 3 1
678 2 4.9220000000000006e+00 7.1042950623783341e+00 2.6710530222009350e+01 0 0 0
680 2 4.9220000000000006e+00 4.2625770374269978e+00 2.6710530222009350e+01 0 0 0
682 2 6.1524999999999999e+00 4.9730065436648339e+00 2.6710530222009350e+01 0 0 0
713 2 6.1524999999999999e+00 6.3938655561404980e+00 2.6710530222009350e+01 0 0 0
715 2 7.3830000000000009e+00 7.1042950623783341e+00 2.6710530222009350e+01 0 0 0
717 2 7.3829999999999991e+00 4.2625770374269996e+00 2.6710530222009350e+01 0 0 0
719 2 8.6135000000000002e+00 4.9730065436648339e+00 2.6710530222009350e+01 0 0 0
758 2 8.6135000000000002e+00 6.3938655561404980e+00 2.6710530222009350e+01 0 0 0
760 2 9.8440000000000012e+00 7.1042950623783341e+00 2.6710530222009350e+01 0 0 0
762 2 9.8440000000000012e+00 4.2625770374270004e+00 2.6710530222009350e+01 0 0 0
764 2 1.1074500000000002e+01 4.9730065436648339e+00 2.6710530222009350e+01 0 0 0
805 2 1.1074500000000002e+01 6.3938655561404980e+00 2.6710530222009350e+01 0 0 0
1794 1 8.5532646073061898e+00 1.1876933490042182e+01 2.4380836242393272e+01 1 1 1
1105 2 1.1074500000000002e+01 2.3444173705848499e+01 3.3351469777992875e+01 0 0 0
641 2 0.0000000000000000e+00 1.1366872099805333e+01 2.6710530222009350e+01 0 0 0
643 2 0.0000000000000000e+00 8.5251540748539991e+00 2.6710530222009350e+01 0 0 0
645 2 1.2305000000000001e+00 9.2355835810918343e+00 2.6710530222009350e+01 0 0 0
668 2 1.2305000000000001e+00 1.0656442593567498e+01 2.6710530222009350e+01 0 0 0
670 2 2.4610000000000003e+00 1.1366872099805333e+01 2.6710530222009350e+01 0 0 0
672 2 2.4610000000000003e+00 8.5251540748539991e+00 2.6710530222009350e+01 0 0 0
674 2 3.6915000000000004e+00 9.2355835810918343e+00 2.6710530222009350e+01 0 0 0
705 2 3.6914999999999996e+00 1.0656442593567499e+01 2.6710530222009350e+01 0 0 0
707 2 4.9220000000000006e+00 1.1366872099805333e+01 2.6710530222009350e+01 0 0 0
709 2 4.9220000000000006e+00 8.5251540748539991e+00 2.6710530222009350e+01 0 0 0
711 2 6.1524999999999999e+00 9.2355835810918343e+00 2.6710530222009350e+01 0 0 0
750 2 6.1524999999999999e+00 1.0656442593567499e+01 2.6710530222009350e+01 0 0 0
752 2 7.3829999999999991e+00 1.1366872099805333e+01 2.6710530222009350e+01 0 0 0
754 2 7.3830000000000009e+00 8.5251540748539991e+00 2.6710530222009350e+01 0 0 0
1057 2 6.1524999999999990e+00 2.2023314693372832e+01 3.3351469777992875e+01 0 0 0
756 2 8.6134999999999984e+00 9.2355835810918343e+00 2.6710530222009350e+01 0 0 0
797 2 8.6134999999999984e+00 1.0656442593567498e+01 2.6710530222009350e+01 0 0 0
799 2 9.8440000000000012e+00 1.1366872099805333e+01 2.6710530222009350e+01 0 0 0
801 2 9.8440000000000012e+00 8.5251540748539956e+00 2.6710530222009350e+01 0 0 0
803 2 1.1074500000000002e+01 9.2355835810918343e+00 2.6710530222009350e+01 0 0 0
844 2 1.1074500000000002e+01 1.0656442593567498e+01 2.6710530222009350e+01 0 0 0
846 2 1.2304999999999998e+01 1.1366872099805333e+01 2.6710530222009350e+01 0 0 0
3465 1 8.2081211325599792e+00 1.9022994122995748e+01 3.6120605578408600e+01 1 1 -1
662 2 0.0000000000000000e+00 1.5629449137232333e+01 2.6710530222009350e+01 0 0 0
664 2 0.0000000000000000e+00 1.2787731112280996e+01 2.6710530222009350e+01 0 0 0
666 2 1.2305000000000001e+00 1.3498160618518829e+01 2.6710530222009350e+01 0 0 0
697 2 1.2305000000000001e+00 1.4919019630994494e+01 2.6710530222009350e+01 0 0 0
699 2 2.4610000000000003e+00 1.5629449137232328e+01 2.6710530222009350e+01 0 0 0
701 2 2.4610000000000003e+00 1.2787731112280996e+01 2.6710530222009350e+01 0 0 0
703 2 3.6915000000000004e+00 1.3498160618518829e+01 2.6710530222009350e+01 0 0 0
742 2 3.6915000000000004e+00 1.4919019630994494e+01 2.6710530222009350e+01 0 0 0
744 2 4.9220000000000006e+00 1.5629449137232333e+01 2.6710530222009350e+01 0 0 0
746 2 4.9220000000000006e+00 1.2787731112280996e+01 2.6710530222009350e+01 0 0 0
748 2 6.1524999999999990e+00 1.3498160618518829e+01 2.6710530222009350e+01 0 0 0
789 2 6.1524999999999990e+00 1.4919019630994494e+01 2.6710530222009350e+01 0 0 0
791 2 7.3829999999999991e+00 1.5629449137232333e+01 2.6710530222009350e+01 0 0 0
793 2 7.3829999999999991e+00 1.2787731112280996e+01 2.6710530222009350e+01 0 0 0
1342 1 5.4895026441443022e+00 8.5755255249678193e+00 2.4641706547150488e+01 -2 0 1
795 2 8.6135000000000002e+00 1.3498160618518835e+01 2.6710530222009350e+01 0 0 0
836 2 8.6135000000000002e+00 1.4919019630994494e+01 2.6710530222009350e+01 0 0 0
838 2 9.8440000000000012e+00 1.5629449137232328e+01 2.6710530222009350e+01 0 0 0
840 2 9.8440000000000012e+00 1.2787731112280996e+01 2.6710530222009350e+01 0 0 0
842 2 1.1074500000000002e+01 1.3498160618518829e+01 2.6710530222009350e+01 0 0 0
878 2 1.1074500000000002e+01 1.4919019630994494e+01 2.6710530222009350e+01 0 0 0
3701 1 1.0624561888274848e+00 9.2459248148017732e+00 2.4266060843176561e+01 0 1 0
691 2 0.0000000000000000e+00 1.9892026174659328e+01 2.6710530222009350e+01 0 0 0
693 2 0.0000000000000000e+00 1.7050308149707998e+01 2.6710530222009350e+01 0 0 0
695 2 1.2305000000000001e+00 1.7760737655945832e+01 2.6710530222009350e+01 0 0 0
734 2 1.2305000000000001e+00 1.9181596668421495e+01 2.6710530222009350e+01 0 0 0
736 2 2.4610000000000003e+00 1.9892026174659328e+01 2.6710530222009350e+01 0 0 0
738 2 2.4610000000000003e+00 1.7050308149707998e+01 2.6710530222009350e+01 0 0 0
740 2 3.6914999999999996e+00 1.7760737655945832e+01 2.6710530222009350e+01 0 0 0
781 2 3.6914999999999996e+00 1.9181596668421495e+01 2.6710530222009350e+01 0 0 0
1078 2 8.6135000000000002e+00 2.2023314693372832e+01 3.3351469777992875e+01 0 0 0
783 2 4.9220000000000006e+00 1.9892026174659328e+01 2.6710530222009350e+01 0 0 0
785 2 4.9220000000000006e+00 1.7050308149707998e+01 2.6710530222009350e+01 0 0 0
787 2 6.1524999999999999e+00 1.7760737655945832e+01 2.6710530222009350e+01 0 0 0
828 2 6.1524999999999999e+00 1.9181596668421495e+01 2.6710530222009350e+01 0 0 0
830 2 7.3829999999999991e+00 1.9892026174659328e+01 2.6710530222009350e+01 0 0 0
832 2 7.3830000000000009e+00 1.7050308149707998e+01 2.6710530222009350e+01 0 0 0
1094 2 9.8440000000000012e+00 2.1312885187134999e+01 3.3351469777992875e+01 0 0 0
834 2 8.6134999999999984e+00 1.7760737655945832e+01 2.6710530222009350e+01 0 0 0
870 2 8.6135000000000002e+00 1.9181596668421495e+01 2.6710530222009350e+01 0 0 0
872 2 9.8440000000000012e+00 1.9892026174659335e+01 2.6710530222009350e+01 0 0 0
874 2 9.8440000000000012e+00 1.7050308149707998e+01 2.6710530222009350e+01 0 0 0
876 2 1.1074500000000002e+01 1.7760737655945835e+01 2.6710530222009350e+01 0 0 0
904 2 1.1074500000000002e+01 1.9181596668421495e+01 2.6710530222009350e+01 0 0 0
908 2 1.2304999999999998e+01 1.7050308149707998e+01 2.6710530222009350e+01 0 0 0
728 2 0.0000000000000000e+00 2.4154603212086325e+01 2.6710530222009350e+01 0 0 0
730 2 0.0000000000000000e+00 2.1312885187134999e+01 2.6710530222009350e+01 0 0 0
732 2 1.2304999999999993e+00 2.2023314693372832e+01 2.6710530222009350e+01 0 0 0
773 2 1.2304999999999993e+00 2.3444173705848499e+01 2.6710530222009350e+01 0 0 0
775 2 2.4610000000000003e+00 2.4154603212086325e+01 2.6710530222009350e+01 0 0 0
777 2 2.4610000000000003e+00 2.1312885187134995e+01 2.6710530222009350e+01 0 0 0
779 2 3.6914999999999996e+00 2.2023314693372832e+01 2.6710530222009350e+01 0 0 0
820 2 3.6915000000000004e+00 2.3444173705848499e+01 2.6710530222009350e+01 0 0 0
822 2 4.9220000000000006e+00 2.4154603212086325e+01 2.6710530222009350e+01 0 0 0
824 2 4.9220000000000006e+00 2.1312885187134995e+01 2.6710530222009350e+01 0 0 0
826 2 6.1524999999999990e+00 2.2023314693372832e+01 2.6710530222009350e+01 0 0 0
862 2 6.1524999999999999e+00 2.3444173705848499e+01 2.6710530222009350e+01 0 0 0
864 2 7.3830000000000009e+00 2.4154603212086336e+01 2.6710530222009350e+01 0 0 0
866 2 7.3829999999999991e+00 2.1312885187134999e+01 2.6710530222009350e+01 0 0 0
868 2 8.6135000000000002e+00 2.2023314693372832e+01 2.6710530222009350e+01 0 0 0