LAMMPS data file via write_data, version 16 Mar 2018, timestep = 6000000

6768 atoms
2 atom types

2.7501418458584226e-01 4.8944985815406142e+01 xlo xhi
2.7389466079333857e-01 4.8745741269622826e+01 ylo yhi
-6.9138849132716373e-01 6.0753388491311938e+01 zlo zhi

Masses

1 18.015
2 12.01

Atoms # atomic

6442 1 7.5580794445880373e-01 3.3959347248773626e+00 2.7014921089162418e+00 -1 1 1
476 1 8.6358264344705782e-01 3.4481251805972861e+00 -4.0144383835519104e-02 -1 -1 1
3390 1 3.0844482223124108e+00 4.5505783602678784e+00 3.3281000863680683e+00 1 -1 1
515 1 4.8555646399632622e+00 2.7624062962610165e+00 2.5470691376383034e+00 2 -2 0
4795 1 7.5471437642460559e+00 3.1657090385416797e+00 3.4137478348728321e+00 -2 2 1
1379 1 5.1835174516693181e+00 2.4082236479473145e+00 2.1729527741047638e-02 0 0 1
1778 1 9.6082500614859772e+00 1.5584332808762316e+00 2.7776960877035748e+00 1 1 0
5315 1 1.3657931908400265e+01 3.7607658191131321e-01 1.0232978050224917e+01 0 3 0
1714 1 1.2312163068303592e+01 2.2160666273185341e+00 3.2686990810348204e+00 0 -3 1
5520 1 4.2222751025397169e+00 3.3823927733328779e-01 3.4010170048691339e+00 3 0 1
5305 1 1.4984890702088711e+01 1.8573983503436558e+01 9.6835860197828758e+00 0 -3 0
6547 1 4.3097990043490277e+00 6.8637976163399008e+00 -2.1950051848425722e-01 0 1 1
1609 1 2.2273373539451864e+00 8.4401312180508334e+00 3.4899970523680341e+00 0 1 1
6586 1 3.9754458231606731e+00 6.8749082165193611e+00 2.5053609897180600e+00 -1 1 1
3348 1 6.4210336543126161e+00 7.6823613742166481e+00 3.3063716148487066e+00 1 2 0
1830 1 8.7003484346477400e+00 5.7480863649945739e+00 -3.5601679173177914e-02 0 2 0
3253 1 8.1796758921129857e+00 5.3853430135846185e+00 2.6403373493356583e+00 -2 2 1
1968 1 1.0799590586485074e+01 6.1949292710524357e+00 3.4488837469352998e+00 0 2 0
5660 1 1.3005945815975112e+01 4.4688822505971615e+00 -2.3620949552054876e-01 0 1 1
6571 1 1.2658862356742281e+01 4.5386478571180628e+00 2.1378114816654987e+00 4 -1 0
4933 1 1.6007781027951260e+01 7.9886789119041861e+00 2.3764145620320387e+00 -1 -1 1
1374 1 7.1371304550424970e+00 9.2222575272527951e-01 7.0313107671363664e+00 2 -2 1
6 1 2.8369909619128482e+00 1.1074113200514335e+01 2.3192743810006711e+00 2 3 0
4801 1 3.0047146367941799e+00 1.0930475976230870e+01 -2.3060874469831677e-01 -3 1 1
5699 1 7.3287032553745943e+00 1.0058565484715468e+01 2.5394279042019727e+00 1 0 1
6627 1 7.3350854539188308e+00 9.9626610928664281e+00 -1.9428639640145712e-01 1 -2 1
1996 1 5.3112501016873281e+00 1.1509158823872092e+01 3.0934666202403931e+00 0 0 0
296 1 1.1498643024207462e+01 8.9542967854742610e+00 2.6861030730596727e+00 0 -2 0
1848 1 1.1557137097875348e+01 8.7852519829380142e+00 -9.8563143787816387e-02 0 2 0
1392 1 1.4596391476232601e+01 1.2336324622700747e+01 8.4137366094429344e-02 0 -2 1
3041 1 1.4877668077054755e+01 1.2044132362607270e+01 2.5523921819892417e+00 -1 3 1
3715 1 1.4124521011470252e+01 9.5329051441231147e+00 3.2891643517812224e+00 0 0 0
1813 1 2.1800441736597289e+00 1.4911833221753087e+01 2.5456946472153192e+00 1 -2 0
6366 1 1.6002244595717315e+01 2.3766452643239393e+01 2.9106233148001481e-01 0 -2 1
3247 1 1.0538065704948769e+00 1.2723076102694417e+01 3.2963899653248663e+00 2 2 1
392 1 6.0042403373753537e+00 1.4178399082156982e+01 2.1272698505231173e+00 -1 -1 0
3773 1 1.3643469941517099e+01 2.2824992086189127e+01 9.9755778123006120e+00 0 0 0
268 1 4.4044148417969620e+00 1.6150482795449008e+01 3.2052127278829867e+00 1 -1 0
6520 1 1.0521676111865036e+01 1.2819767482768613e+01 1.9570829758916122e+00 3 2 1
1946 1 1.0449063508361537e+01 1.2909424427823470e+01 -6.7820468868358474e-01 0 0 1
1775 1 1.3805134419169352e+01 1.6145856519245697e+01 2.5358592815823715e+00 0 2 0
6755 1 1.3551938106067658e+01 1.6112280090143244e+01 -1.6136409052348166e-01 -1 0 1
1985 1 1.2891764592238641e+01 1.3876147638703687e+01 3.2783804546640085e+00 0 0 0
510 1 9.0056246068158763e-01 1.9544598692279497e+01 -1.4514160940451115e-01 2 0 0
3408 1 9.7800931655931866e-01 1.9225752459760347e+01 2.5450970255473901e+00 4 2 1
3052 1 9.2388975554890980e+00 2.4388909578572896e+01 7.1825298960871340e+00 5 2 1
2321 1 5.2479195420127809e+00 1.8453331777575983e+01 -1.7942877240589628e-01 1 -1 0
2210 1 5.1067149545559021e+00 1.8539256547772631e+01 2.3534401267322584e+00 1 0 0
3893 1 7.6733851434107461e+00 1.9221545193571963e+01 3.0000523687963572e+00 1 0 1
4828 1 9.4572972557677950e+00 1.7170197054224097e+01 -2.9669079192168596e-01 3 0 1
5458 1 9.3312798392595084e+00 1.7191717422125727e+01 2.5554658833325963e+00 0 1 0
234 1 1.2807925200272399e+01 2.0592466324337337e+01 -2.4606417819630971e-01 1 3 0
1722 1 5.8021872314389791e+00 1.3859489404903467e+01 -5.4031103161185468e-01 1 1 1
6390 1 3.4809086905635094e+00 2.0390912624585329e+01 3.4205469187923789e+00 -1 0 1
3488 1 4.2083478905947498e+00 2.3169142951104330e+01 2.8748057441333534e+00 1 1 0
3365 1 3.9214236965600717e+00 2.2707421428837094e+01 2.8372756838215996e-01 0 0 0
86 1 8.4959012009559078e+00 2.1900529819177969e+01 1.0291706622179895e+01 -1 -2 1
3701 1 6.7389635032813171e+00 2.3392335069473251e+01 3.5511168446352865e+00 3 0 0
502 1 8.5579168691691532e+00 2.1642350497219940e+01 2.4348690801953783e+00 -1 0 1
144 1 1.1211122221220696e+01 2.2387748205606741e+01 3.2538886056025706e+00 0 2 0
3952 1 1.3805347782499895e+01 1.6572389010444624e+01 1.0551025523482355e+01 2 3 1
2188 1 9.0581297551234261e+00 2.4373054393235261e+01 9.7260951018615884e+00 1 -1 0
5031 1 1.2810696690566926e+01 2.0550858671960906e+01 2.3438472574290103e+00 0 0 1
6720 1 8.2353533981070797e+00 2.1694919190638842e+01 -1.7966599563899943e-01 2 1 1
4893 1 1.5187556082497309e+01 2.1214011349360579e+01 3.6100507917605524e+00 0 1 1
2248 1 2.8202586270145464e+00 1.3020226393818197e+00 6.7882206677282637e+00 2 1 1
2207 1 1.6352215987273324e+00 2.1974903089336639e+01 9.6446922377526043e+00 2 3 1
3622 1 1.6028334859705687e+01 2.3856376418573550e+01 1.0839857919987082e+01 1 1 1
1910 1 7.9857985288346143e+00 3.0142395997994442e+00 6.0765054143608355e+00 1 4 0
6572 1 1.8586077370423149e+00 1.5066475185489027e+01 -3.4442942322516590e-01 0 0 1
5212 1 1.0420838824375533e+01 3.9065879689040530e+00 6.8950896026728294e+00 1 0 0
3564 1 1.2020698628273495e+01 2.1262072959741252e+00 5.9901343374098257e+00 0 -1 1
4754 1 1.4340178794472655e+01 2.7662643485605436e+00 6.7792740606843527e+00 1 1 1
3485 1 3.5873756658944203e+00 3.5896052890448886e+00 5.9662953307481903e+00 1 2 0
1485 1 1.8090922723306968e+00 6.1274804112097643e+00 6.3967599053877722e+00 -1 -3 1
4987 1 5.8298992078971184e+00 4.7802205414972407e+00 6.5455926699205760e+00 1 0 1
3266 1 6.1041731294542902e+00 7.4497631523857093e+00 5.9689018478144273e+00 1 2 1
6542 1 1.1023562421709952e+01 6.4103840755545569e+00 5.9623732438075567e+00 1 0 1
1710 1 8.8131577129394536e+00 7.9934605792133082e+00 6.5324676808192379e+00 1 -1 0
5301 1 1.5122710510105387e+01 5.1484789321821465e+00 2.8899600263282177e+00 -1 3 0
1611 1 1.4964729967881309e+01 5.3911790040200156e+00 5.8409933622152153e+00 -2 2 1
589 1 1.3402263794589459e+01 7.1462276309371351e+00 6.8870268947924371e+00 2 3 1
1454 1 2.4020813757300572e+00 8.3612223050424674e+00 5.7728474406647772e+00 -2 -1 1
2011 1 9.6595979770123606e+00 1.5472559735849827e+00 5.3645466741943926e-03 -1 1 0
3160 1 4.7687042708344691e+00 9.5306978549619306e+00 6.8830591445265483e+00 0 3 1
6581 1 5.5723970695560476e+00 1.1713132929934918e+01 5.7456273828771360e+00 0 0 1
6540 1 9.6323288228990478e+00 1.0687822373683701e+01 3.2622053371316864e+00 0 -1 0
5152 1 9.6132712799111246e+00 1.0356189398243963e+01 5.9306082061473369e+00 -2 -2 0
3436 1 1.2099789335632714e+01 1.1242051002432797e+01 6.9702310490432478e+00 -1 1 1
6367 1 1.4110378471915991e+01 9.6561098670371575e+00 6.0102501767506755e+00 2 1 1
3694 1 1.1747862916534300e+00 1.2691532136752624e+01 6.1576581664439249e+00 3 0 0
1735 1 3.6768691261813582e+00 1.3506645130886263e+01 7.0027504343731950e+00 -1 0 0
5195 1 8.1888296633149622e+00 1.2382698179449525e+01 6.6815701801797864e+00 -1 -1 0
6693 1 4.6819459158730332e+00 1.5862341825164378e+01 5.8234711886387700e+00 0 0 0
229 1 8.6182594089818547e+00 1.4540269822967550e+01 2.9233124903449421e+00 1 2 0
3739 1 8.9257919725605497e+00 1.4756447610100533e+01 5.8693689442540951e+00 -1 2 0
184 1 1.1166566734178371e+01 1.5584535230298457e+01 6.9640809131472157e+00 -1 0 1
5234 1 1.2639782124256534e+01 1.3874940631354756e+01 5.8634576295272218e+00 4 1 0
3649 1 1.5308229088470815e+01 1.4821961946181192e+01 6.7163265602818267e+00 3 -2 0
481 1 2.7480593961481166e+00 1.7532236580297919e+01 6.9393401218830961e+00 0 -2 0
1984 1 3.5939836138003085e+00 2.0191182833911999e+01 6.1451297992490792e+00 -2 1 0
4892 1 1.2824551297872917e+01 2.0527940125602875e+01 1.0750835364578410e+01 1 1 1
4957 1 7.0707432608908087e+00 1.6590670138313243e+01 6.7141230596042920e+00 0 0 0
1316 1 7.6188065534249141e+00 1.9188186524443147e+01 5.9279882459602078e+00 -2 1 0
2326 1 1.2162790791501957e+01 1.8070058313096851e+01 3.2520312544094829e+00 1 0 1
3776 1 1.0153382468582697e+01 1.9826537823305337e+01 6.3461712155381349e+00 1 0 0
1667 1 1.1946377139460639e+01 1.7871755442586391e+01 5.9883875565911264e+00 0 2 1
3614 1 1.4449049424839274e+01 1.8583707732209067e+01 7.0578191838469451e+00 -2 2 0
6549 1 5.9711320857816705e+00 2.1294728020600679e+01 9.2695440134396652e+00 1 1 0
36 1 1.8462174495203139e+00 2.2211294175987078e+01 7.0533673132736876e+00 0 1 0
5222 1 3.2403114090382618e-01 1.0094552437213924e+01 6.7840377855824947e+00 4 1 1
3999 1 6.0773102520003297e+00 2.1121153438978272e+01 6.6656863899072523e+00 1 2 1
5440 1 6.8476332989275992e+00 2.3607544171620443e+01 6.1440969264355170e+00 1 2 1
1747 1 1.5908561370590842e+01 7.6785163370532912e+00 -3.9785763907693084e-01 0 4 0
5022 1 1.0869766116487467e+01 2.2368266488569873e+01 5.9983652729315526e+00 -1 1 1
1841 1 1.3451913390092354e+01 2.3097655758731989e+01 7.2324849784817289e+00 -1 -3 0
251 1 1.5189617738554414e+01 2.1195767311494773e+01 6.4071803262129894e+00 1 1 0
533 1 9.9739475764578045e-01 3.4647801389077086e+00 1.0209593482935777e+01 1 1 1
2145 1 2.8338965180307794e+00 1.6032236728371512e+00 9.4092037616156112e+00 0 0 0
1706 1 1.5936683397987524e+01 2.3785332348592924e+01 2.9674663708714246e+00 -2 -1 1
4904 1 5.1646751221105189e+00 2.7001307975951758e+00 1.0623119267809523e+01 0 1 1
1522 1 9.5089941968711784e+00 1.5626904468043532e+00 1.0327612722811145e+01 0 3 0
304 1 1.0054806125407300e+01 3.9110848908666012e+00 9.4083486744467795e+00 -2 0 0
1850 1 1.4196600123351095e+01 3.0849201680354268e+00 9.6034195817358867e+00 -2 0 0
3044 1 1.5753135947007202e+00 5.8418260762262628e+00 9.1754812371723595e+00 2 0 1
5028 1 3.9513877347024251e+00 6.7492862410416858e+00 1.0421001343628962e+01 2 0 1
1831 1 5.9802348478582834e+00 4.9818655166380568e+00 9.6491156829111038e+00 0 -1 0
5069 1 8.4854667456774191e+00 5.8829190223306131e+00 1.0315783634954009e+01 0 1 1
2332 1 9.2650919458662706e+00 8.0526813919786004e+00 9.3139473257264402e+00 3 -1 1
599 1 1.2277148994802145e+01 4.8797228552216199e+00 1.0534401243300964e+01 2 0 1
6727 1 1.6080923615688832e+01 7.7373856414651021e+00 1.0235646348769530e+01 1 3 1
5142 1 1.3642423626028435e+01 7.0181494794551416e+00 9.6074829011060832e+00 -2 -2 1
6577 1 3.9412377222444737e+00 2.3038764653529224e+01 1.0269600919772149e+01 -1 1 1
3502 1 2.7072411562001788e+00 1.0820307558071590e+01 1.0609408981373209e+01 1 -1 0
524 1 4.4803821938300112e+00 9.3452735907862738e+00 9.3662313787774316e+00 0 -1 0
2000 1 7.4030874560635160e+00 9.5693684715525489e+00 1.0404526634330820e+01 1 3 0
6684 1 7.7397446148237501e+00 1.2277779058896677e+01 9.4710010743193713e+00 -2 1 1
1918 1 1.1686880302596034e+01 8.6805844850727709e+00 1.0308759765234374e+01 0 -3 0
5353 1 1.2283907145465507e+01 1.1339345159393874e+01 9.5774334514546098e+00 0 1 1
5346 1 1.4859353511305805e+01 1.2132313186118758e+01 1.0373732125954556e+01 -1 2 0
4835 1 1.7250749852688674e+00 1.5399525915681702e+01 1.0456063399874255e+01 1 2 1
3897 1 3.5172139919351628e+00 1.3536626045008669e+01 9.8721405789199093e+00 1 -2 1
5328 1 6.1766042195857365e+00 1.4124015486349691e+01 1.0701239195647336e+01 -1 3 1
6454 1 1.0214375457314803e+01 1.3241266134905707e+01 1.0540425778369084e+01 0 0 1
3056 1 1.1169910817360394e+01 1.5800093168341865e+01 9.6479990443251005e+00 -3 0 1
5254 1 1.5192840376653900e+01 1.4648480153376154e+01 9.5543867879707811e+00 -1 0 0
1655 1 8.0416040756291485e-01 1.9716300965684194e+01 1.0570438133836550e+01 3 2 1
146 1 2.5982760934331024e+00 1.7785071468519302e+01 9.6338237633194428e+00 2 -3 0
186 1 5.2895343034517577e+00 1.8700184928186935e+01 1.0072196043617030e+01 -1 0 0
3314 1 6.9935844042696003e+00 1.6462174569077042e+01 9.3331462230504467e+00 0 1 0
6534 1 9.4652866289469113e+00 1.7576087292728406e+01 1.0242561862497540e+01 -2 1 1
5653 1 1.0267297086503769e+01 1.9924802543491207e+01 9.2007205831315542e+00 3 0 1
3304 1 1.6176007036646006e+01 6.1606397754836351e-01 6.0590144085552398e+00 1 3 1
34 1 7.0579256001142054e+00 7.4474062034825761e-01 9.5095057874462210e+00 3 0 0
3706 1 1.6131454105137898e+01 5.1172772708239589e-01 3.2178129070098622e+00 2 1 0
5343 1 1.6389377819900126e+01 1.7105835236060649e+01 5.9181411357381046e+00 1 1 0
2137 1 3.3569268975817628e+00 4.5933416012050312e+00 1.3979400880567512e+01 1 -2 1
3417 1 6.4237753806887143e-01 3.4118570482541686e+00 1.2757065929053804e+01 2 2 0
3662 1 5.0857409301146470e+00 2.6904941294679552e+00 1.3271736796730135e+01 0 2 0
5540 1 7.7234639298328407e+00 3.0858706765938138e+00 1.3806518154626891e+01 1 0 0
1678 1 9.7891031987132262e+00 1.5003722164906459e+00 1.3165160574381735e+01 2 -2 1
5209 1 1.2279406787710114e+01 2.0352708362036087e+00 1.4073747359216263e+01 0 2 0
4905 1 5.9207990915277975e-01 1.9837451734025969e+01 2.1468846820656466e+01 1 0 1
3262 1 4.2242915960885341e+00 6.8305672602581025e+00 1.2991383651506435e+01 1 -1 1
2060 1 6.5187815358885501e+00 7.4175834294599072e+00 1.4148160992164469e+01 1 -2 0
1997 1 8.4132270443179404e+00 5.9017794990751149e+00 1.3151898874824651e+01 -2 3 0
3174 1 1.0800702113617607e+01 6.4357534550149529e+00 1.4138838847364852e+01 2 3 1
6489 1 1.2570945143738575e+01 4.3860793508389655e+00 1.3271616460318088e+01 1 1 1
3217 1 1.4926725462495167e+01 5.2359290133325356e+00 1.3757036116199917e+01 2 0 1
3137 1 1.5976668027983207e+01 7.7325750553188319e+00 1.2812687307345421e+01 3 2 1
3522 1 2.5750915930865528e+00 8.7430965581049094e+00 1.4166831221294862e+01 1 1 1
1762 1 2.8420258415135891e+00 1.1188848293200952e+01 1.3213925928204681e+01 -1 -1 0
488 1 5.2222990337431563e+00 1.1662948793024530e+01 1.3986088283236445e+01 -2 -1 0
3176 1 7.3741445110464312e+00 9.7957151009373504e+00 1.3164419103949554e+01 0 2 1
5501 1 1.1631832390147615e+01 8.9915030476409097e+00 1.3128729816305066e+01 0 1 0
3017 1 9.7474764628714947e+00 1.0739523581713469e+01 1.3828396039731073e+01 1 -2 1
2221 1 1.4184531997781963e+01 9.3762947522694784e+00 1.3880301036111153e+01 0 0 1
2202 1 1.4741910291315904e+01 1.1984504459187191e+01 1.3303856849318466e+01 0 0 0
2016 1 1.1516276680527633e+00 1.3065661167219442e+01 1.3963717432025607e+01 -1 1 0
1974 1 1.9133814143954906e+00 1.5326760307584195e+01 1.2983152011782026e+01 -1 2 0
3729 1 4.3410909886546367e+00 1.6017155183028162e+01 1.3777690553894423e+01 0 1 0
125 1 5.9647547609136762e+00 1.4274090807002690e+01 1.3297162373008819e+01 0 2 0
2179 1 8.6330148920350620e+00 1.5243318679999035e+01 1.4069163384379131e+01 -1 0 0
6464 1 1.0535159010164849e+01 1.3253809830450280e+01 1.3204056329241542e+01 -1 -1 1
390 1 1.2817704868548429e+01 1.3899997953579778e+01 1.3984122189907190e+01 1 0 0
424 1 3.5269554760500323e+00 2.0604475468343100e+01 1.3993785662576318e+01 0 2 0
1453 1 1.0976977679762734e+00 1.9543997672235513e+01 1.3342252740442893e+01 0 0 1
6378 1 5.1042289860011989e+00 1.8585775153555428e+01 1.2831314136682323e+01 1 -3 1
4897 1 7.4749331326431987e+00 1.9378351253028924e+01 1.3859910251946495e+01 0 0 1
3925 1 9.2678548206701823e+00 1.7630812490697132e+01 1.2931416743976836e+01 3 2 1
5641 1 1.1673559396379288e+01 1.8123540341568628e+01 1.3911702722918621e+01 2 1 0
1357 1 1.3731030645176094e+01 1.6305177549370786e+01 1.3253870696658025e+01 0 0 1
5092 1 5.4937944716038452e+00 5.2751401885024158e+00 2.3420133346102975e+01 4 2 0
383 1 4.3304923336804331e+00 2.2945386224140179e+01 1.2924215066256165e+01 1 1 0
4996 1 6.9270309479189125e+00 2.3687868633420507e+01 1.3794770274533430e+01 1 -2 1
1961 1 8.4451491420073701e+00 2.1728685638644340e+01 1.3082580112920642e+01 0 -1 0
1598 1 1.0837800127168522e+01 2.2572432534885255e+01 1.4062498042300728e+01 -2 1 1
4852 1 1.2694997049549464e+01 2.0705698881008008e+01 1.3665046753914901e+01 3 0 1
1337 1 1.5199752337090679e+01 2.1531213617511568e+01 1.4575310315941755e+01 0 2 1
3936 1 1.5924027180179140e+01 2.3892574649508063e+01 1.3477047409636738e+01 0 -1 1
5077 1 1.5266206246698108e+01 7.3399495353226270e+00 2.3348191862706312e+01 1 2 0
1356 1 2.7197023643644758e+00 1.4390005853265768e+00 1.7097356621142342e+01 -1 -1 1
2069 1 3.2344723872739745e+00 4.1847789097863561e+00 1.6532535568412246e+01 4 1 0
3210 1 7.6786767903460778e+00 3.0431679219298990e+00 1.6480150394517285e+01 1 1 0
449 1 6.3457202056769635e-01 3.6806911363511374e+00 2.1106438483086404e+01 0 1 1
2282 1 1.0277480297594824e+01 3.6659309505210431e+00 1.7382600102275571e+01 0 1 1
3229 1 1.2125539865891101e+01 1.8557772747169212e+00 1.6737576166756789e+01 -2 2 1
1327 1 1.4722636200545898e+01 2.6535399760867286e+00 1.7352628160270775e+01 -1 1 1
5133 1 6.7609824748485616e+00 7.4927710562520833e-01 1.7459295753499504e+01 0 3 0
1909 1 1.4930185419966848e+00 5.9496495719381350e+00 1.7346817015909380e+01 1 -1 1
5125 1 5.8861188213086209e+00 5.0065922500700344e+00 1.7193307779514221e+01 0 1 0
5208 1 6.9927866880159399e+00 7.4801445389431676e+00 1.6972994555375063e+01 0 -1 1
1636 1 1.0430086993382846e+01 6.1216100442188237e+00 1.6699983988911978e+01 1 2 1
5231 1 9.4313293045397746e+00 8.4649844299427937e+00 1.7614688718249358e+01 -3 2 0
6392 1 1.2947717785121748e+01 6.6550141325899528e+00 1.7291050442954646e+01 1 3 1
3018 1 1.5204169180661211e+01 5.2544203061337633e+00 1.6471024256133294e+01 2 -1 1
5609 1 2.6402058789992258e+00 8.6346447315891144e+00 1.6504011902415712e+01 1 -1 1
61 1 1.1150859235833716e+01 1.2600097027301972e+01 2.3310968204004176e+01 0 1 0
5313 1 4.9892798681402803e+00 9.1240906260540164e+00 1.7822122282424594e+01 2 1 0
3463 1 5.4228533914294283e+00 1.1582884126434601e+01 1.6848709478460865e+01 -1 -1 1
1629 1 9.7189889418802444e+00 1.0933532160106624e+01 1.6662685799940466e+01 0 1 1
281 1 1.2276547415848231e+01 1.1367759249391183e+01 1.7309382984750375e+01 0 1 0
6473 1 1.4262684479788010e+01 9.3590376007817788e+00 1.6573374081639844e+01 -1 1 1
3057 1 8.9236314188286470e-01 1.3022090544095738e+01 1.6880065975546863e+01 3 0 1
6510 1 3.6567642784281924e+00 1.3532320505021112e+01 1.7801433620467126e+01 2 0 1
6711 1 4.3696506810203006e+00 1.5889387941851352e+01 1.6617426519791024e+01 2 -1 1
405 1 7.8431502523437349e+00 1.2690365448208411e+01 1.7429069359717364e+01 0 0 0
200 1 8.5975892293934955e+00 1.5136250160706563e+01 1.6734589264413241e+01 0 -1 0
187 1 1.1103067206782393e+01 1.5850707096546303e+01 1.7977569680500707e+01 -2 0 0
4794 1 1.2952913875039478e+01 1.3909910813316690e+01 1.6762799962298761e+01 -1 2 1
2049 1 1.5464452351769316e+01 1.4648148871325461e+01 1.7314868698225382e+01 -2 -3 0
308 1 2.4076569574623559e+00 1.7862532836512671e+01 1.7190979971815715e+01 1 -2 0
3780 1 3.2547613665517234e+00 2.0472403494151809e+01 1.6494798841525011e+01 2 -1 0
570 1 6.8093743670993128e+00 1.6980351106658837e+01 1.7451971064398720e+01 -2 -1 1
143 1 7.7523101384103645e+00 1.9476546163214000e+01 1.6533924078910893e+01 2 -1 0
1376 1 1.1719730215260125e+01 1.8202300610559217e+01 1.6786258263424546e+01 3 1 1
2189 1 1.0029449258837806e+01 2.0228879980113376e+01 1.7603579935570437e+01 1 0 0
5006 1 1.4313673460321310e+01 1.9069246486129650e+01 1.7599963326248329e+01 -2 0 0
6376 1 1.6449054844663852e+01 7.0455158675541418e-01 1.6463853539905930e+01 2 2 1
5570 1 1.5255129554668352e+00 2.2154431649143831e+01 1.7823580182585378e+01 -2 0 1
6539 1 5.8994203035287560e+00 2.1290373750000846e+01 1.7317572187559556e+01 0 2 1
372 1 6.3950654515060066e+00 2.3494494090752905e+01 1.6402900224068773e+01 0 -3 0
1417 1 1.0780292308087864e+01 2.2687929135421836e+01 1.6450006473499855e+01 1 -1 1
2165 1 1.3167916300591521e+01 2.3367862869382190e+01 1.7591462779617508e+01 0 1 0
6604 1 1.5037618189808706e+01 2.1620384164332339e+01 1.7121499413533410e+01 0 0 1
458 1 2.3450194917999996e+00 1.4360435789661083e+00 1.9718694682014931e+01 -1 -1 0
2230 1 8.4595740576674636e+00 5.0708601239231141e+00 2.3515203891499915e+01 3 0 1
1882 1 4.2610453543924178e+00 2.3225372804299951e+01 2.3521483832943503e+01 2 -2 0
551 1 4.8248582781323659e+00 2.2888826926072872e+00 2.0488555172033902e+01 1 -1 1
6423 1 8.3663870077967015e+00 2.2024853445601330e+01 2.3568444410465890e+01 4 2 1
3613 1 6.4245574909103462e+00 1.6542825134733107e+01 2.3750905625090411e+01 1 0 0
1580 1 1.0318707308885996e+01 3.6085689164411492e+00 2.0145155802719962e+01 0 -1 1
242 1 8.8486664802427253e+00 1.5024343688121324e+00 2.0967546808916914e+01 -1 -1 0
4743 1 6.4529093445664198e-01 1.0415916179339709e+01 1.7646327838679145e+01 1 1 1
3441 1 1.4424345544800948e+01 2.5707418875698735e+00 2.0296445429386601e+01 -2 -2 0
3476 1 5.9114708288080129e+00 2.1237315265350944e+01 2.0042228071873108e+01 1 -1 1
266 1 1.7674483837912718e+00 5.9496373225319594e+00 2.0296534285317495e+01 3 -2 0
158 1 4.4262927968198094e+00 6.4390632034945368e+00 2.0903858412737431e+01 -2 0 0
6611 1 6.3319556874324849e+00 4.5924313918501127e+00 1.9881898123742090e+01 2 4 0
5120 1 4.8253047745853967e+00 2.7562940564732612e+00 2.3580345409525698e+01 -1 -1 0
1359 1 1.6461725006661382e+01 7.2194732898745384e-01 1.3729856991951923e+01 2 0 1
3340 1 8.5673928777527077e+00 5.5270706065493327e+00 2.0936164128521394e+01 5 0 1
1794 1 9.2728621318992666e+00 8.0223007190729660e+00 2.0229815165333711e+01 2 1 1
1660 1 1.2647819952846310e+01 4.3779910280394621e+00 2.1356804037235214e+01 -2 1 1
2268 1 8.2710518449536252e+00 2.1942840780687433e+01 2.1148160880330874e+01 2 1 0
4868 1 1.5621762023757036e+01 7.6980780632551680e+00 2.0794093954798612e+01 0 2 1
5447 1 1.3162109243667370e+01 6.8913793147672573e+00 1.9899390857787875e+01 -3 2 0
6499 1 1.3205397508863319e+01 2.3527864297647998e+01 2.0289089768587221e+01 2 4 1
4780 1 1.5728563335409286e+01 2.4105355922108682e+01 2.0963622891433907e+01 2 0 1
3452 1 3.0805091537411058e+00 1.1110543210845968e+01 2.0451540732007924e+01 0 1 1
2277 1 5.3413299020863674e+00 8.9648941920597842e+00 2.0560097006285268e+01 0 0 1
3827 1 7.7524358163700677e+00 1.0023854757463717e+01 2.1158339167077077e+01 -3 1 1
4716 1 6.8077102653627195e+00 3.6777119829328608e-01 2.0102216401402426e+01 2 1 1
6676 1 1.1547260337718775e+01 8.8955413785085131e+00 2.0702282805391214e+01 1 0 1
5519 1 1.2080893526383722e+01 1.1523698520964642e+01 2.0156310417313609e+01 1 1 0
4984 1 1.4487144228758387e+01 1.2493588820277973e+01 2.0734398698941643e+01 1 0 1
3743 1 3.5134131089823666e+00 1.4288252741335320e+01 2.0774402584414599e+01 -3 2 0
1523 1 1.4128308440110611e+00 1.6065279374201300e+01 2.1421620723460350e+01 2 2 0
2192 1 7.5608505393642993e+00 1.2508316908215708e+01 2.0024917938310448e+01 0 3 0
1590 1 6.0596909663526324e+00 1.4638341051894040e+01 2.1496024726319380e+01 -3 0 1
6591 1 1.0889637675403225e+01 1.5671254760234074e+01 2.0441738888659980e+01 0 1 1
5321 1 1.0051640199768940e+01 1.3109735423698238e+01 2.1162114819882248e+01 0 1 0
1792 1 1.6218910883963115e+01 1.0500249492240938e+01 2.0284404552205832e+01 -3 2 0
1652 1 1.5173303532976478e+01 1.4903115689884380e+01 1.9977844305533022e+01 1 1 1
5066 1 1.7896244842524716e+00 2.1943364885118907e+01 2.3827841992412406e+01 1 0 0
244 1 2.4368120263130404e+00 1.8032753935064800e+01 2.0138078428777362e+01 1 -3 0
1574 1 1.4406346160084462e+01 4.9026102938882747e+00 2.3659969044582091e+01 0 1 1
5213 1 1.6111360583671065e+01 1.7199593949615682e+01 1.6721274467801180e+01 0 -4 1
5345 1 5.0214506342029077e+00 1.8800416547048332e+01 2.3583152658804952e+01 2 2 0
1973 1 6.9232834277323123e+00 1.7099776821642308e+01 2.0106193640984102e+01 0 2 0
3383 1 4.9463073363359902e+00 1.8830847581049632e+01 2.0939596615127726e+01 0 2 0
1743 1 1.6043747041805311e+01 1.7012551848467570e+01 1.4113477410155093e+01 0 -1 1
3908 1 1.0073573577256148e+01 2.0017542112510675e+01 2.0205235961248373e+01 2 1 0
5288 1 9.2253174035415704e+00 1.7820313384845345e+01 2.0915597808953464e+01 0 1 1
2344 1 1.4029912656548715e+01 1.9346362940899294e+01 2.0330799464112467e+01 -2 1 1
364 1 4.2808276900522785e-01 1.0340263585683081e+01 2.0428014547185473e+01 0 -1 0
3647 1 1.3519843599695784e+01 1.6803238489954698e+01 2.1041376456084528e+01 1 2 0
2304 1 4.1273915547683426e+00 2.2913233405864617e+01 2.0921832956968199e+01 0 -1 1
6568 1 1.4291756560839737e+00 2.2142734010553266e+01 2.0549596932688061e+01 0 2 1
3183 1 1.2389284604063663e+01 2.1337883568736110e+01 2.1378180892107057e+01 1 0 1
6665 1 1.3819543332344287e+01 1.2349799404991476e+01 2.3412320136358808e+01 -2 0 0
24 1 9.1675743826683362e+00 1.7358312189793544e+01 2.3590710438080031e+01 3 0 1
6361 1 9.4289314235019610e+00 1.0531052021922035e+01 2.3511746986996172e+01 -1 -2 1
3778 1 8.9618780986718320e+00 2.4306440224035516e+01 2.0282469012259327e+01 -2 -2 0
5237 1 1.3909771376853271e+01 3.0019753325736787e-01 1.2802188188247611e+01 2 -3 0
6551 1 8.9177834747970568e+00 2.4330477982678012e+01 1.7557814857723468e+01 0 -2 1
3309 1 2.4582355693160358e+00 2.4496586497369481e+01 1.3957071588717101e+01 -1 2 0
4847 1 1.3078471521721678e+01 1.6314212718967216e+01 2.3648842962645055e+01 1 0 1
6449 1 1.3389727989324827e+01 2.8436446505480006e-01 2.3627948215704919e+01 3 3 1
4782 1 1.1479098077425103e+01 8.4746412260218147e+00 2.3294966484290839e+01 -2 3 1
5330 1 8.9716048783966311e+00 2.1720462156536646e+00 2.3655405131489189e+01 1 1 0
202 1 1.2579309054622986e+01 2.1104051246434619e+01 2.3774085655100503e+01 0 1 0
623 2 2.7501418458584226e-01 3.0838567830447978e+00 2.6748979514297684e+01 0 0 0
625 2 2.7501418458584226e-01 2.7389466079333857e-01 2.6748979514297684e+01 0 0 0
627 2 1.4917634753566869e+00 9.7638519135643453e-01 2.6748979514297684e+01 0 0 0
634 2 1.4917634753566869e+00 2.3813662524819623e+00 2.6748979514297684e+01 0 0 0
636 2 2.7085127661275314e+00 3.0838567830447978e+00 2.6748979514297684e+01 0 0 0
638 2 2.7085127661275314e+00 2.7389466079333857e-01 2.6748979514297684e+01 0 0 0
640 2 3.9252620568968619e+00 9.7638519135643453e-01 2.6748979514297684e+01 0 0 0
655 2 3.9252620568968619e+00 2.3813662524819623e+00 2.6748979514297684e+01 0 0 0
349 1 1.3774745477330740e+01 9.3557690095373633e+00 2.4194664789286534e+01 -1 0 0
657 2 5.1420113476692206e+00 3.0838567830447978e+00 2.6748979514297684e+01 0 0 0
659 2 5.1420113476692206e+00 2.7389466079333857e-01 2.6748979514297684e+01 0 0 0
661 2 6.3587606384383779e+00 9.7638519135643453e-01 2.6748979514297684e+01 0 0 0
684 2 6.3587606384383779e+00 2.3813662524819623e+00 2.6748979514297684e+01 0 0 0
686 2 7.5755099292078816e+00 3.0838567830447978e+00 2.6748979514297684e+01 0 0 0
688 2 7.5755099292078816e+00 2.7389466079333857e-01 2.6748979514297684e+01 0 0 0
1607 1 6.5605854371871137e+00 9.6326684875578095e-01 2.4266924247346417e+01 1 0 1
690 2 8.7922592199764136e+00 9.7638519135643453e-01 2.6748979514297684e+01 0 0 0
721 2 8.7922592199764136e+00 2.3813662524819623e+00 2.6748979514297684e+01 0 0 0
723 2 1.0009008510752599e+01 3.0838567830447978e+00 2.6748979514297684e+01 0 0 0
725 2 1.0009008510752599e+01 2.7389466079333857e-01 2.6748979514297684e+01 0 0 0
727 2 1.1225757801517329e+01 9.7638519135643453e-01 2.6748979514297684e+01 0 0 0
766 2 1.1225757801517329e+01 2.3813662524819623e+00 2.6748979514297684e+01 0 0 0
768 2 1.2442507092290914e+01 3.0838567830447978e+00 2.6748979514297684e+01 0 0 0
770 2 1.2442507092290914e+01 2.7389466079333857e-01 2.6748979514297684e+01 0 0 0
772 2 1.3659256383060415e+01 9.7638519135643453e-01 2.6748979514297684e+01 0 0 0
813 2 1.3659256383060415e+01 2.3813662524819623e+00 2.6748979514297684e+01 0 0 0
815 2 1.4876005673829921e+01 3.0838567830447978e+00 2.6748979514297684e+01 0 0 0
817 2 1.4876005673829921e+01 2.7389466079333857e-01 2.6748979514297684e+01 0 0 0
819 2 1.6092754964596693e+01 9.7638519135643453e-01 2.6748979514297684e+01 0 0 0
860 2 1.6092754964596693e+01 2.3813662524819623e+00 2.6748979514297684e+01 0 0 0
628 2 2.7501418458584226e-01 7.2987999664212504e+00 2.6748979514297684e+01 0 0 0
630 2 2.7501418458584226e-01 4.4888378441705861e+00 2.6748979514297684e+01 0 0 0
632 2 1.4917634753566869e+00 5.1913283747340673e+00 2.6748979514297684e+01 0 0 0
647 2 1.4917634753566869e+00 6.5963094358583909e+00 2.6748979514297684e+01 0 0 0
649 2 2.7085127661275314e+00 7.2987999664212504e+00 2.6748979514297684e+01 0 0 0
651 2 2.7085127661275314e+00 4.4888378441705861e+00 2.6748979514297684e+01 0 0 0
653 2 3.9252620568968619e+00 5.1913283747340673e+00 2.6748979514297684e+01 0 0 0
676 2 3.9252620568968619e+00 6.5963094358583909e+00 2.6748979514297684e+01 0 0 0
678 2 5.1420113476692206e+00 7.2987999664212504e+00 2.6748979514297684e+01 0 0 0
680 2 5.1420113476692206e+00 4.4888378441705861e+00 2.6748979514297684e+01 0 0 0
682 2 6.3587606384383779e+00 5.1913283747340673e+00 2.6748979514297684e+01 0 0 0
713 2 6.3587606384383779e+00 6.5963094358583909e+00 2.6748979514297684e+01 0 0 0
715 2 7.5755099292078816e+00 7.2987999664212504e+00 2.6748979514297684e+01 0 0 0
717 2 7.5755099292078816e+00 4.4888378441705861e+00 2.6748979514297684e+01 0 0 0
1117 2 1.6092754964596693e+01 2.2051101108240236e+01 3.3313020485689748e+01 0 0 0
719 2 8.7922592199764136e+00 5.1913283747340673e+00 2.6748979514297684e+01 0 0 0
758 2 8.7922592199764136e+00 6.5963094358583909e+00 2.6748979514297684e+01 0 0 0
760 2 1.0009008510752599e+01 7.2987999664212504e+00 2.6748979514297684e+01 0 0 0
762 2 1.0009008510752599e+01 4.4888378441705861e+00 2.6748979514297684e+01 0 0 0