LAMMPS data file via write_data, version 16 Mar 2018, timestep = 100000

6768 atoms
2 atom types

0.0000000000000000e+00 4.9219999999999999e+01 xlo xhi
0.0000000000000000e+00 4.9019635930410494e+01 ylo yhi
-2.5200040318949135e-01 6.0314000403190363e+01 zlo zhi

Masses

1 18.015
2 12.01

Atoms # atomic

408 1 1.0685719224027896e+00 1.6272358355190559e+00 4.2791668312258553e+00 -1 0 1
6376 1 5.6832132444695906e+00 1.6944253555175890e+00 4.4201902294164395e+00 1 0 1
6410 1 9.6757685932671311e+00 2.7148747776545892e+00 2.3152227688783840e+00 1 1 1
352 1 7.0165781945391430e+00 2.6477803456666589e+00 1.9189239885417599e+00 1 0 0
232 1 1.6696995128482739e+00 8.4670836338929991e+00 7.8771942908473687e+00 2 -1 0
2060 1 7.0090410095871416e+00 2.4153983331724685e+01 4.9771602056246778e+00 0 0 0
1640 1 2.7087674531192372e+00 7.7965354180836632e+00 1.8454623360556077e+00 0 1 0
1370 1 1.7489605095139333e+00 6.8690262867040452e+00 1.0684000479482469e+01 0 1 1
1322 1 6.2892471657257012e+00 5.5394641696014135e+00 1.3541378263908677e+00 2 1 1
6436 1 3.8854986043890629e+00 6.0846945729753870e+00 3.0972270096582459e+00 -1 0 1
5692 1 1.1364348461745760e+01 2.2164426031087697e+01 5.6497715084525870e+00 0 0 1
5585 1 8.9713313171210327e+00 5.5386797346167898e+00 2.8148813680411968e+00 2 -2 1
4906 1 1.1591586950349340e+01 8.5043089849533633e+00 7.8435433497639995e-01 1 0 1
1361 1 4.1409328586839260e+00 1.1204328158857052e+01 1.1040038973075885e+00 0 -1 1
321 1 3.3895236092858663e+00 9.6168488986639051e+00 3.7330573791662052e+00 0 0 0
3828 1 6.9068661415976651e+00 1.1802954394642901e+01 1.4801929761330588e+00 0 0 0
5054 1 1.1375749232673305e+01 2.3279843696323162e+01 1.0822361276752757e+00 0 -1 1
3366 1 1.0089192313549333e+01 1.1944954902237678e+01 4.7860890309199267e+00 -1 0 0
5485 1 1.1169228931068511e+00 3.9234290040856243e+00 7.8112263832482469e+00 0 1 1
2343 1 5.6387810795339846e+00 1.8258857609225995e+01 9.5874650154352743e+00 0 0 1
3661 1 2.2072890985685474e+00 1.5245620631478744e+01 2.1430848385889703e+00 -1 0 0
5351 1 1.0055477098791707e+01 7.0422144459575362e+00 1.1574510398013487e+01 1 1 0
1842 1 9.3363003976497208e+00 2.0522258515599958e+01 1.0466868770269176e+01 0 0 0
1687 1 6.8524898904841907e+00 1.6919491340618958e+01 2.4481681326115012e+00 0 1 1
3247 1 4.1030019675737170e+00 1.7616183502281810e+01 2.1145433816210444e+00 0 1 1
1426 1 1.1550575257488434e+01 1.2151726722378767e+01 8.2601507922941231e-01 1 -1 1
203 1 1.1452188644527366e+01 1.4680310678521224e+01 2.0081207822139326e+00 1 0 0
2019 1 3.2136173755042901e+00 7.9091429674716318e-01 1.7847728749779019e+00 0 3 0
3084 1 2.1908622079318012e+00 1.9983589828933777e+01 5.1327725012298464e-01 1 1 1
154 1 3.1255396070408281e+00 3.5533043208424036e+00 1.0698011349996679e+00 1 0 0
1318 1 9.8718886616259436e+00 1.6627684510460487e+01 9.2641592377771929e+00 0 0 1
5407 1 6.7641814730552516e+00 1.4248953236403715e+01 2.5487401797579201e+00 1 1 0
614 1 9.6579431545153547e+00 1.7528878133666890e+01 3.5006271619360403e+00 1 0 0
3505 1 6.4291562846448902e-01 2.1619978205435441e+01 1.0713111722676492e+01 1 1 1
3830 1 2.9344182449201019e+00 2.1223208741930812e+01 2.8972995346222179e+00 0 0 0
5574 1 5.5273004281034650e+00 1.6603560910648483e+01 5.9445578503323686e+00 1 0 0
5459 1 4.8603110794335755e+00 2.2525593939464333e+01 1.5776260923191270e+00 1 0 0
142 1 6.8527828754851505e+00 2.1163982368509650e+01 8.6381393151047936e-01 0 0 0
1637 1 1.0715579202257125e+01 2.1011571750968109e+01 2.9397289780618676e+00 1 -1 1
2073 1 7.9276018577967076e+00 2.0077421195049229e+01 3.0308120111186070e+00 0 0 0
2122 1 3.3018848526177074e+00 1.9379693860258091e+00 7.2586592659269291e+00 1 -1 1
3856 1 8.2562189748466270e+00 1.7920281384037782e+01 1.0603201611531665e+01 -1 0 0
5047 1 9.0409784727947926e+00 2.9086285466164452e+00 6.0720683591019347e+00 0 0 1
5199 1 6.7100986070223900e+00 1.1247804528835259e+00 7.2180850108018335e+00 0 -1 0
388 1 1.0266640565963861e+01 7.0256610987721801e-01 4.2434306470981067e+00 1 0 0
3386 1 9.0952218289896560e+00 1.0660086293105289e+00 9.0932328273000298e+00 0 1 1
1575 1 3.3445014280116907e+00 2.9313529672240421e+00 4.6277981296967958e+00 1 0 1
1586 1 1.1905599438599358e+01 1.9736750339368594e+00 6.2248046237389199e+00 1 0 1
2054 1 2.3609347141320924e+00 5.8263237094204285e+00 5.7149197674639138e+00 1 1 0
3780 1 4.6286946928484278e+00 6.1887362113091839e+00 6.8395275705766734e+00 1 0 0
5023 1 8.5840330677060575e+00 5.4029696470413384e+00 5.4628096163349662e+00 -1 1 0
3803 1 6.0095498254971629e+00 6.8037932530636658e+00 4.7594261395316186e+00 0 -1 0
6740 1 1.0796013543631371e+01 6.9457954865059550e+00 5.9094963281669735e+00 0 1 1
6687 1 6.7287894939100852e+00 2.1187467793754781e+01 9.2122759901066864e+00 -1 -1 1
5685 1 9.9299947665820709e-01 1.1196484687104970e+01 4.3513698995016554e+00 0 1 1
3653 1 6.8328074652923361e+00 9.7484393017184949e+00 3.8080767972406147e+00 1 0 0
3419 1 4.4346313196622544e+00 1.0726234206330815e+01 6.1235229576159673e+00 1 2 0
3751 1 3.5014236850078684e-01 1.7129139527023643e+01 2.8113338055911141e+00 1 0 0
17 1 1.1454842281288583e+01 1.0129720756692352e+01 2.9892914811251008e+00 0 0 0
3465 1 8.2627620156552428e+00 1.0832907198531403e+01 5.8560780975613813e+00 2 1 0
3844 1 8.3139239385808017e-01 1.4568261141662152e+01 6.3455274638813153e+00 1 0 0
1486 1 2.6373007478435646e+00 1.3735847983694127e+01 4.2884924724659008e+00 -1 1 1
6501 1 9.2921247007792473e+00 1.4351886184445812e+01 3.7661445534131364e+00 0 0 1
5706 1 5.1955456637700896e+00 1.4300064470276277e+01 4.9240299001470165e+00 1 2 0
4811 1 5.2061728048097944e+00 1.3010475227697679e+01 7.2754677237876626e+00 1 0 1
5617 1 9.4818805921423515e+00 1.4286944608069403e+01 8.1643890800883909e+00 0 1 0
3353 1 1.1540608015817048e+01 1.2959448778721388e+01 6.9007975477442889e+00 0 0 1
2226 1 4.0316661290474443e+00 1.8901786543082462e+01 4.5464145382913372e+00 -1 1 1
3627 1 1.2544708053909757e+00 1.8326858967100460e+01 5.0027420818896546e+00 0 0 0
1401 1 8.5638260386011549e+00 1.6214967038490094e+01 5.8434807409461662e+00 0 1 1
2222 1 1.1143450495365983e+01 1.3417788346629075e+01 1.1124168153003499e+01 1 1 0
3581 1 7.5973666317572590e+00 2.4175134461681022e+01 8.8521404840135816e+00 1 0 0
3818 1 1.0778004598778804e+01 1.8468389899487853e+01 7.4021480106138888e+00 0 1 0
6356 1 2.6677942035211499e+00 2.2829994149749890e+01 4.8850371164689763e+00 1 -1 1
6675 1 4.0038129552559711e+00 2.2636073449788157e+01 7.2786398521299507e+00 1 0 1
1587 1 5.4077952449845048e+00 2.0048852623697179e+01 7.0740436274443477e+00 0 0 1
3804 1 7.3900462924857768e+00 2.1282854009730535e+01 5.4865539663964267e+00 1 1 0
6447 1 6.8796890357325324e+00 1.2785854923608200e+01 1.1206250173417718e+01 0 0 1
1559 1 3.3667687957247439e-01 7.0074130762125924e+00 1.9555996862199381e+00 0 -1 1
3501 1 9.2126118823996528e+00 2.0854617633927692e+01 7.1120320738487086e+00 1 1 0
3522 1 1.8363249272628457e+00 2.4999948982749660e+00 1.0695448351830640e+01 0 0 1
104 1 5.1883371968310685e+00 2.0992657818781764e+00 9.2486681549359133e+00 -1 1 0
5412 1 3.5209151161643879e+00 1.1002420971692302e-01 1.0472330041483294e+01 0 1 0
377 1 1.2047063837913328e+01 1.0360172913206695e+01 8.0703518050404810e+00 0 0 0
1483 1 9.2546140167959194e+00 3.9138937569731067e+00 9.4413500045124312e+00 0 1 1
6738 1 2.6923932834939626e+00 2.3326813933977196e+01 9.4437911803034691e+00 0 1 0
2246 1 5.4573284141576184e-01 4.4617796319328464e+00 7.8496789781041953e-01 0 2 0
6631 1 7.3235120266446962e-01 1.9070147847858092e+01 1.1285527280508717e+01 2 1 1
2041 1 4.9209019423530638e+00 4.6884190179793297e+00 9.2417938738103622e+00 0 1 0
5174 1 7.4457960209765828e+00 5.6074037682445947e+00 8.3318976425088120e+00 0 1 1
3709 1 8.3133613324166404e+00 7.9750979130222159e+00 9.4371974891452624e+00 1 0 0
4767 1 1.1506142569354262e+01 4.6277711492117097e+00 7.5261816805301516e+00 0 1 1
5249 1 1.1956849858257529e+01 5.3602009191976707e-01 1.1142525977053522e+01 -1 2 0
3097 1 4.4546398257143582e-01 1.0521693876502386e+01 9.6603166123570468e+00 0 1 1
4719 1 4.4242209575122109e+00 8.8313455779253083e+00 1.0952111308666325e+01 0 1 1
6566 1 3.5246335088263497e-01 2.1051041913085051e+01 5.7371805924024200e+00 1 0 1
397 1 4.2844066806205987e+00 8.6834942132248631e+00 7.8826237243491750e+00 1 0 0
200 1 1.2263037980569655e+01 8.4892577723831053e+00 1.0661854093605342e+01 -1 1 0
5397 1 9.6069263509389131e+00 8.9316135654421327e+00 7.1996052608208512e+00 1 1 0
4787 1 9.1293752302143227e-01 1.3053867716283465e+01 8.6611096356561941e+00 1 -1 1
2032 1 3.3314856014149190e+00 1.4141940120989293e+01 8.9526578801671857e+00 0 1 0
3900 1 1.1744629076153519e+01 6.1529555842050350e+00 2.1156400963896469e+00 1 1 0
1654 1 1.0310968374091930e+01 1.6450520648496163e+01 -9.5052015994222278e-02 0 0 1
2167 1 8.9781282063118208e+00 1.2372944711654046e+01 -1.7976444558798363e-01 -1 0 0
6451 1 7.6279870948036548e+00 1.2414262502148448e+01 8.4838687368282759e+00 0 0 1
3338 1 2.0467562881028032e+00 1.3232581771113216e+01 2.8074833699565604e-01 -1 1 1
1636 1 3.7251479231770612e+00 1.6728930014405488e+01 8.0276338772838454e+00 1 1 1
1843 1 1.0755475107955601e+00 1.7070945568836898e+01 7.2538792814153119e+00 0 0 0
3525 1 1.1859488554830891e+01 1.9979036086043763e+01 1.0492201939903799e+01 1 1 0
2025 1 6.9901860643691194e+00 9.5790251194853226e+00 1.1002699845274554e+01 0 1 0
5657 1 5.0358795455397019e+00 1.9178740943322747e+01 -1.1201960160298705e-01 0 0 1
3201 1 3.1994475454971352e+00 4.7370701085876945e+00 1.1218632152974060e+01 -1 0 1
5365 1 4.2202812195196522e+00 1.3488798927764119e+01 1.1449933417664552e+01 1 0 0
4796 1 7.5418249334815641e+00 1.5473632336182035e+00 1.1427038881833946e+01 1 0 1
1660 1 4.3987716210621066e+00 2.2418101824633396e+01 1.1792618566984821e+01 0 1 1
4894 1 3.2154874160131031e+00 1.8281747297848955e+01 1.1309645718115194e+01 1 2 1
3096 1 6.7847862951713012e+00 2.3448463972835512e+01 1.1675376636603106e+01 -1 -1 1
4945 1 7.5102362613944393e+00 1.7584937596413873e+01 5.4213596435514932e-02 1 2 1
3519 1 1.2269460625727957e+01 5.1681163690012899e-01 8.3655144789831137e+00 1 1 0
512 1 1.2295323547326928e+01 4.2285988942259722e+00 -2.4123169516069434e-01 -1 0 1
3738 1 8.7174618300305998e-02 2.3214485200354396e+01 1.2778928835387207e+01 1 -1 0
6418 1 1.2338927888427507e+00 1.5107834460266705e+00 1.6018597769926071e+01 1 0 1
3811 1 9.1138930057020087e+00 2.3688242474028389e+01 1.6230612489217052e+01 -1 -1 0
6757 1 6.5815270926101155e+00 2.2454025918252309e+00 1.4194299404660082e+01 2 1 1
3214 1 1.0117423125493419e+01 1.3747107560960312e+00 1.2829361053099094e+01 2 1 1
1327 1 1.1154573328836960e+01 2.2527625236269856e+01 1.7879315786898118e+01 0 -1 1
5299 1 5.4254838165165964e-01 1.0024577284172128e+01 2.3488800851169351e+01 1 2 0
216 1 3.4661380345316752e+00 7.4514226237579928e+00 1.4919225077691772e+01 0 0 0
3391 1 1.1597127413334743e+01 6.6748637374278754e+00 1.6734410680060339e+01 -1 1 1
2128 1 3.4058159584082315e+00 4.9012554266902395e+00 1.6423933519483704e+01 1 0 0
1547 1 4.2449858015365303e+00 3.7860492822075429e+00 1.3802360010949945e+01 1 0 1
4778 1 4.9301576274745749e+00 6.6036950886406416e+00 1.2998934027103324e+01 0 1 1
5347 1 7.0925673456914149e+00 7.1126597477717430e+00 1.4530502035407368e+01 2 0 0
6649 1 9.5917950816849089e+00 2.4477489477492327e+01 1.3686877538195903e+01 -1 0 1
6709 1 9.3206358147465611e+00 4.4485278553720446e+00 1.2279932708767829e+01 1 1 0
3418 1 3.7515365980421467e+00 1.0810681364146919e+01 1.2542303934944506e+01 2 -1 0
1409 1 4.5476145873515268e+00 1.0337723661682739e+01 1.5371623324393134e+01 -1 0 1
1570 1 8.4543687176074425e+00 8.7301340120334032e+00 1.3223998246722742e+01 1 1 1
3306 1 1.0968907015253329e+01 1.5782828929321237e+01 1.6702302530402307e+01 0 2 1
3564 1 9.3747373184275873e-01 1.8832919277465873e+01 2.3702619252734774e+01 0 -1 1
2104 1 3.3678541591090299e+00 1.5689277775397686e+01 1.2948754126993059e+01 0 0 1
6457 1 1.1867898801804412e+01 5.4047332295557027e+00 1.4186995653453502e+01 0 0 1
6748 1 8.7021313539763749e+00 1.4234843851394581e+01 1.2569441925843776e+01 2 2 1
3805 1 1.2211551972238151e+01 2.3746767865155864e+01 1.3346652263808680e+01 1 -1 0
5473 1 2.6676764242780200e+00 1.0659886315873511e+01 2.2219701274660782e+01 0 1 0
3392 1 1.6270622061069360e+00 2.4404904575109185e+00 1.3579209765804320e+01 1 0 1
2001 1 5.8477068065413631e+00 1.7566363207250063e+01 1.6756461275175756e+01 -1 -1 0
238 1 6.7780054128043536e+00 1.8932117228268545e+01 1.4384705127905530e+01 0 0 0
3444 1 1.1012840567735009e+00 1.0518229204721949e+01 1.2241119709179783e+01 0 1 0
3842 1 8.2718050532963314e+00 1.7160448653305718e+01 1.3110594394683210e+01 1 -1 0
5222 1 4.4140778314436284e+00 1.9797580131234135e+01 1.3101753515025090e+01 1 0 1
6513 1 1.0976191291704904e+01 1.5712570132328400e+01 1.3967040354977215e+01 -1 0 1
1567 1 8.5149441639528209e+00 2.4076811835930734e+01 2.0782808246521352e+01 0 -1 1
1581 1 1.1444168167408999e+00 7.9768427130422488e+00 1.3034806209794768e+01 3 0 1
6737 1 9.7208948010735945e+00 1.5982686078498546e+01 2.3321280482700686e+01 -1 2 0
3128 1 8.6331891716426110e+00 2.1981712641740437e+01 1.2827808586982574e+01 0 0 0
3076 1 9.1615857596724677e+00 1.1900030465972071e+01 2.2631534705456964e+01 2 1 1
1908 1 3.8657430909951556e+00 1.9097150948396909e+01 2.3624049348844505e+01 0 0 0
597 1 1.0655619480472581e+01 1.5987362080492927e+01 2.0581915364946408e+01 0 0 1
1872 1 1.9791871257668976e+00 3.9782291139852157e+00 1.8156395116946509e+01 1 0 0
210 1 2.5406400621392193e+00 2.3872253857061551e+01 1.3484048124379946e+01 0 0 0
5342 1 9.9567983792550478e+00 6.5774036936864422e-01 2.3110072136667448e+01 0 1 0
1903 1 6.2103205663577450e+00 4.2495354853281668e+00 1.7492558097982574e+01 0 0 0
1502 1 6.6613317230818065e+00 1.7283798379434325e+00 1.6984332251330386e+01 0 1 1
3925 1 9.4433064256410866e+00 1.6915030330847483e+00 1.7501881811654542e+01 1 0 1
6705 1 9.8412976349801351e+00 1.9977838446773092e+01 2.0069609532815331e+01 0 0 1
2053 1 8.2960278268840177e+00 4.7741227701303597e+00 1.5064620601287142e+01 0 0 0
2076 1 8.8457488931448829e+00 5.8174692793676064e+00 1.9193931540884329e+01 0 1 0
4819 1 7.8868837159620533e+00 8.1667339489554625e+00 1.8885067879076118e+01 -1 0 1
3217 1 9.9853490061969374e+00 4.3409339682710195e+00 1.7165377652277026e+01 0 -1 1
235 1 9.6930284213291049e+00 5.4153186310244603e+00 2.3585474219338703e+01 0 0 0
2300 1 2.6199348144330847e+00 1.0028261383599123e+01 1.7258078480635053e+01 0 1 1
5276 1 2.1015507912856526e+00 1.2694363253908421e+01 1.8245557056797864e+01 1 0 0
2123 1 6.7312153627561875e+00 8.9138061562215469e+00 1.6697384899806231e+01 0 1 0
1373 1 6.3337616463320785e+00 1.1967645047999913e+01 1.6995475416635792e+01 0 1 1
3634 1 1.1396840678699293e+01 9.5478493847917782e+00 1.6743398802983851e+01 0 1 0
2008 1 1.0213925541157440e+01 1.0349441754530275e+01 1.4605111150614304e+01 3 0 0
2031 1 9.8723371934289244e+00 9.6288145836890937e+00 1.8882704990410506e+01 0 0 0
1692 1 3.8473776081705915e+00 1.6080935293009944e+01 1.5920081513943916e+01 3 1 1
5325 1 1.8755360704973305e+00 1.7236052698505087e+01 1.7171393209553756e+01 1 1 0
5091 1 4.3718480705070695e+00 1.3853855126737622e+01 1.7460945285977051e+01 1 0 1
2315 1 8.9582659244080265e+00 1.2554454064019408e+01 1.5303671356195885e+01 1 1 1
532 1 1.1037105548311779e+01 1.3050523410365280e+01 1.7272662678562760e+01 -1 0 0
3651 1 9.8900622633618263e-01 1.9211522344164340e+01 1.5796604967014400e+01 2 0 0
2119 1 3.1872424100634298e+00 2.0505990076954276e+01 1.5489286508558557e+01 0 1 0
3540 1 6.5906971791143523e+00 1.6924567676039196e+01 1.9219533135758354e+01 1 -1 0
3413 1 4.6156985662544487e+00 1.8526236354326429e+01 2.0579396884327839e+01 1 -1 0
254 1 9.4292680232152826e+00 1.7354666800785530e+01 1.8472758742168974e+01 1 0 0
1597 1 1.0757418779528562e+01 1.9729278423268568e+01 1.7161444076163153e+01 1 0 1
1867 1 1.1986984022511349e+01 1.7535362160627141e+01 1.2215752804892965e+01 0 -1 0
6660 1 2.9058341897301858e+00 2.3118997852940691e+01 1.5970250506328028e+01 1 -1 1
6624 1 7.7100949800032836e+00 2.1867087737507635e+01 1.9701715802319050e+01 1 0 0
3820 1 8.7040996890989888e+00 2.0722295247330184e+01 1.5384994202128627e+01 1 0 0
1682 1 4.9001037755293790e+00 2.0037266652539987e+01 1.7733319423818457e+01 0 0 1
304 1 6.5337745153924960e+00 2.2265587800499798e+01 1.7289116749508949e+01 -1 0 0
5126 1 2.9665226805961602e+00 2.3584895002983721e+01 2.1451641085133765e+01 0 1 0
1519 1 2.0963960955592092e-01 1.5537847638418755e+01 1.2885702624664390e+01 -1 1 1
5502 1 3.3059356473206529e+00 3.3094409649057779e+00 2.0586180526297333e+01 -1 1 0
5316 1 5.4851842744285273e+00 1.5215324995700008e-01 2.3513343957615689e+01 1 1 0
30 1 4.4510975481032657e+00 8.1017451551975095e-01 2.0896032008688803e+01 1 1 0
3960 1 7.2522276000633177e+00 1.9473143820873733e+00 2.0460554973386600e+01 0 0 1
3073 1 6.7539683969204098e+00 4.5556570975971686e+00 1.9998868364899693e+01 -1 1 1
5085 1 4.5644443058915884e+00 1.1446189514351737e+01 2.3726285923556137e+01 1 0 1
121 1 3.4483224618083290e+00 9.0039061429433200e+00 1.9854846325062940e+01 0 1 0
6467 1 4.1424802734217874e+00 6.0357290530751166e+00 2.1125360475103200e+01 0 1 1
3572 1 4.9342512101653719e+00 1.6467807737961589e+01 2.3779707957196198e+01 -1 0 1
5608 1 1.8564551134287779e+00 3.4717150741472942e+00 2.2918154241714628e+01 2 1 0
2244 1 1.0786836097201396e+01 6.1493247355536687e+00 2.0872936172034759e+01 0 2 1
1961 1 1.1766933243793021e+01 8.6562823626340215e+00 2.0972525600728979e+01 -1 1 0
3235 1 7.2410518316473285e+00 4.4155729227603917e+00 2.3029729930075813e+01 1 1 1
3654 1 1.3803525404999271e+00 7.0517902418580976e+00 2.1057721293367440e+01 1 0 1
3797 1 6.2906211135312571e+00 8.8654402544393403e+00 2.3298778474201765e+01 0 0 0
542 1 1.3920370488954703e+00 1.2678911926928961e+01 2.0851478872223971e+01 1 0 0
6692 1 1.3100241860388804e+00 2.3095936580867281e+01 1.8184948780349981e+01 2 -1 0
3887 1 6.3425269347950461e+00 9.5132505018621387e+00 2.0552829829787807e+01 0 2 0
4896 1 7.6168698377503175e+00 1.1762709958275337e+01 1.9808894367029200e+01 1 0 1
5597 1 1.0726162053692580e+01 9.6048412565800376e+00 2.3328974788357108e+01 0 -1 1
5253 1 5.5439347659944165e+00 2.1448497602892125e+01 2.1427551047867407e+01 0 0 0
253 1 7.6681051454121407e+00 1.7277266996627705e+00 2.3662541000651498e+01 1 1 0
53 1 7.2787600898808318e+00 2.1790739497616791e+01 2.3950828206160203e+01 1 0 0
339 1 3.4329186468996657e+00 1.4720395822628339e+01 2.1250981390903299e+01 0 0 0
3618 1 6.8193611894316009e+00 1.5376016870631906e+01 2.2499951655286445e+01 0 -1 0
2334 1 5.7971449808091444e+00 1.4475972741796774e+01 1.9996511051018619e+01 -1 0 1
1532 1 9.8164676057048403e+00 2.0174741329319644e+01 2.3209450336646753e+01 0 -1 1
5209 1 1.0691844980240258e+01 1.3049958662328317e+01 1.9913045108670399e+01 0 1 0
5603 1 9.9846156712950549e+00 6.4058524581658371e-01 2.0159606683742542e+01 2 2 1
1417 1 2.8775851926271652e+00 2.1247410553648837e+01 1.9522823135591292e+01 0 -1 1
3520 1 9.3281945740051597e-01 1.9093710783883214e+01 2.0981788116206989e+01 1 0 0
5349 1 1.9015251434034390e+00 1.6854894835187380e+01 1.9937318251828241e+01 1 0 0
3776 1 5.1701991014480253e+00 6.3439504377548062e+00 2.3564912242847377e+01 1 1 0
5004 1 7.4031188312226028e+00 1.8520901712565689e+01 2.2009083970285456e+01 1 -1 1
1313 1 1.1432167000405418e+01 2.2410577392064962e+01 2.3526735595788750e+01 -1 -1 1
3206 1 7.0513214836811926e+00 1.2659776952895294e+01 2.3938283858406514e+01 0 0 1
1783 1 4.9271760571793699e+00 2.4501042359322291e+01 1.7124223365325918e+01 0 0 0
623 2 0.0000000000000000e+00 2.8417180249513345e+00 2.6795918596106937e+01 0 0 0
625 2 0.0000000000000000e+00 0.0000000000000000e+00 2.6795918596106937e+01 0 0 0
627 2 1.2305000000000001e+00 7.1042950623783474e-01 2.6795918596106937e+01 0 0 0
634 2 1.2305000000000001e+00 2.1312885187134998e+00 2.6795918596106937e+01 0 0 0
636 2 2.4610000000000003e+00 2.8417180249513345e+00 2.6795918596106937e+01 0 0 0
638 2 2.4610000000000003e+00 0.0000000000000000e+00 2.6795918596106937e+01 0 0 0
640 2 3.6915000000000004e+00 7.1042950623783474e-01 2.6795918596106937e+01 0 0 0
655 2 3.6914999999999996e+00 2.1312885187134998e+00 2.6795918596106937e+01 0 0 0
6540 1 3.0689881047011158e+00 1.1926644830198283e+00 2.4303182837350825e+01 1 1 0
657 2 4.9220000000000006e+00 2.8417180249513332e+00 2.6795918596106937e+01 0 0 0
659 2 4.9220000000000006e+00 0.0000000000000000e+00 2.6795918596106937e+01 0 0 0
661 2 6.1524999999999999e+00 7.1042950623783407e-01 2.6795918596106937e+01 0 0 0
684 2 6.1524999999999999e+00 2.1312885187134989e+00 2.6795918596106937e+01 0 0 0
686 2 7.3829999999999991e+00 2.8417180249513345e+00 2.6795918596106937e+01 0 0 0
688 2 7.3829999999999991e+00 0.0000000000000000e+00 2.6795918596106937e+01 0 0 0
3500 1 6.6690865176949661e+00 1.6892176187610101e+01 3.5536740167884922e+01 0 0 0
690 2 8.6134999999999984e+00 7.1042950623783407e-01 2.6795918596106937e+01 0 0 0
721 2 8.6134999999999984e+00 2.1312885187135002e+00 2.6795918596106937e+01 0 0 0
723 2 9.8440000000000012e+00 2.8417180249513332e+00 2.6795918596106937e+01 0 0 0
725 2 9.8440000000000012e+00 0.0000000000000000e+00 2.6795918596106937e+01 0 0 0
727 2 1.1074500000000002e+01 7.1042950623783330e-01 2.6795918596106937e+01 0 0 0
766 2 1.1074500000000002e+01 2.1312885187135002e+00 2.6795918596106937e+01 0 0 0
1432 1 8.4257872564104002e+00 2.3930256596139056e+01 3.5535430551256077e+01 0 0 0
628 2 0.0000000000000000e+00 7.1042950623783341e+00 2.6795918596106937e+01 0 0 0
630 2 0.0000000000000000e+00 4.2625770374269996e+00 2.6795918596106937e+01 0 0 0
632 2 1.2305000000000001e+00 4.9730065436648339e+00 2.6795918596106937e+01 0 0 0
647 2 1.2305000000000001e+00 6.3938655561404980e+00 2.6795918596106937e+01 0 0 0
649 2 2.4610000000000003e+00 7.1042950623783341e+00 2.6795918596106937e+01 0 0 0
651 2 2.4610000000000003e+00 4.2625770374269996e+00 2.6795918596106937e+01 0 0 0
653 2 3.6914999999999996e+00 4.9730065436648339e+00 2.6795918596106937e+01 0 0 0
676 2 3.6914999999999996e+00 6.3938655561404980e+00 2.6795918596106937e+01 0 0 0
241 1 8.7002853180143678e+00 7.9485644149181516e+00 2.4447223865622625e+01 0 0 0
678 2 4.9220000000000006e+00 7.1042950623783341e+00 2.6795918596106937e+01 0 0 0
680 2 4.9220000000000006e+00 4.2625770374269978e+00 2.6795918596106937e+01 0 0 0
682 2 6.1524999999999999e+00 4.9730065436648339e+00 2.6795918596106937e+01 0 0 0
713 2 6.1524999999999999e+00 6.3938655561404980e+00 2.6795918596106937e+01 0 0 0
715 2 7.3830000000000009e+00 7.1042950623783341e+00 2.6795918596106937e+01 0 0 0
717 2 7.3829999999999991e+00 4.2625770374269996e+00 2.6795918596106937e+01 0 0 0
5487 1 5.2550196492649115e-01 1.4606392215478847e+01 2.4714142987459546e+01 0 0 0
719 2 8.6135000000000002e+00 4.9730065436648339e+00 2.6795918596106937e+01 0 0 0
758 2 8.6135000000000002e+00 6.3938655561404980e+00 2.6795918596106937e+01 0 0 0
760 2 9.8440000000000012e+00 7.1042950623783341e+00 2.6795918596106937e+01 0 0 0
762 2 9.8440000000000012e+00 4.2625770374270004e+00 2.6795918596106937e+01 0 0 0
764 2 1.1074500000000002e+01 4.9730065436648339e+00 2.6795918596106937e+01 0 0 0
805 2 1.1074500000000002e+01 6.3938655561404980e+00 2.6795918596106937e+01 0 0 0
4757 1 3.2975147519886181e+00 2.3799393653542474e+01 3.5864072195760855e+01 0 -1 0
641 2 0.0000000000000000e+00 1.1366872099805333e+01 2.6795918596106937e+01 0 0 0
643 2 0.0000000000000000e+00 8.5251540748539991e+00 2.6795918596106937e+01 0 0 0
645 2 1.2305000000000001e+00 9.2355835810918343e+00 2.6795918596106937e+01 0 0 0
668 2 1.2305000000000001e+00 1.0656442593567498e+01 2.6795918596106937e+01 0 0 0
670 2 2.4610000000000003e+00 1.1366872099805333e+01 2.6795918596106937e+01 0 0 0
672 2 2.4610000000000003e+00 8.5251540748539991e+00 2.6795918596106937e+01 0 0 0
674 2 3.6915000000000004e+00 9.2355835810918343e+00 2.6795918596106937e+01 0 0 0
705 2 3.6914999999999996e+00 1.0656442593567499e+01 2.6795918596106937e+01 0 0 0
533 1 2.4685344919682111e+00 5.6486064541862966e+00 2.4217804994325132e+01 0 0 1
707 2 4.9220000000000006e+00 1.1366872099805333e+01 2.6795918596106937e+01 0 0 0
709 2 4.9220000000000006e+00 8.5251540748539991e+00 2.6795918596106937e+01 0 0 0
711 2 6.1524999999999999e+00 9.2355835810918343e+00 2.6795918596106937e+01 0 0 0
750 2 6.1524999999999999e+00 1.0656442593567499e+01 2.6795918596106937e+01 0 0 0
752 2 7.3829999999999991e+00 1.1366872099805333e+01 2.6795918596106937e+01 0 0 0
754 2 7.3830000000000009e+00 8.5251540748539991e+00 2.6795918596106937e+01 0 0 0
265 1 9.3622737430303875e+00 8.5680228666295033e+00 3.5716870824598828e+01 0 1 -1
756 2 8.6134999999999984e+00 9.2355835810918343e+00 2.6795918596106937e+01 0 0 0
797 2 8.6134999999999984e+00 1.0656442593567498e+01 2.6795918596106937e+01 0 0 0
799 2 9.8440000000000012e+00 1.1366872099805333e+01 2.6795918596106937e+01 0 0 0
801 2 9.8440000000000012e+00 8.5251540748539956e+00 2.6795918596106937e+01 0 0 0
803 2 1.1074500000000002e+01 9.2355835810918343e+00 2.6795918596106937e+01 0 0 0
844 2 1.1074500000000002e+01 1.0656442593567498e+01 2.6795918596106937e+01 0 0 0
846 2 1.2304999999999998e+01 1.1366872099805333e+01 2.6795918596106937e+01 0 0 0
662 2 0.0000000000000000e+00 1.5629449137232333e+01 2.6795918596106937e+01 0 0 0
664 2 0.0000000000000000e+00 1.2787731112280996e+01 2.6795918596106937e+01 0 0 0
666 2 1.2305000000000001e+00 1.3498160618518829e+01 2.6795918596106937e+01 0 0 0
697 2 1.2305000000000001e+00 1.4919019630994494e+01 2.6795918596106937e+01 0 0 0
699 2 2.4610000000000003e+00 1.5629449137232328e+01 2.6795918596106937e+01 0 0 0
701 2 2.4610000000000003e+00 1.2787731112280996e+01 2.6795918596106937e+01 0 0 0
703 2 3.6915000000000004e+00 1.3498160618518829e+01 2.6795918596106937e+01 0 0 0
742 2 3.6915000000000004e+00 1.4919019630994494e+01 2.6795918596106937e+01 0 0 0
744 2 4.9220000000000006e+00 1.5629449137232333e+01 2.6795918596106937e+01 0 0 0
746 2 4.9220000000000006e+00 1.2787731112280996e+01 2.6795918596106937e+01 0 0 0
748 2 6.1524999999999990e+00 1.3498160618518829e+01 2.6795918596106937e+01 0 0 0
789 2 6.1524999999999990e+00 1.4919019630994494e+01 2.6795918596106937e+01 0 0 0
791 2 7.3829999999999991e+00 1.5629449137232333e+01 2.6795918596106937e+01 0 0 0
793 2 7.3829999999999991e+00 1.2787731112280996e+01 2.6795918596106937e+01 0 0 0
795 2 8.6135000000000002e+00 1.3498160618518835e+01 2.6795918596106937e+01 0 0 0
836 2 8.6135000000000002e+00 1.4919019630994494e+01 2.6795918596106937e+01 0 0 0
838 2 9.8440000000000012e+00 1.5629449137232328e+01 2.6795918596106937e+01 0 0 0
840 2 9.8440000000000012e+00 1.2787731112280996e+01 2.6795918596106937e+01 0 0 0
842 2 1.1074500000000002e+01 1.3498160618518829e+01 2.6795918596106937e+01 0 0 0
878 2 1.1074500000000002e+01 1.4919019630994494e+01 2.6795918596106937e+01 0 0 0
5702 1 2.6538666595003702e-01 9.8927323171649491e+00 3.5618005641313232e+01 0 0 0
691 2 0.0000000000000000e+00 1.9892026174659328e+01 2.6795918596106937e+01 0 0 0
693 2 0.0000000000000000e+00 1.7050308149707998e+01 2.6795918596106937e+01 0 0 0
695 2 1.2305000000000001e+00 1.7760737655945832e+01 2.6795918596106937e+01 0 0 0
734 2 1.2305000000000001e+00 1.9181596668421495e+01 2.6795918596106937e+01 0 0 0
736 2 2.4610000000000003e+00 1.9892026174659328e+01 2.6795918596106937e+01 0 0 0
738 2 2.4610000000000003e+00 1.7050308149707998e+01 2.6795918596106937e+01 0 0 0
740 2 3.6914999999999996e+00 1.7760737655945832e+01 2.6795918596106937e+01 0 0 0
781 2 3.6914999999999996e+00 1.9181596668421495e+01 2.6795918596106937e+01 0 0 0
783 2 4.9220000000000006e+00 1.9892026174659328e+01 2.6795918596106937e+01 0 0 0
785 2 4.9220000000000006e+00 1.7050308149707998e+01 2.6795918596106937e+01 0 0 0
787 2 6.1524999999999999e+00 1.7760737655945832e+01 2.6795918596106937e+01 0 0 0
828 2 6.1524999999999999e+00 1.9181596668421495e+01 2.6795918596106937e+01 0 0 0
830 2 7.3829999999999991e+00 1.9892026174659328e+01 2.6795918596106937e+01 0 0 0
832 2 7.3830000000000009e+00 1.7050308149707998e+01 2.6795918596106937e+01 0 0 0
834 2 8.6134999999999984e+00 1.7760737655945832e+01 2.6795918596106937e+01 0 0 0
870 2 8.6135000000000002e+00 1.9181596668421495e+01 2.6795918596106937e+01 0 0 0
872 2 9.8440000000000012e+00 1.9892026174659335e+01 2.6795918596106937e+01 0 0 0
874 2 9.8440000000000012e+00 1.7050308149707998e+01 2.6795918596106937e+01 0 0 0
876 2 1.1074500000000002e+01 1.7760737655945835e+01 2.6795918596106937e+01 0 0 0
904 2 1.1074500000000002e+01 1.9181596668421495e+01 2.6795918596106937e+01 0 0 0
908 2 1.2304999999999998e+01 1.7050308149707998e+01 2.6795918596106937e+01 0 0 0
618 1 1.2205909805886007e+01 1.7366755457472649e+01 3.6074440263015738e+01 0 0 0
1105 2 1.1074500000000002e+01 2.3444173705848499e+01 3.3266081403892400e+01 0 0 0
728 2 0.0000000000000000e+00 2.4154603212086325e+01 2.6795918596106937e+01 0 0 0
730 2 0.0000000000000000e+00 2.1312885187134999e+01 2.6795918596106937e+01 0 0 0
732 2 1.2304999999999993e+00 2.2023314693372832e+01 2.6795918596106937e+01 0 0 0
773 2 1.2304999999999993e+00 2.3444173705848499e+01 2.6795918596106937e+01 0 0 0
775 2 2.4610000000000003e+00 2.4154603212086325e+01 2.6795918596106937e+01 0 0 0
777 2 2.4610000000000003e+00 2.1312885187134995e+01 2.6795918596106937e+01 0 0 0
779 2 3.6914999999999996e+00 2.2023314693372832e+01 2.6795918596106937e+01 0 0 0
820 2 3.6915000000000004e+00 2.3444173705848499e+01 2.6795918596106937e+01 0 0 0
822 2 4.9220000000000006e+00 2.4154603212086325e+01 2.6795918596106937e+01 0 0 0
824 2 4.9220000000000006e+00 2.1312885187134995e+01 2.6795918596106937e+01 0 0 0
826 2 6.1524999999999990e+00 2.2023314693372832e+01 2.6795918596106937e+01 0 0 0
862 2 6.1524999999999999e+00 2.3444173705848499e+01 2.6795918596106937e+01 0 0 0
864 2 7.3830000000000009e+00 2.4154603212086336e+01 2.6795918596106937e+01 0 0 0
866 2 7.3829999999999991e+00 2.1312885187134999e+01 2.6795918596106937e+01 0 0 0
1093 2 9.8440000000000012e+00 2.4154603212086336e+01 3.3266081403892400e+01 0 0 0
868 2 8.6135000000000002e+00 2.2023314693372832e+01 2.6795918596106937e+01 0 0 0