
# Create simulation box and atoms

read_data data.graphite_substrate_1000
  orthogonal box = (0 0 -1.03859) to (49.22 49.0196 61.1006)
  4 by 2 by 5 MPI processor grid
  reading atoms ...
  6768 atoms
  reading velocities ...
  6768 velocities
group water type 1
4008 atoms in group water
group graphite type 2
2760 atoms in group graphite

# Define potential

pair_style sw
pair_coeff * * mWC.sw mW C
Reading potential file mWC.sw with DATE: 2019-02-27


# Fix graphite atoms in place

fix 5 graphite setforce 0.0 0.0 0.0
velocity graphite set 0.0 0.0 0.0


# Equilibration of molecular water

# Add velocity/set timestep

velocity	    water create ${TEMP} ${SEED} rot yes dist gaussian
velocity	    water create 225 ${SEED} rot yes dist gaussian
velocity	    water create 225 25145 rot yes dist gaussian
timestep	    5.0

# Define output

compute			1 water msd
compute			3 water temp
thermo	    	50
thermo_style	custom step temp press vol etotal ke pe c_1[4] c_3

# Neighbor lists

neigh_modify    delay 0 every 1 check yes

# Set fixes

fix             1 water momentum 10 linear 1 1 1 rescale
fix             2 water nve
fix             3 water temp/csvr ${TEMP} ${TEMP} 500.0 ${SEED}
fix             3 water temp/csvr 225 ${TEMP} 500.0 ${SEED}
fix             3 water temp/csvr 225 225 500.0 ${SEED}
fix             3 water temp/csvr 225 225 500.0 25145
fix             4 water press/berendsen z ${PRES} ${PRES} 1000.0 modulus 20000
fix             4 water press/berendsen z -1000 ${PRES} 1000.0 modulus 20000
fix             4 water press/berendsen z -1000 -1000 1000.0 modulus 20000

# Run 0.5 ns equilibration

dump		    1 all atom 2000 ${DIR}/eq.${NAME}-${TEMP}.dump
dump		    1 all atom 2000 run_8/eq.${NAME}-${TEMP}.dump
dump		    1 all atom 2000 run_8/eq.het_freeze_8-${TEMP}.dump
dump		    1 all atom 2000 run_8/eq.het_freeze_8-225.dump

reset_timestep  0

run	            100000
Neighbor list info ...
  update every 1 steps, delay 0 steps, check yes
  max neighbors/atom: 2000, page size: 100000
  master list distance cutoff = 7.76
  ghost atom cutoff = 7.76
  binsize = 3.88, bins = 13 13 17
  1 neighbor lists, perpetual/occasional/extra = 1 0 0
  (1) pair sw, perpetual
      attributes: full, newton on
      pair build: full/bin/atomonly
      stencil: full/bin/3d
      bin: standard
Per MPI rank memory allocation (min/avg/max) = 4.107 | 4.219 | 4.543 Mbytes
Step Temp Press Volume TotEng KinEng PotEng c_1[4] c_3 
       0    133.23112   -1309.3276    149926.08   -35971.017    2687.4238   -38658.441            0          225 
      50    171.90567   -1864.4712    149528.21   -36390.978    3467.5337   -39858.512   0.86410382    290.31337 
     100    165.96967   -1628.3362    149146.28   -36772.462    3347.7976   -40120.259    1.9269553    280.28868 
     150    160.28593    -1580.226    148772.98    -37107.56    3233.1501    -40340.71    2.7366668    270.69001 
     200    157.10643   -1881.6991    148387.77    -37395.73     3169.016   -40564.746    3.5303368    265.32049 
     250     154.1885   -1707.6479    148018.54   -37656.353     3110.158   -40766.511     4.217356    260.39271 
     300    153.57836   -1620.9311     147797.3   -37893.845    3097.8509   -40991.695    4.8124224    259.36231 
     350    149.97988   -1632.6314    147562.01   -38100.918    3025.2654   -41126.184    5.4538165    253.28521 
     400    147.36234   -1837.6241    147309.86   -38279.561    2972.4666   -41252.028    6.1124645    248.86472 
     450    141.13202   -1688.1597    147009.26   -38421.799     2846.794   -41268.593    6.5934225      238.343 
     500    142.53998   -1712.8124    146758.85   -38527.335    2875.1941    -41402.53    7.0141667    240.72075 
     550    144.06199   -1368.6103    146454.79   -38582.293    2905.8947   -41488.188    7.5285458    243.29111 
     600     142.2235   -1493.5983    146324.88   -38682.481    2868.8104   -41551.292    8.0155544    240.18628 
     650     142.2125   -1397.6656     146160.3   -38734.026    2868.5885   -41602.614    8.3597699    240.16771 
     700    142.56566   -1288.8288    146128.22   -38812.321    2875.7122   -41688.033    8.7723042    240.76412 
     750    140.72861   -1282.0268    146003.64   -38897.888    2838.6567   -41736.544    9.1852865    237.66172 
     800    138.04584   -1274.7873    145847.84   -38979.933    2784.5422   -41764.475    9.5720793    233.13107 
     850    136.07224   -1241.1566    145803.45   -39059.141    2744.7323   -41803.873     9.896446    229.79806 
     900    138.91293   -1165.1209    145765.84   -39118.831    2802.0324   -41920.864    10.178507    234.59541 
     950    139.85919   -1322.4539    145746.81    -39112.58    2821.1196     -41933.7    10.538786    236.19345 
    1000    139.64773     -1034.28    145688.89   -39169.956    2816.8542    -41986.81    10.886929    235.83634 
    1050    137.72693   -1216.6757    145629.53   -39159.867    2778.1094   -41937.976    11.307001     232.5925 
    1100    137.73804   -1307.5292    145529.52   -39190.421    2778.3335   -41968.754    11.594057    232.61126 
    1150    137.25849   -1232.9989    145443.73   -39231.642    2768.6605   -42000.303    11.968155    231.80141 
    1200    138.53487   -1124.6399    145431.75   -39214.909    2794.4065   -42009.315    12.228094    233.95694 
    1250    135.36828   -1347.4001    145486.45   -39332.487    2730.5328    -42063.02    12.446854    228.60922 
    1300    134.88501   -1120.1156    145453.65   -39402.468    2720.7846   -42123.253    12.831367    227.79307 
    1350    135.47977   -1187.6938    145466.85   -39383.844    2732.7817   -42116.626    13.132359    228.79751 
    1400    138.18085   -1061.6119    145520.43   -39323.587    2787.2654   -42110.852    13.353571    233.35907 
    1450    135.71799   -1219.0983    145501.57   -39342.845    2737.5868   -42080.432    13.541687    229.19981 
    1500    137.16969   -1155.1016    145413.34   -39373.894    2766.8692   -42140.763    13.903742    231.65143 
    1550    136.63082   -1169.8558    145428.17   -39421.616    2755.9996   -42177.616     14.11533    230.74139 
    1600    134.50697   -1048.2724    145455.53   -39506.496    2713.1591   -42219.655    14.287648    227.15464 
    1650    134.62411   -1259.8186    145448.09   -39491.031    2715.5219   -42206.553    14.511336    227.35247 
    1700    137.50499   -1281.6526    145416.37   -39510.998    2773.6327   -42284.631    14.673967    232.21769 
    1750    136.73224    -1098.761     145389.8   -39552.101    2758.0454   -42310.146    14.943814    230.91267 
    1800    134.75533   -998.07984    145345.82   -39559.291    2718.1688    -42277.46    15.234988    227.57407 
    1850    135.90243   -1241.2678    145387.61   -39562.864    2741.3072   -42304.171    15.280322     229.5113 
    1900    133.92238   -1157.5291    145303.54    -39588.15    2701.3674   -42289.517    15.498428     226.1674 
    1950     132.3875   -1389.1771    145202.35   -39600.886    2670.4071   -42271.293    15.687104     223.5753 
    2000    135.43298   -1002.2087    145100.69   -39618.815    2731.8377   -42350.652    15.879489    228.71848 
    2050    135.31429   -999.82952    145110.87   -39647.258    2729.4437   -42376.702    16.148939    228.51804 
    2100    132.07266   -1228.6265    145115.06   -39651.581    2664.0563   -42315.637    16.413755     223.0436 
    2150    134.65808   -1106.4178    145092.79   -39633.669    2716.2072   -42349.876    16.670459    227.40984 
    2200    134.52702   -964.11001    145133.45   -39629.803    2713.5635   -42343.367    16.700776     227.1885 
    2250    134.47262   -1016.5784    145285.93   -39628.681    2712.4662   -42341.147    16.801588    227.09663 
    2300    131.11597   -1168.9745       145296   -39751.485    2644.7588   -42396.244    16.944113    221.42794 
    2350    130.88872   -1027.9098    145342.21   -39746.911    2640.1749   -42387.086    17.061292    221.04416 
    2400    130.39175   -1222.9049    145301.62   -39804.879    2630.1505    -42435.03    17.269183    220.20488 
    2450    133.51027   -1256.7506    145282.45   -39744.597    2693.0545   -42437.652    17.499149    225.47142 
    2500    133.56234    -1174.256    145246.17   -39782.469    2694.1049   -42476.574     17.76708    225.55937 
    2550      134.316   -1050.4285    145293.73   -39781.729     2709.307   -42491.036    18.064413    226.83213 
    2600    135.57242   -870.76769    145401.53   -39762.555    2734.6504   -42497.205    18.230255    228.95397 
    2650     131.0345   -1094.2966    145387.72    -39721.71    2643.1154   -42364.826    18.358881    221.29035 
    2700    133.48439    -1070.135    145327.39    -39714.11    2692.5325   -42406.642    18.497899    225.42772 
    2750    132.50011   -1114.7058    145318.63   -39652.949    2672.6785   -42325.627    18.780181    223.76548 
    2800    135.67639   -896.94047    145288.51   -39689.586    2736.7476   -42426.333    18.878833    229.12955 
    2850    133.76646   -1168.2321    145434.19   -39704.614    2698.2222   -42402.836    19.046031    225.90408 
    2900    132.74044   -1222.8458     145449.8   -39690.525    2677.5262   -42368.051    19.347353    224.17134 
    2950    130.94428   -1111.4866    145530.56   -39675.443    2641.2956   -42316.738    19.466383    221.13799 
    3000     135.8175    -1266.627    145514.89   -39616.149    2739.5941   -42355.743    19.587005    229.36786 
    3050     136.9155   -993.67964    145520.94   -39662.544    2761.7419   -42424.286    19.864134    231.22216 
    3100    132.82248    -1124.232    145525.13   -39672.284    2679.1811   -42351.465    19.943347    224.30989 
    3150    134.27669   -1294.4861    145453.64   -39696.696    2708.5142   -42405.211    20.169669    226.76575 
    3200    133.11287   -1077.1883    145451.04   -39693.925    2685.0385   -42378.964    20.356498    224.80029 
    3250    133.45675   -1107.9487    145517.34    -39733.07    2691.9751   -42425.045    20.578019    225.38105 
    3300    133.31682   -973.94588    145547.23    -39721.78    2689.1524   -42410.932    20.669564    225.14472 
    3350    136.54085    -1035.351    145611.23   -39716.518    2754.1848   -42470.702    20.818615    230.58945 
    3400    134.69032   -1227.5249    145585.25   -39686.194    2716.8575   -42403.051    21.013273    227.46428 
    3450    132.98363   -1185.2802    145541.09    -39696.16    2682.4316   -42378.592    21.188234    224.58204 
    3500    133.40491   -968.41773    145577.13   -39745.603    2690.9293   -42436.532    21.373985    225.29349 
    3550    132.44784   -1190.3953    145537.27   -39720.702    2671.6241   -42392.326    21.700569     223.6772 
    3600    134.51375   -1334.0496       145506   -39725.297    2713.2958   -42438.593    21.838202    227.16609 
    3650    132.74009   -1063.1238    145499.36   -39740.176    2677.5191   -42417.696    22.148615    224.17075 
    3700    134.54964   -1162.8832     145534.4   -39700.114    2714.0199   -42414.133    22.361781    227.22672 
    3750    134.25254   -1091.0795    145533.05   -39673.941     2708.027   -42381.968    22.516792    226.72497 
    3800    133.02078   -1159.0999    145547.18    -39681.44    2683.1811   -42364.621    22.683718    224.64478 
    3850     134.1446   -1149.6861    145475.48   -39705.125    2705.8497   -42410.975    22.933334    226.54268 
    3900    134.33278   -1074.3028    145429.49   -39728.979    2709.6454   -42438.624    23.158778    226.86047 
    3950     133.2287   -1219.0986     145415.7   -39728.179    2687.3751   -42415.554    23.378962    224.99592 
    4000    133.36467   -1216.6342    145375.76   -39693.282    2690.1177     -42383.4    23.717635    225.22554 
    4050    135.26074   -1135.4096    145313.77   -39713.177    2728.3635    -42441.54     23.99661     228.4276 
    4100    134.72244   -1180.8468    145301.94    -39745.16    2717.5054   -42462.665    24.184289    227.51853 
    4150    133.76736   -856.00947    145377.89   -39784.655    2698.2403   -42482.895     24.46497    225.90559 
    4200     136.5339   -1085.0303    145382.07   -39752.732    2754.0447   -42506.776    24.551653    230.57772 
    4250    133.27235   -1240.2132    145393.27   -39762.328    2688.2555   -42450.584    24.870466    225.06963 
    4300     135.5353   -1231.2436    145392.28   -39760.529    2733.9018   -42494.431    25.084802    228.89129 
    4350    137.19944    -1224.393    145388.91   -39748.975    2767.4693   -42516.444    25.193268    231.70168 
    4400    133.18056   -972.21776    145436.76   -39797.346    2686.4039    -42483.75    25.395782    224.91461 
    4450    133.24296   -974.38699    145542.29   -39810.893    2687.6626   -42498.555    25.360562    225.01999 
    4500    132.02326   -1107.0998    145593.19   -39833.383    2663.0599   -42496.443    25.554095    222.96017 
    4550    134.22113   -1031.9068    145565.06   -39834.354    2707.3934   -42541.748    25.737746    226.67192 
    4600    135.40682    -1141.839    145577.09   -39830.352    2731.3101   -42561.662    25.826581     228.6743 
    4650     135.4111   -1039.7144    145559.76   -39863.239    2731.3965   -42594.636    25.980483    228.68154 
    4700    133.01912   -994.11074    145521.86   -39866.203    2683.1476   -42549.351    26.076484    224.64198 
    4750    131.11894   -1188.5816    145556.58   -39836.444    2644.8187   -42481.263    26.120475    221.43296 
    4800    135.04816   -1130.4663    145535.33    -39829.85    2724.0756   -42553.926    26.234031     228.0686 
    4850       134.33   -1223.6823    145531.91   -39819.732    2709.5894   -42529.321    26.374122    226.85577 
    4900    132.40665   -935.34084    145585.96   -39825.682    2670.7933   -42496.475     26.43361    223.60763 
    4950    134.17255    -1071.297    145590.08   -39838.185    2706.4135   -42544.599    26.450796    226.58988 
    5000    131.75759   -1133.2425    145595.58   -39785.447    2657.7009   -42443.148     26.57343     222.5115 
    5050    135.59864   -918.57785    145600.58   -39795.421    2735.1795     -42530.6    26.731554    228.99826 
    5100    136.02334   -1173.1726    145578.84    -39770.86     2743.746   -42514.606    26.868511    229.71548 
    5150    133.42732   -1177.2156    145673.03    -39774.31    2691.3814   -42465.691    27.125632    225.33134 
    5200    132.97853   -1173.0388    145723.14   -39793.757    2682.3288   -42476.085    27.423143    224.57343 
    5250    132.84867   -1220.2707    145820.22   -39815.458    2679.7094   -42495.167    27.590597    224.35412 
    5300    132.62016   -1074.9728    145806.58   -39819.666    2675.1001   -42494.767    27.633629    223.96821 
    5350    132.83277   -1073.7125    145828.83   -39866.762    2679.3886   -42546.151    27.741699    224.32727 
    5400    133.00576   -1076.5278    145774.73   -39867.516    2682.8781   -42550.395    27.981008    224.61942 
    5450    132.92598   -991.58167    145727.52   -39872.004    2681.2688   -42553.273    28.185367    224.48468 
    5500    132.27539   -1103.8074    145681.81    -39871.81    2668.1455   -42539.956    28.389075    223.38596 
    5550    134.12085   -1053.0716     145738.1   -39827.444    2705.3706   -42532.815    28.698854    226.50256 
    5600    134.90841   -1115.3198    145765.85    -39858.97    2721.2565   -42580.227    28.894089    227.83259 
    5650    133.56699   -1090.8899    145747.39    -39888.09    2694.1987   -42582.289    29.117698    225.56722 
    5700    132.58441   -924.55934    145765.01   -39833.035    2674.3789   -42507.414    29.234097    223.90783 
    5750    133.23482   -1182.5244    145844.45   -39899.642    2687.4985   -42587.141    29.476719    225.00625 
    5800    133.76407   -1076.0069    145804.91    -39859.18     2698.174   -42557.354    29.750125    225.90004 
    5850    131.23716   -1087.7536    145805.22   -39884.565    2647.2034   -42531.768    29.925789    221.63261 
    5900    131.06497   -1045.1573    145829.79   -39893.906      2643.73   -42537.636    30.055007    221.34181 
    5950    135.06023   -1054.3896    145773.67   -39880.273     2724.319   -42604.592    30.044782    228.08899 
    6000     133.9752   -1051.6751    145797.98   -39875.169    2702.4328   -42577.602    30.255215     226.2566 
    6050    136.39299   -1010.6795    145818.63   -39863.437    2751.2023    -42614.64    30.476021    230.33974 
    6100     137.5591    -1111.357    145848.76   -39850.833    2774.7241   -42625.557    30.445156    232.30907 
    6150     132.9819   -1005.5498    145825.83   -39847.482    2682.3968   -42529.879    30.506351    224.57912 
    6200     133.9504   -1142.8038    145767.09   -39864.684    2701.9326   -42566.617    30.616982    226.21472 
    6250    134.58942   -1022.8389    145749.59   -39839.492    2714.8222   -42554.314    30.722556    227.29388 
    6300    135.88113   -1067.4188    145811.41   -39857.103    2740.8776   -42597.981    30.887289    229.47533 
    6350    131.82882   -924.75911    145861.17   -39908.267    2659.1377   -42567.404    31.112377    222.63179 
    6400    132.78832   -771.58759    145908.93   -39906.386     2678.492   -42584.878    31.230903     224.2522 
    6450    134.60998   -1120.5774    145947.18   -39926.792    2715.2369   -42642.029    31.297529     227.3286 
    6500    132.27689   -1234.8829    145956.65   -39902.042    2668.1758   -42570.218    31.476611    223.38849 
    6550    131.59639   -1228.8492    145940.47   -39908.769    2654.4495   -42563.219    31.750397    222.23928 
    6600    131.09452   -1108.9726    145932.02    -39943.57    2644.3261   -42587.896    31.922006    221.39172 
    6650    131.65793   -942.46709    145923.15   -39930.592    2655.6907   -42586.283    32.081875     222.3432 
    6700    134.14397    -988.7541    145974.57   -39896.085    2705.8371   -42601.922    32.213433    226.54162 
    6750    133.36251   -1176.8241    145969.02     -39858.7    2690.0741   -42548.774    32.365889    225.22189 
    6800    136.25682   -1084.6753    145872.75   -39841.006    2748.4556   -42589.462    32.687722    230.10978 
    6850     133.9585    -1295.129    145829.94   -39889.965    2702.0958    -42592.06    32.898747    226.22839 
    6900    134.03074    -1039.682    145815.77   -39911.971    2703.5531   -42615.524    32.981156    226.35039 
    6950    133.47588   -1061.9045     145861.8   -39819.214    2692.3608   -42511.575    32.998912    225.41334 
    7000    134.18594   -1062.4997    145938.86   -39838.908    2706.6836   -42545.592    33.050705    226.61249 
    7050     135.2351   -1277.2495    145902.57   -39832.727    2727.8464   -42560.573     33.18036    228.38431 
    7100    133.97315    -1343.106     145881.8   -39799.066    2702.3914   -42501.458    33.339379    226.25313 
    7150    134.15592   -1304.7335     145815.1   -39824.599     2706.078   -42530.677    33.462013    226.56179 
    7200    134.74878   -1112.8743     145832.5   -39839.996    2718.0368   -42558.033    33.511223    227.56302 
    7250    134.83967    -1289.729    145813.81   -39880.704      2719.87   -42600.574    33.631502     227.7165 
    7300    130.87311   -1153.4157    145799.68   -39908.742    2639.8601   -42548.603    33.659007    221.01781 
    7350    134.82987   -1141.7035    145780.47   -39829.351    2719.6724   -42549.024    33.666041    227.69996 
    7400    133.71718   -1293.3997     145732.1   -39851.574    2697.2282   -42548.802     33.82961    225.82085 
    7450    133.12891   -1159.5407    145719.13   -39896.534     2685.362   -42581.896    33.874098    224.82738 
    7500    135.29293   -1231.6621     145639.2   -39948.127    2729.0129    -42677.14    33.939028    228.48198 
    7550    130.44374   -1191.2644    145628.21   -39952.677    2631.1992   -42583.877    34.152932    220.29269 
    7600    131.44547   -1110.6983    145607.39   -39938.395    2651.4052     -42589.8    34.282788     221.9844 
    7650    135.08445      -1005.2    145622.03   -39947.643    2724.8076   -42672.451    34.518388     228.1299 
    7700     133.8659   -901.43425    145690.61   -39949.594     2700.228   -42649.822    34.612856      226.072 
    7750    134.11575   -1002.5636    145724.96   -39943.818    2705.2678   -42649.086    34.744378    226.49396 
    7800    131.54741   -1146.8915    145745.94   -39964.323    2653.4615   -42617.785    34.916212    222.15656 
    7850    133.47328   -1228.3631    145660.17   -39990.966    2692.3084   -42683.274    35.116652    225.40895 
    7900    131.89906   -1067.8941    145668.84   -40044.395    2660.5546    -42704.95    35.224421    222.75042 
    7950    132.38248      -1041.1    145680.92   -39937.452    2670.3057   -42607.758    35.379953    223.56681 
    8000     131.9292   -1071.7876    145747.12   -39955.475    2661.1626   -42616.638    35.581305    222.80132 
    8050    132.59351   -1128.1751    145736.58   -39990.062    2674.5624   -42664.624    35.544177     223.9232 
    8100     130.4644   -1308.9985    145703.64   -39983.785    2631.6159   -42615.401    35.657547    220.32758 
    8150    130.67253   -1309.8375    145651.33   -39960.489    2635.8142   -42596.303    35.824032    220.67907 
    8200    135.28956   -1197.9917    145586.65   -39906.413    2728.9449   -42635.358    36.039391    228.47628 
    8250    131.61679    -1035.872    145603.34    -39948.57    2654.8609   -42603.431    36.148998    222.27372 
    8300    132.26862   -1132.3493    145652.45   -39967.467    2668.0091   -42635.476    36.255192    223.37454 
    8350    132.11313   -967.58113    145605.59    -39961.34    2664.8726   -42626.213    36.343076    223.11194 
    8400    133.73067   -1025.0997    145649.27   -39953.941    2697.5002   -42651.441    36.527718    225.84363 
    8450     132.1191   -1072.4702    145691.07    -39937.48     2664.993   -42602.473    36.862481    223.12202 
    8500    133.06886   -970.43961    145691.58   -39970.003    2684.1508   -42654.154    36.915715    224.72598 
    8550    132.57271   -1045.4263    145702.46   -39974.919    2674.1428   -42649.062    37.177446    223.88807 
    8600    131.45815   -1113.0379    145700.88   -39961.508     2651.661   -42613.169    37.423921    222.00582 
    8650    133.16985   -1065.8567    145724.19   -39913.607     2686.188   -42599.795    37.689552    224.89653 
    8700     134.4739    -1046.143     145880.5   -39936.049    2712.4921   -42648.541    37.682209     227.0988 
    8750    132.63508    -1195.539    145914.68   -39917.304    2675.4009   -42592.705    37.643834     223.9934 
    8800    135.48494    -1164.462    145944.87   -39901.725    2732.8858    -42634.61    37.700025    228.80623 
    8850    134.03779   -1071.9361    145942.63   -39893.744    2703.6951   -42597.439      37.7673    226.36229 
    8900    132.73232   -1158.3636    145957.11   -39850.354    2677.3623   -42527.716    37.935949    224.15762 
    8950    134.19432   -1156.9041    145924.77   -39867.534    2706.8525   -42574.387    37.972503    226.62664 
    9000    132.43582   -1090.6249     145885.9   -39823.524    2671.3816   -42494.905    38.029131    223.65689 
    9050    132.51241   -1113.1628    145861.29   -39875.318    2672.9265   -42548.244    38.193848    223.78624 
    9100    133.71261   -1031.6938    145854.08   -39874.533     2697.136   -42571.669    38.302069    225.81314 
    9150     134.5787   -1063.7882    145889.88   -39886.457    2714.6061   -42601.063    38.494324    227.27579 
    9200    136.64553   -1068.6096     145926.3    -39865.41    2756.2963   -42621.706     38.87374    230.76623 
    9250    134.54958    -1113.619     145923.8   -39900.849    2714.0186   -42614.868    38.956896     227.2266 
    9300    135.86824    -1110.955    145984.43   -39881.095    2740.6175   -42621.713    39.108787    229.45355 
    9350    133.28718   -1178.2334    145968.36       -39887    2688.5545   -42575.554    39.338093    225.09467 
    9400    130.67497   -1225.2677    146005.92   -39847.871    2635.8633   -42483.734    39.475782    220.68318 
    9450    132.12626   -1073.1721    146049.18   -39897.983    2665.1375    -42563.12    39.592247    223.13411 
    9500    132.70348   -1193.2961    146001.73   -39882.341    2676.7807   -42559.122    39.584241    224.10892 
    9550    133.82581   -1098.4891    145939.32   -39900.984    2699.4194   -42600.404    39.631502    226.00431 
    9600     136.1779    -1302.541    145861.53   -39896.068    2746.8636   -42642.932    39.875726     229.9765 
    9650    134.78766   -1085.5747    145792.25   -39909.853    2718.8209   -42628.674    40.087756    227.62867 
    9700    130.90144   -1250.0826    145815.37   -39944.955    2640.4316   -42585.386    40.148501    221.06565 
    9750    133.38304   -1195.7394    145766.57   -39926.447    2690.4881   -42616.935    40.196592    225.25655 
    9800    131.36224   -1110.0416    145773.03    -39938.46    2649.7264   -42588.186    40.271023    221.84385 
    9850    132.41497   -1081.8032    145741.62   -39953.622    2670.9612   -42624.583    40.477186    223.62169 
    9900    132.86923   -1079.8292    145741.68   -39964.237     2680.124   -42644.361    40.676323    224.38883 
    9950     130.2965   -1021.3347    145752.38   -39991.496    2628.2292   -42619.725    40.895308    220.04403 
   10000    131.34591   -1048.9285    145773.86   -39954.276    2649.3969   -42603.673    41.060773    221.81626 
   10050    134.49172   -1137.4482    145810.49   -39895.212    2712.8516   -42608.064     41.30358     227.1289 
   10100    132.48662   -1212.7351    145811.21   -39889.193    2672.4064   -42561.599     41.50544    223.74269 
   10150    133.19562    -1286.131    145801.16   -39938.554    2686.7077   -42625.261    41.619945    224.94004 
   10200    130.77097   -1268.0333    145851.37   -39928.843    2637.7997   -42566.642    41.777934     220.8453 
   10250    132.29908   -1260.7327    145785.74   -39989.266    2668.6235   -42657.889    41.832592    223.42598 
   10300     132.9192   -1144.1594    145727.98   -39953.561     2681.132   -42634.693    41.991472    224.47323 
   10350     133.4286   -1182.5295    145731.35    -39912.02    2691.4072   -42603.427    42.263433    225.33351 
   10400    133.25596   -1081.6185    145698.92   -39861.895    2687.9249   -42549.819    42.499761    225.04195 
   10450    132.73212   -1117.6834    145663.66   -39864.627    2677.3585   -42541.985    42.782317     224.1573 
   10500    134.42836   -1095.5709    145616.41   -39880.748    2711.5735   -42592.321    42.850575    227.02189 
   10550    133.45474   -1194.6768    145509.07   -39899.516    2691.9344    -42591.45    43.218288    225.37764 
   10600    134.26531   -1099.6042    145448.94   -39877.018    2708.2846   -42585.303    43.352392    226.74654 
   10650    131.34843   -943.56142    145555.41   -39867.334    2649.4477   -42516.781    43.589751    221.82052 
   10700     136.7017   -856.98351    145673.89   -39814.089    2757.4293   -42571.519    43.591725    230.86109 
   10750    134.04638   -1177.7379    145791.65     -39807.5    2703.8685   -42511.368     43.64867     226.3768 
   10800    134.43294   -1195.1856    145857.41   -39806.103    2711.6658   -42517.768     43.74366    227.02962 
   10850     134.4195   -1364.4952    145836.99   -39856.987    2711.3947   -42568.382    44.019679    227.00692 
   10900    134.89368   -1267.5958    145829.79   -39916.778    2720.9594   -42637.738    44.248718    227.80771 
   10950    131.13441   -1438.2308    145792.82   -39929.655    2645.1309   -42574.786    44.476491    221.45909 
   11000    134.99934   -1285.2658    145852.75   -39908.748    2723.0909   -42631.839    44.653465    227.98617 
   11050    133.10008    -1327.039    145864.21   -39912.282    2684.7806   -42597.063    44.744499     224.7787 
   11100    132.30066   -1341.5455    145825.09   -39898.603    2668.6553   -42567.258    44.952557    223.42864 
   11150    131.87794   -1326.5128    145769.72   -39907.148    2660.1287   -42567.277     45.08092    222.71476 
   11200    131.07163   -921.97573    145773.13   -39944.296    2643.8645   -42588.161    45.194281    221.35307 
   11250     133.1299   -1198.7224    145778.84   -39910.144    2685.3821   -42595.526    45.401884    224.82906 
   11300     132.1145    -1215.903    145778.29   -39932.164    2664.9003   -42597.065    45.644197    223.11426 
   11350    131.08272   -1279.7122    145785.62   -39954.361    2644.0881   -42598.449    45.803281    221.37179 
   11400    133.09091   -1237.4153    145731.45   -39979.397    2684.5955   -42663.993    45.916895    224.76321 
   11450    136.19137   -1330.8255    145715.79   -39912.476    2747.1353   -42659.611    46.056156    229.99925 
   11500    131.71504   -1329.5994     145685.4   -39909.212    2656.8426   -42566.055     46.14789    222.43964 
   11550    132.15878   -1344.6222    145661.05    -39958.33    2665.7934   -42624.123     46.24342    223.18903 
   11600    133.04386   -1176.8899    145689.67   -39990.582    2683.6466   -42674.229    46.271897    224.68376 
   11650    130.91959   -1179.1431    145710.22   -39966.086    2640.7976   -42606.884      46.2221    221.09629 
   11700    133.72742   -1164.5906     145772.1   -39956.529    2697.4347   -42653.964    46.317127    225.83815 
   11750    131.36116   -1235.2719    145791.18   -39939.178    2649.7045   -42588.882    46.332653    221.84201 
   11800    134.92496    -1152.398    145789.65    -39920.32    2721.5905   -42641.911    46.383755    227.86054 
   11850    134.98502   -1228.4265    145809.65   -39980.113     2722.802   -42702.915    46.608883    227.96198 
   11900    131.01897   -1193.6411    145734.31   -40015.742    2642.8023   -42658.544    46.536625    221.26414 
   11950    133.10441   -1248.6412     145789.6   -39974.251     2684.868   -42659.119    46.772256    224.78601 
   12000    130.48466   -1269.5384    145724.94   -39976.658    2632.0246   -42608.683    46.910355    220.36179 
   12050    131.96598   -1272.4674    145683.44   -39965.201    2661.9045   -42627.105    47.022514    222.86344 
   12100    131.12801    -1029.173    145630.35   -39988.583    2645.0016   -42633.585    47.257157    221.44827 
   12150    131.18619   -1003.3546    145713.89   -39997.156    2646.1752   -42643.331    47.234923    221.54653 
   12200    136.05165   -1148.5957    145747.99   -39955.803    2744.3171    -42700.12    47.277244    229.76329 
   12250    136.68049   -1047.6604    145737.68   -39906.515    2757.0014   -42663.516    47.333809    230.82527 
   12300    134.86147   -1098.0666    145765.95   -39924.223    2720.3098   -42644.533    47.400308    227.75332 
   12350     129.4363     -1328.71     145784.3   -39927.467    2610.8779   -42538.345    47.553813    218.59132 
   12400    132.90795   -1190.7307    145653.67   -39891.915     2680.905    -42572.82    47.769482    224.45422 
   12450     132.9038   -1213.0876     145587.6   -39925.861    2680.8214   -42606.682    47.713899    224.44723 
   12500    135.27358   -1067.2047    145575.06    -39898.55    2728.6225   -42627.172    48.128158    228.44929 
   12550     134.2723   -1010.9783    145573.83   -39908.863    2708.4255   -42617.289    48.142897    226.75833 
   12600    134.59369   -1146.3602    145631.24   -39894.757    2714.9084   -42609.665    48.187639     227.3011 
   12650    136.70158   -1084.8043    145652.27   -39856.023     2757.427    -42613.45    48.301533    230.86089 
   12700    135.41634    -1197.362    145665.17   -39830.304    2731.5023   -42561.806    48.370829    228.69039 
   12750    133.57343   -1039.4006    145610.14   -39878.331    2694.3286   -42572.659    48.270897    225.57809 
   12800    136.66468   -987.84655    145655.19   -39872.445    2756.6825   -42629.127    48.252544    230.79857 
   12850    132.58964   -1099.0383     145706.5   -39957.109    2674.4844   -42631.593    48.131302    223.91667 
   12900    133.41375   -1077.8497    145706.54    -39918.18    2691.1077   -42609.287    48.245689    225.30843 
   12950    131.14713   -1145.0661    145739.76   -39926.914    2645.3874   -42572.302      48.1628    221.48057 
   13000    134.93649   -1156.7617    145692.49   -39862.373     2721.823   -42584.196    48.049761    227.88001 
   13050    135.19325   -1118.8756    145684.05   -39925.785    2727.0022   -42652.787    48.365043    228.31363 
   13100    134.21878   -1054.0171     145717.7   -39889.623    2707.3461   -42596.969    48.631807    226.66796 
   13150    133.76943   -1007.9071    145743.69    -39843.85    2698.2822   -42542.133    48.641319     225.9091 
   13200    135.06606   -803.07678    145795.29   -39837.581    2724.4366   -42562.018    48.727318    228.09883 
   13250    130.23385   -1087.4842     145913.7   -39864.671    2626.9654   -42491.636    49.005835    219.93822 
   13300    133.91883   -1104.3108     145906.2    -39881.93    2701.2956   -42583.226    49.185692    226.16139 
   13350    129.82581   -978.35011    145862.82   -39964.018    2618.7349   -42582.753    49.365866    219.24914 
   13400    131.14059   -1248.9415    145809.88   -39959.322    2645.2554   -42604.577    49.639549    221.46952 
   13450    131.91807    -1184.568    145784.79   -39973.268     2660.938   -42634.206     49.91269    222.78252 
   13500    130.74667   -1285.3521    145769.06   -39991.651    2637.3096    -42628.96    49.970459    220.80427 
   13550    131.96396   -1128.3612    145712.01   -39988.657    2661.8637   -42650.521    50.043954    222.86002 
   13600    133.79657   -1082.8049    145734.03   -39938.837    2698.8295   -42637.667     50.14183    225.95492 
   13650    131.79162   -1091.8521    145783.45   -39911.525    2658.3874   -42569.913    50.274485    222.56897 
   13700    133.12511   -1111.0812    145828.13   -39845.625    2685.2854    -42530.91    50.551064    224.82097 
   13750    133.17549   -1011.6628    145842.91   -39849.747    2686.3017   -42536.048    50.587946    224.90605 
   13800    135.09361   -1225.1873    145837.66   -39874.413    2724.9923   -42599.406    50.822332    228.14536 
   13850    129.82767   -1343.3858    145716.88   -39920.065    2618.7723   -42538.837    51.051474    219.25227 
   13900    132.57344   -1223.2511    145656.49   -39867.043    2674.1576   -42541.201    51.290953    223.88931 
   13950    133.08769   -1288.5069     145592.3   -39798.592    2684.5307   -42483.123    51.617626    224.75778 
   14000    134.36795   -1186.8666    145537.75   -39774.139    2710.3549   -42484.494    51.632874    226.91987 
   14050    133.69024   -1401.9443    145443.39   -39789.745    2696.6847   -42486.429    51.721372    225.77535 
   14100    133.53405   -1164.4581     145427.8   -39823.633    2693.5343   -42517.167    51.929772    225.51159 
   14150    132.27407   -1034.8926    145463.43   -39830.089    2668.1191   -42498.209    52.084295    223.38374 
   14200    135.13246   -1344.8399    145465.65    -39834.11     2725.776   -42559.886    52.329704    228.21097 
   14250    137.84669   -1085.7475    145461.33   -39802.765    2780.5251    -42583.29    52.585942    232.79475 
   14300    133.99492   -1160.2937    145437.23   -39814.216    2702.8305   -42517.047    52.784522    226.28989 
   14350    133.54382   -1209.1054     145345.8   -39857.657    2693.7312   -42551.388    52.980131    225.52808 
   14400     132.8912   -1243.4626    145356.38   -39840.754    2680.5672   -42521.321    53.073823    224.42594 
   14450    135.40567   -1210.4854     145274.4   -39824.138     2731.287   -42555.425    53.166363    228.67237 
   14500    134.46068   -1330.9055    145182.22   -39806.309    2712.2254   -42518.535    53.274153    227.07647 
   14550    136.31909   -983.62856    145087.53    -39791.11    2749.7116   -42540.822    53.284285    230.21494 
   14600     135.8514   -995.03033    145172.31   -39817.561    2740.2778   -42557.838    53.380366    229.42511 
   14650    134.41563   -1025.2112    145175.75   -39854.693    2711.3168    -42566.01    53.598908     227.0004 
   14700     133.4529   -1070.6432    145159.86   -39866.042    2691.8973   -42557.939    53.650539    225.37454 
   14750    134.21341   -1211.1017    145083.88    -39868.28    2707.2377   -42575.518    53.868639    226.65889 
   14800    131.45367    -1359.189    145014.59   -39890.193    2651.5707   -42541.764     53.83793    221.99826 
   14850    134.59533   -1100.5926    144987.05   -39879.331    2714.9414   -42594.272     54.02261    227.30387 
   14900    132.77572   -987.98111    145015.31    -39850.44    2678.2379   -42528.678    54.225983    224.23092 
   14950    132.10774   -1134.3092    145091.44    -39915.34    2664.7639   -42580.104    54.450613    223.10284 
   15000    131.78021   -1105.4273    145181.53   -39898.159    2658.1572   -42556.316     54.46322     222.5497 
   15050    133.74301   -1140.8718    145248.39   -39852.886    2697.7491   -42550.635     54.50313    225.86447 
   15100    132.45019     -1236.63    145257.77   -39874.987    2671.6715   -42546.658    54.806247    223.68116 
   15150    133.94392   -1155.1132    145273.85   -39852.826    2701.8018   -42554.628    55.051764    226.20377 
   15200    130.76174   -1076.8681    145332.58   -39883.266    2637.6135    -42520.88    55.087625    220.82972 
   15250    131.18791   -1112.4737    145424.65   -39861.485    2646.2099   -42507.695    55.126988    221.54943 
   15300    131.90598   -1226.9592    145455.78   -39899.621    2660.6942   -42560.315    55.342581     222.7621 
   15350    132.10543   -1006.9736    145423.11   -39881.431    2664.7174   -42546.148    55.520607    223.09894 
   15400     133.7407   -1017.9792     145506.6   -39869.214    2697.7025   -42566.916    55.481357    225.86057 
   15450     131.2311   -1081.3594    145457.08    -39882.53    2647.0812   -42529.612    55.548999    221.62238 
   15500    132.13242   -1063.8717    145427.75   -39885.687    2665.2618   -42550.949    55.622253    223.14453 
   15550    132.06679   -1065.6261     145423.3   -39824.982    2663.9379    -42488.92    55.770562    223.03368 
   15600    133.75246   -995.17399     145427.8   -39844.342    2697.9398   -42542.282    55.889968    225.88043 
   15650    133.13281    -1095.976    145472.38   -39866.811    2685.4409   -42552.252    55.984178    224.83398 
   15700    131.42159   -991.26684    145603.46   -39836.803    2650.9234   -42487.727    56.189681    221.94407 
   15750    132.98953   -981.11208    145756.18    -39870.76    2682.5507   -42553.311    56.408456    224.59201 
   15800    134.29956   -1191.7344    145767.84   -39857.325    2708.9754     -42566.3    56.502175    226.80437 
   15850    135.02858   -966.45518    145800.06   -39838.179    2723.6807    -42561.86    56.774305    228.03554 
   15900    134.55594   -1112.2381    145813.69   -39844.328     2714.147   -42558.475    56.829461    227.23735 
   15950    131.80385   -1186.0552    145868.09   -39869.359     2658.634   -42527.993    57.061354    222.58962 
   16000    134.56353   -1062.6397    145842.41   -39832.844       2714.3   -42547.144    57.120245    227.25016 
   16050    134.06373   -1260.1235    145858.95   -39887.124    2704.2186   -42591.343    57.122035    226.40611 
   16100    137.05959   -1200.0557    145855.24   -39834.805    2764.6485   -42599.454    57.096071     231.4655 
   16150     131.9217   -1229.1491    145840.81   -39854.885    2661.0113   -42515.896    57.449115    222.78866 
   16200    134.85455   -1190.8669    145906.99   -39850.578    2720.1703   -42570.748    57.742496    227.74164 
   16250    130.66358   -1117.0765    145848.14   -39851.992    2635.6336   -42487.626    58.063521    220.66395 
   16300    131.70347   -1081.3669    145944.82   -39818.385    2656.6094   -42474.994    58.151261    222.42011 
   16350    133.01622   -1121.9852    146017.58   -39800.085    2683.0891   -42483.174    58.209172    224.63708 
   16400    134.76311   -1301.6573    146028.38   -39818.758    2718.3258   -42537.084    58.406496    227.58721 
   16450    132.50294   -1211.9552     145979.4   -39846.739    2672.7355   -42519.474    58.528724    223.77024 
   16500    131.17913   -1427.7945    145970.81   -39892.126    2646.0327   -42538.159    58.889212     221.5346 
   16550    131.93183   -1275.2382    145832.83   -39851.423    2661.2156   -42512.639    58.995572    222.80576 
   16600    131.75663   -1298.7664    145806.62   -39833.369    2657.6817   -42491.051    59.106225    222.50989 
   16650    134.35965   -1174.5432    145741.85   -39844.222    2710.1876   -42554.409    59.267104    226.90586 
   16700    132.33594    -1077.058    145761.47   -39852.492     2669.367   -42521.859     59.24859    223.48822 
   16750    133.51306   -1098.7731    145730.78   -39813.975    2693.1109   -42507.086    59.382458    225.47614 
   16800    131.09259    -1052.811    145696.06   -39842.514    2644.2872   -42486.802     59.54104    221.38846 
   16850    133.78657   -1366.1652    145610.36    -39869.29    2698.6278   -42567.918    59.399557    225.93803 
   16900    133.95633   -1274.3554     145509.7   -39886.211     2702.052   -42588.263     59.86283    226.22472 
   16950    132.65856   -1217.7944    145324.17   -39856.186    2675.8745    -42532.06     60.22827    224.03305 
   17000    133.88755   -1228.5988    145272.11   -39817.845    2700.6648    -42518.51    60.333595    226.10858 
   17050     133.9146   -1066.8664    145253.85   -39799.909    2701.2104   -42501.119    60.504259    226.15426 
   17100    135.74279   -1114.9607    145249.89   -39761.874    2738.0871   -42499.961    60.660528     229.2417 
   17150    134.13447   -1052.7127    145287.33   -39802.969    2705.6454   -42508.615    60.779169    226.52557 
   17200    131.50608   -1128.2182    145246.54   -39814.774    2652.6277   -42467.402    61.074694    222.08676 
   17250    136.48451   -1199.0614     145246.3   -39802.063    2753.0484   -42555.112    61.318098     230.4943 
   17300    132.55116   -1138.9957    145259.02   -39812.797    2673.7082   -42486.505    61.502917    223.85168 
   17350     131.1918   -1350.1439    145246.98   -39849.474    2646.2884   -42495.763      61.6911    221.55601 
   17400    131.60311   -1106.2402    145310.16   -39845.219    2654.5849   -42499.804    61.956672    222.25062 
   17450    134.40058   -1205.6806    145270.34   -39859.087    2711.0132     -42570.1    61.948891    226.97498 
   17500    131.06135    -1224.422    145247.05   -39851.794     2643.657   -42495.451    62.214882     221.3357 
   17550      133.459     -1211.96    145267.73   -39763.064    2692.0204   -42455.085    62.259748    225.38484 
   17600    135.29135   -1204.6094     145326.7   -39693.307    2728.9809   -42422.287    62.687947     228.4793 
   17650    134.13732    -1376.988    145304.85   -39754.749    2705.7028   -42460.451    62.969084    226.53038 
   17700    132.43691   -1186.8051    145271.96   -39762.559    2671.4036   -42433.963    63.083903    223.65873 
   17750    135.79235   -1067.7479    145227.78    -39752.17    2739.0867   -42491.257    63.370408    229.32539 
   17800    130.77369    -1114.362    145262.71   -39751.646    2637.8545   -42389.501    63.404873    220.84989 
   17850    135.95763   -918.10233       145427   -39679.427    2742.4206   -42421.847    63.603574    229.60451 
   17900    132.77159   -1270.2333    145450.76   -39687.738    2678.1545   -42365.892    63.813322    224.22394 
   17950    135.86648   -1251.9317    145398.07   -39685.783     2740.582   -42426.365    64.121654    229.45058 
   18000    132.80765   -1104.3021    145350.87    -39729.28    2678.8819   -42408.162    64.291567    224.28484 
   18050    136.00078   -1191.9893    145382.98   -39724.279    2743.2909    -42467.57    64.436511    229.67738 
   18100    134.30184   -1128.6297    145398.39   -39741.113    2709.0214   -42450.134    64.735562    226.80822 
   18150    132.54228   -1061.3441    145472.26   -39767.777    2673.5292   -42441.306    64.832004    223.83669 
   18200    130.37561   -1256.8682    145428.69   -39757.631    2629.8248   -42387.456    64.798286    220.17762 
   18250    130.97212   -1139.8998    145391.38   -39783.671    2641.8571   -42425.528    64.945063      221.185 
   18300    133.71011   -1161.9665    145404.75   -39779.473    2697.0855   -42476.559    64.987015    225.80891 
   18350    132.12781   -1105.0126    145421.08     -39804.1    2665.1687   -42469.269    64.941432    223.13673 
   18400    133.49028   -1169.9289    145481.25   -39775.148    2692.6513   -42467.799    65.125422    225.43766 
   18450    133.79341   -1053.1858    145478.15   -39783.437    2698.7659   -42482.203    65.256784     225.9496 
   18500    134.85565   -1124.1002    145518.64   -39759.892    2720.1924   -42480.085    65.492676     227.7435 
   18550     136.2446   -1281.1961    145544.79   -39696.428    2748.2091   -42444.637    65.786365    230.08915 
   18600    134.51856   -1208.0054     145529.3   -39699.198     2713.393   -42412.591    65.981643    227.17422 
   18650    135.79814   -1058.4246    145545.38    -39706.89    2739.2034   -42446.093    66.085093    229.33516 
   18700    131.52441   -1053.2532    145526.18    -39717.82    2652.9976   -42370.818    66.079979    222.11772 
   18750    137.17019   -921.81611    145541.25   -39714.921    2766.8794     -42481.8    66.203389    231.65228 
   18800     134.8204   -1187.0903    145562.44   -39693.782    2719.4813   -42413.264    66.292063    227.68396 
   18850    133.68099   -1105.4088    145578.79   -39711.568    2696.4982   -42408.066    66.464354    225.75974 
   18900    135.17352   -970.69683    145590.06   -39656.988    2726.6041   -42383.593    66.777398    228.28031 
   18950     133.8695    -1167.848     145604.4   -39692.283    2700.3006   -42392.584    67.148101    226.07808 
   19000    134.15591   -1320.4424    145543.78   -39711.606    2706.0778   -42417.684    67.265752    226.56177 
   19050    135.10357   -1146.9686    145480.88   -39716.717    2725.1932    -42441.91    67.406295    228.16218 
   19100    135.77885   -1181.1576    145491.46   -39758.605    2738.8145   -42497.419    67.625926     229.3026 
   19150    134.31505   -1048.7527    145460.02   -39724.502     2709.288    -42433.79    67.708599    226.83054 
   19200    134.03177   -1090.4785    145430.09   -39701.271    2703.5739   -42404.845    67.865291    226.35214 
   19250    132.14908   -988.78263    145466.81   -39741.386    2665.5978   -42406.984    67.872064    223.17266 
   19300    134.60344   -1078.0533    145493.06   -39754.398     2715.105   -42469.503    68.122663    227.31756 
   19350    132.21401   -943.03734    145458.99   -39743.841    2666.9076   -42410.748     68.22754    223.28231 
   19400    134.24312   -1094.3136    145534.03   -39730.821    2707.8371   -42438.658    68.361887    226.70906 
   19450    131.02243   -1254.2048    145557.11   -39770.289    2642.8719   -42413.161    68.436996    221.26997 
   19500    135.59255   -1154.9118    145514.33   -39753.332    2735.0565   -42488.388    68.699135    228.98797 
   19550     133.8326   -1110.4191    145502.89   -39730.025    2699.5563   -42429.581    69.073348    226.01577 
   19600    136.74736   -1086.4491    145545.52   -39740.041    2758.3503   -42498.391    69.373786     230.9382 
   19650    132.47784   -974.52838    145583.28   -39743.672    2672.2292   -42415.901    69.582657    223.72786 
   19700    132.99995   -1008.1381    145599.79   -39739.077    2682.7608   -42421.837    69.793267     224.6096 
   19750    132.07169   -979.68888    145570.47   -39782.788    2664.0368   -42446.825    70.074499    223.04196 
   19800    132.49822   -1095.7758    145650.11   -39723.877    2672.6404   -42396.517    70.027416    223.76228 
   19850    136.25964   -1034.0301    145681.85   -39719.367    2748.5124   -42467.879    70.204535    230.11454 
   19900    134.35597   -1010.0191    145668.65   -39744.461    2710.1132   -42454.574    70.498604    226.89963 
   19950    134.99636   -1090.3403    145723.89   -39743.948    2723.0306   -42466.979    70.558256    227.98112 
   20000    133.98986   -1147.9243    145721.81   -39723.612    2702.7284   -42426.341    70.565233    226.28135 
   20050     133.2921   -1102.4695     145727.4   -39779.536    2688.6539    -42468.19     70.51663    225.10298 
   20100    134.81813   -1319.9848    145671.14   -39733.412    2719.4356   -42452.848     70.83339    227.68013 
   20150    135.58479   -1276.0318    145673.06   -39727.803    2734.9001   -42462.703    71.043154    228.97487 
   20200    133.65685   -1091.9848    145794.24   -39727.256    2696.0112   -42423.267    71.282006    225.71896 
   20250    133.53489   -1267.3989    145788.39   -39762.295    2693.5511   -42455.847    71.612427      225.513 
   20300    133.19085   -1246.5837    145712.47   -39778.843    2686.6116   -42465.455     71.99171      224.932 
   20350    133.54038   -1187.7771    145676.62   -39780.532    2693.6619   -42474.194    72.149494    225.52227 
   20400    131.94772   -1352.5662    145628.99   -39774.159    2661.5362   -42435.695    72.298432    222.83261 
   20450    135.84428   -1227.7518    145560.14   -39704.125    2740.1342   -42444.259    72.529945    229.41308 
   20500    135.14016   -1089.2043    145542.69   -39719.103    2725.9313   -42445.035     72.85875    228.22397 
   20550    133.32645   -1128.2326    145493.07   -39721.635    2689.3467   -42410.982    72.959094    225.16099 
   20600    133.32691   -1113.9227     145474.5   -39725.157     2689.356   -42414.513     72.97659    225.16177 
   20650    135.27185   -1156.5789    145402.91   -39726.746    2728.5876   -42455.334    73.008709    228.44636 
   20700    134.83067    -920.5785    145356.48   -39758.231    2719.6886    -42477.92    73.167767    227.70132 
   20750    132.67024   -1070.2058    145327.94   -39762.884    2676.1103   -42438.994    73.230724    224.05279 
   20800    134.00252   -1236.2048    145277.98   -39728.409    2702.9839   -42431.393    73.651469    226.30274 
   20850    131.81539   -1193.0426    145245.09   -39743.139    2658.8668   -42402.005    73.801275    222.60911 
   20900    132.37109   -1108.1547    145286.49   -39714.614    2670.0761    -42384.69     73.67659    223.54759 
   20950    133.94381   -1109.1609    145425.25   -39715.489    2701.7996   -42417.288     73.77944    226.20359 
   21000    135.36803   -1180.6701    145472.12   -39688.584    2730.5276   -42419.112    74.020258    228.60879 
   21050    134.42877    -1289.511    145409.44    -39681.67    2711.5818   -42393.251    74.194207    227.02259 
   21100    135.40027    -1098.718    145451.58   -39708.149    2731.1781   -42439.327    74.183345    228.66325 
   21150    136.63655   -1074.8932    145501.04   -39688.427    2756.1153   -42444.543    74.540854    230.75107 
   21200    134.43621   -1200.7908    145589.31   -39712.546    2711.7319   -42424.278    74.815442    227.03515 
   21250    136.57304   -1039.5319     145511.4   -39753.985    2754.8341   -42508.819    75.088124    230.64381 
   21300    132.53817   -1076.0643     145562.1   -39780.981    2673.4462   -42454.427    75.138349    223.82975 
   21350      134.444   -1255.8964    145584.03   -39758.942     2711.889   -42470.831    75.188579     227.0483 
   21400    134.72044   -1151.1884     145538.9     -39737.1    2717.4651   -42454.565    75.462538    227.51515 
   21450    136.02183   -1101.2951    145604.59   -39723.028    2743.7156   -42466.744    75.730372    229.71294 
   21500    136.01889   -1273.1461    145614.45   -39734.086    2743.6563   -42477.743       75.816    229.70797 
   21550    134.17958   -1106.2214    145583.29   -39785.337    2706.5553   -42491.892    76.082768    226.60175 
   21600    132.52057   -1105.8558    145545.74   -39826.028    2673.0912   -42499.119    76.416659    223.80003 
   21650    133.45397   -1189.4143    145601.92   -39758.417    2691.9189   -42450.336    76.663081    225.37634 
   21700    131.75283   -1233.4914     145619.1   -39767.092     2657.605   -42424.697    76.700918    222.50347 
   21750    136.69787   -1229.5714    145616.73   -39702.977    2757.3522   -42460.329    76.838562    230.85463 
   21800    135.22245   -988.82181    145596.33   -39725.642    2727.5913   -42453.233    76.956063    228.36295 
   21850     134.8548   -1399.4597    145572.96   -39702.199    2720.1752   -42422.374    77.161698    227.74205 
   21900    135.95921   -1052.2172    145577.19   -39647.614    2742.4524   -42390.067    77.248772    229.60718 
   21950    137.49034    -1183.898    145608.95   -39629.968    2773.3371   -42403.306     77.48306    232.19294 
   22000    134.89301   -1053.8104    145680.14   -39648.493     2720.946   -42369.439    77.891364    227.80659 
   22050    137.56958   -1250.0726    145668.84   -39655.452    2774.9354   -42430.387    77.877983    232.32676 
   22100    135.97449   -1014.5466    145709.57   -39628.526    2742.7608   -42371.287    77.847441    229.63299 
   22150    137.68991   -1102.4179    145770.44   -39674.333    2777.3627   -42451.695    78.331731    232.52998 
   22200    133.63974   -1144.0974    145763.99   -39712.064    2695.6661    -42407.73    78.477188    225.69007 
   22250    132.49305   -1173.6958    145823.63   -39722.286     2672.536   -42394.822    78.627516    223.75354 
   22300    135.53172   -1090.0806    145873.38   -39682.334    2733.8296   -42416.164    78.707562    228.88524 
   22350    135.62429   -1369.8891    145898.47   -39723.132    2735.6967   -42458.829    79.084076    229.04157 
   22400    132.41417   -1212.6531    145779.84   -39774.775     2670.945    -42445.72    79.463272    223.62034 
   22450    137.67788   -1069.0797    145800.91   -39725.306      2777.12   -42502.426    79.734017    232.50966 
   22500    134.98413   -1176.1155    145832.62   -39757.042     2722.784   -42479.826    79.842182    227.96047 
   22550    132.10565   -1314.5379    145842.62   -39749.445    2664.7219   -42414.167    80.016726    223.09932 
   22600    134.44693   -1298.6301    145780.51   -39738.564    2711.9481   -42450.513    79.942938    227.05325 
   22650    135.39851   -1123.1035     145777.5   -39719.368    2731.1424   -42450.511    80.307611    228.66027 
   22700     133.3478   -1275.1604    145786.33   -39739.883    2689.7774    -42429.66    80.560873    225.19705 
   22750    131.27755   -1260.7372    145776.67   -39715.059     2648.018   -42363.077    80.875828    221.70082 
   22800    134.40804   -1310.0614     145786.7   -39714.385    2711.1637   -42425.549    80.865456    226.98758 
   22850    132.19223   -1020.2815    145704.07   -39727.657    2666.4682   -42394.125    80.890336    223.24553 
   22900    132.53015   -1094.9658    145800.09   -39778.458    2673.2844   -42451.742    80.756157     223.8162 
   22950    134.04369   -1199.0075    145838.43   -39788.297    2703.8143   -42492.111    80.774495    226.37226 
   23000    132.46168   -1076.8523    145796.27   -39795.309    2671.9033   -42467.212    80.948502    223.70057 
   23050    132.55867   -1031.7396    145806.64   -39750.907    2673.8596   -42424.766    81.328469    223.86436 
   23100     132.2023   -1227.3284    145773.09    -39795.07    2666.6714   -42461.741    81.374157    223.26254 
   23150     128.7239   -1055.7942    145777.25   -39842.827     2596.508   -42439.335    81.243453    217.38823 
   23200    133.54002   -1133.6253    145749.27   -39826.893    2693.6547   -42520.548    81.298158    225.52167 
   23250    134.68742   -1103.4555    145824.07   -39806.873     2716.799   -42523.672    81.251443    227.45938 
   23300    134.36441   -1187.8264    145839.84   -39810.312    2710.2836   -42520.596    81.371036     226.9139 
   23350    133.09989   -1405.9877    145767.99   -39814.444    2684.7768   -42499.221    81.701297    224.77838 
   23400    133.03963   -1306.3473    145667.55   -39767.612    2683.5613   -42451.173    81.908113    224.67662 
   23450     134.4222   -1143.6403    145609.13    -39790.87    2711.4492    -42502.32    82.242306    227.01149 
   23500    132.25332    -935.5487    145621.22   -39810.765    2667.7005   -42478.466    82.527451     223.3487 
   23550    130.85001   -963.44111    145714.06   -39767.591    2639.3941   -42406.985    82.639181     220.9788 
   23600    133.55437   -1110.8535     145679.9   -39820.394    2693.9441   -42514.338    82.796452     225.5459 
   23650    133.00998   -1139.1287    145703.02   -39827.976    2682.9632   -42510.939    83.053822    224.62654 
   23700    131.35605   -1171.2869    145700.33   -39809.346    2649.6014   -42458.948    83.164397    221.83338 
   23750    132.56068   -1161.1025    145695.52   -39799.195    2673.9002   -42473.095    83.355114    223.86776 
   23800    131.42931   -1128.3644    145677.78   -39803.315    2651.0793   -42454.394    83.694843    221.95712 
   23850     132.2569   -1172.2059    145648.62   -39803.918    2667.7727   -42471.691    83.932877    223.35474 
   23900    135.25409   -1014.5486    145702.51   -39808.875    2728.2293   -42537.104      84.0945    228.41637 
   23950    136.04511    -1234.768    145653.75   -39796.968    2744.1851   -42541.153    84.207883    229.75224 
   24000    134.84281   -1006.2092    145687.71   -39813.964    2719.9334   -42533.898    84.258043    227.72181 
   24050     134.0104   -1104.4141    145773.45   -39805.131    2703.1428   -42508.274    84.204453    226.31605 
   24100    132.83939   -946.79203    145825.67   -39790.068    2679.5221   -42469.591    84.219448    224.33844 
   24150    132.52832   -1056.7971    145752.56    -39814.38    2673.2475   -42487.627    84.492832    223.81311 
   24200    134.41249   -1023.4534    145789.15   -39839.907    2711.2533    -42551.16    84.710243    226.99508 
   24250    132.42802   -1123.6366    145774.34   -39838.993    2671.2244   -42510.217    84.992351    223.64373 
   24300    132.60342    -1060.757    145871.38   -39835.116    2674.7624   -42509.879    84.878626    223.93995 
   24350    130.16559   -1040.8689    145828.33   -39873.685    2625.5885   -42499.274    84.922165    219.82294 
   24400    130.96409   -1178.1328    145763.74   -39897.705    2641.6952     -42539.4    85.257016    221.17145 
   24450    129.94783   -982.33537    145737.27   -39919.749     2621.196   -42540.945    85.405337    219.45519 
   24500    132.62418   -804.85567    145749.87   -39910.523    2675.1811   -42585.704    85.482276      223.975 
   24550     131.2623   -957.14179    145762.32   -39887.892    2647.7103   -42535.602    85.677587    221.67506 
   24600    134.08197   -971.72433    145792.02   -39908.457    2704.5864   -42613.043    85.794107    226.43691 
   24650    130.75482    -971.5255    145825.41   -39935.802    2637.4741   -42573.276    85.856073    220.81804 
   24700    129.72411   -1099.7065    145828.28   -39875.845    2616.6834   -42492.528    85.626306    219.07738 
   24750    134.45058   -975.18602    145897.45    -39875.65    2712.0217   -42587.672    85.706486    227.05942 
   24800    134.98643   -1172.0305    145924.32    -39838.26    2722.8304    -42561.09      85.6693    227.96436 
   24850    134.48068   -1086.7967    145917.73   -39799.378    2712.6288   -42512.007    85.797222    227.11024 
   24900    131.64892   -1182.1105    145875.22   -39814.822    2655.5091   -42470.331    85.845233    222.32799 
   24950    134.03526   -1185.0312    145855.03   -39804.249    2703.6443   -42507.894    86.085461    226.35803 
   25000    135.59944   -1281.9572    145835.01   -39775.134    2735.1956    -42510.33    86.421891    228.99961 
   25050    132.23613   -1093.3235    145813.72   -39761.433    2667.3537   -42428.787    86.862978    223.31967 
   25100    136.19056   -1147.6621    145839.69   -39682.531    2747.1191    -42429.65    87.485336    229.99788 
   25150    135.36258    -1150.809     145842.4   -39724.644    2730.4178   -42455.062     87.76868     228.5996 
   25200    134.59323   -1179.4646    145870.37   -39747.322     2714.899   -42462.221    87.960544    227.30032 
   25250    133.34434   -1189.8301    145844.11   -39731.865    2689.7077   -42421.572    88.068596    225.19121 
   25300    131.12693   -1076.1211    145824.24   -39731.298    2644.9798   -42376.278    88.364253    221.44645 
   25350    131.45372   -1280.7352     145784.4   -39786.821    2651.5717   -42438.392    88.552735    221.99834 
   25400    133.37881   -1097.2917    145773.97   -39792.727     2690.403    -42483.13    88.679709    225.24942 
   25450    133.97293    -1199.512    145845.48   -39743.583    2702.3869    -42445.97    88.778047    226.25276 
   25500    134.04749   -1310.1994    145874.26   -39715.472     2703.891   -42419.363    88.740604    226.37869 
   25550    133.27927    -1350.051     145855.5   -39726.362    2688.3951   -42414.757     88.94915    225.08132 
   25600    128.89026   -1284.3066    145825.74   -39806.338    2599.8636   -42406.201    89.087149    217.66917 
   25650    135.72921   -1115.3361    145821.59   -39728.775    2737.8131   -42466.588    89.149662    229.21876 
   25700    135.17641    -1168.971     145819.1   -39716.139    2726.6625   -42442.801    89.375713    228.28519 
   25750    132.60824   -1208.7721    145854.49   -39738.945    2674.8596   -42413.805    89.764429    223.94808 
   25800    136.08396    -1060.524    145819.64     -39704.7    2744.9688   -42449.669    90.220077    229.81785 
   25850    134.19305   -988.59553    145835.91   -39677.145     2706.827   -42383.972    90.361041     226.6245 
   25900    136.34109   -1213.4519    145933.71   -39705.872    2750.1554   -42456.028    90.786042    230.25209 
   25950    134.48236   -1317.3105    145905.94   -39671.386    2712.6628   -42384.049    90.686472    227.11309 
   26000    136.33767   -1123.4873    145958.75   -39684.083    2750.0865   -42434.169    90.544363    230.24633 
   26050    135.30357   -1180.2382    145860.45   -39703.343    2729.2274    -42432.57    90.567989    228.49993 
   26100    134.81854   -1228.3126    145868.31   -39719.845     2719.444   -42439.289    90.852674    227.68083 
   26150    133.86974   -1295.6976    145834.14   -39769.296    2700.3056   -42469.601    91.230093     226.0785 
   26200    133.42669   -1250.4052    145744.18   -39744.714    2691.3686   -42436.083    91.464642    225.33027 
   26250    133.29619   -1331.3344    145653.36   -39696.379    2688.7364   -42385.116    91.931954    225.10989 
   26300    135.66541   -1178.0547    145579.87   -39718.789    2736.5262   -42455.316    91.960938    229.11101 
   26350    135.30205    -1202.286    145535.62   -39726.844    2729.1967    -42456.04    92.364441    228.49736 
   26400     135.1807   -1201.1386    145497.45   -39705.061    2726.7491    -42431.81    92.913864    228.29244 
   26450    134.35771   -1170.4105     145496.6    -39720.73    2710.1484   -42430.879    93.048264    226.90257 
   26500    134.23937   -1143.6081    145543.77   -39757.776    2707.7613   -42465.537    93.234335    226.70272 
   26550    134.53511   -1146.8302    145558.61   -39746.426    2713.7268   -42460.153    93.371755    227.20217 
   26600    132.32069   -1197.8285    145589.78   -39796.517    2669.0593   -42465.576     93.52628    223.46246 
   26650    133.07639   -1078.2005    145559.49   -39769.933    2684.3026   -42454.236    93.843477    224.73868 
   26700    136.81481   -1181.0108    145625.36   -39731.368     2759.711   -42491.079    93.916412    231.05212 
   26750    134.48516    -1245.527    145542.53   -39743.646    2712.7191   -42456.365    93.989109    227.11781 
   26800    135.11878   -1316.3709    145496.03   -39759.471       2725.5   -42484.971     94.29033    228.18787 
   26850     133.1206   -1206.2271    145443.39   -39768.524    2685.1946   -42453.719    94.572145    224.81336 
   26900    135.50126   -1264.3774    145452.26   -39788.843    2733.2152   -42522.058    94.773798     228.8338 
   26950    133.34528   -1142.0019    145355.36   -39783.396    2689.7266   -42473.122    94.999932     225.1928 
   27000    133.36897   -915.45069    145410.89   -39751.118    2690.2044   -42441.323    95.042495     225.2328 
   27050    133.31007   -1122.0757    145462.62   -39874.279    2689.0162   -42563.295    94.921102    225.13332 
   27100    132.87661   -1001.8189     145421.1   -39859.695     2680.273   -42539.968    94.985513    224.40131 
   27150    135.19734   -1226.2209    145375.89   -39863.329    2727.0848   -42590.414    95.088771    228.32055 
   27200    134.09326   -1076.2941    145380.56   -39835.025    2704.8142    -42539.84    95.113182    226.45598 
   27250    134.29523   -1240.2029    145428.72   -39854.634    2708.8881   -42563.523    95.281199    226.79706 
   27300    134.04604   -1044.9464     145466.6   -39848.355    2703.8616   -42552.217    95.329987    226.37622 
   27350    133.36989   -1253.2124    145516.86     -39836.1     2690.223   -42526.323     95.44049    225.23435 
   27400     132.3371   -1327.0546    145513.05   -39834.955    2669.3904   -42504.345    95.430641    223.49018 
   27450    131.58912   -1200.3413    145467.25   -39858.883    2654.3027   -42513.186    95.504181    222.22699 
   27500    128.43222   -1172.0892    145462.64   -39889.359    2590.6245   -42479.983    95.489955    216.89564 
   27550    132.76382    -1110.462    145461.34   -39878.344    2677.9979   -42556.342    95.656873    224.21083 
   27600    133.30976   -1066.0346    145476.99   -39870.003    2689.0101   -42559.013    95.767515     225.1328 
   27650    133.13084   -1084.5555    145513.29   -39955.524     2685.401   -42640.925    95.720082    224.83064 
   27700      131.104   -1011.2673    145604.76   -39953.299    2644.5173   -42597.816    95.849556    221.40772 
   27750    132.83564   -1087.4693    145686.81   -39932.537    2679.4465   -42611.983    95.926362    224.33211 
   27800    131.88878   -1227.9309    145717.23   -39926.436    2660.3472   -42586.783    96.169481    222.73305 
   27850    132.50455   -1147.1864    145743.27   -39848.567    2672.7681   -42521.335     96.22988    223.77297 
   27900    134.43463   -1272.5308     145717.6   -39789.965       2711.7   -42501.665     96.10481    227.03248 
   27950    133.65967   -1140.7586     145693.6   -39756.963    2696.0681   -42453.031    96.166276    225.72372 
   28000    137.34682   -1154.2216    145625.45   -39736.085    2770.4422   -42506.528    96.406612    231.95057 
   28050     136.6932   -1041.4489     145709.1   -39737.673    2757.2578   -42494.931    96.600113    230.84673 
   28100     134.8364   -1268.6221    145763.43   -39764.775    2719.8042   -42484.579    96.717625    227.71099 
   28150    133.84848   -1206.5381     145760.2   -39791.096    2699.8766   -42490.973    96.614142    226.04259 
   28200    134.56866   -1195.6982     145788.2   -39772.248    2714.4035   -42486.652    96.837077    227.25883 
   28250    135.37193   -1244.5346    145768.32   -39765.817    2730.6064   -42496.424    96.946463    228.61539 
   28300    137.20195   -1082.9066    145805.26   -39790.383    2767.5199   -42557.903    97.149007    231.70591 
   28350    134.25398   -1096.6403     145836.4   -39746.296     2708.056   -42454.352    97.347385    226.72739 
   28400    136.14312   -1031.4858    145922.43   -39769.941    2746.1622   -42516.103    97.533629    229.91777 
   28450     133.5233   -1321.4944     145947.7   -39782.402    2693.3173   -42475.719    97.827188    225.49342 
   28500    133.29724   -1180.7384    145860.19   -39827.295    2688.7575   -42516.052    98.019984    225.11166 
   28550    133.74704   -975.69333    145901.86   -39798.922    2697.8305   -42496.753    98.026875    225.87129 
   28600    133.64705   -900.63281     145995.6   -39786.492    2695.8136   -42482.305    98.212914    225.70242 
   28650    134.73863   -1115.2859    146022.84   -39768.497    2717.8321   -42486.329    98.286838    227.54588 
   28700    135.00531   -1260.0594     145968.2   -39788.362    2723.2113   -42511.573    98.395499    227.99624 
   28750      133.729   -1061.4351       145992   -39773.621    2697.4666   -42471.087    98.657859    225.84082 
   28800    133.70349   -1010.5714    146003.51   -39816.698    2696.9521    -42513.65    98.710082    225.79774 
   28850    135.53339   -1053.1805    146006.49   -39777.417    2733.8631    -42511.28    98.832921    228.88805 
   28900    136.32366   -1082.2826    146060.78   -39798.513    2749.8038   -42548.316    98.898164    230.22266 
   28950    135.71256   -1015.5058    146108.34   -39792.142    2737.4772    -42529.62    99.098871    229.19063 
   29000    133.00248   -1230.7281     146104.4   -39797.954    2682.8118   -42480.766    99.290435    224.61387 
   29050    134.30855   -1177.8284    146100.76   -39854.636    2709.1568   -42563.793    99.387792    226.81956 
   29100    134.40365   -1219.4983    146078.57   -39781.666    2711.0751   -42492.741    99.592406    226.98016 
   29150    135.10325   -1160.5966    146148.23   -39819.076    2725.1868   -42544.262    99.670461    228.16164 
   29200    135.09291   -1211.0728    146120.41   -39892.446    2724.9782   -42617.424    99.624333    228.14417 
   29250      133.031   -1209.0306    146150.43   -39901.411    2683.3872   -42584.798    99.719575    224.66204 
   29300    132.32671   -1255.7264    146162.83   -39955.793    2669.1808   -42624.974    99.784325    223.47264 
   29350    132.88562   -1087.2077    146098.06   -39938.198    2680.4547   -42618.653    99.862254    224.41653 
   29400    133.68453   -1077.1071    146103.27   -39949.021    2696.5695   -42645.591    100.09197    225.76571 
   29450    136.85054   -1035.9938    146176.76   -39895.169    2760.4316   -42655.601    100.48372    231.11245 
   29500    136.05331    -995.2644    146171.32   -39867.884    2744.3505   -42612.235    100.56799    229.76609 
   29550    135.56747   -1160.3755    146184.72     -39899.9    2734.5507   -42634.451    100.62555    228.94562 
   29600    132.95768   -1223.9112    146189.58   -39879.552    2681.9082    -42561.46    100.86994    224.53821 
   29650    135.61539   -1093.1384    146152.22   -39887.416    2735.5172   -42622.934    101.00516    229.02654 
   29700    134.54001   -1153.7804    146181.49   -39864.775    2713.8256   -42578.601    101.21903    227.21045 
   29750    136.00435   -1080.3909    146162.76   -39856.179     2743.363   -42599.542    101.50789    229.68341 
   29800    133.87668   -1202.3378    146104.64   -39857.377    2700.4454   -42557.823    101.90903    226.09021 
   29850    131.29055   -1198.6512    146120.25   -39858.577    2648.2803   -42506.857    102.08456    221.72278 
   29900    133.84869   -1272.5798    146119.78    -39881.51    2699.8809   -42581.391    102.16814    226.04295 
   29950    136.19932   -1280.5506    146055.35   -39867.383    2747.2957   -42614.678    102.54806    230.01267 
   30000     134.1632   -1168.3523    146154.02   -39891.694    2706.2249   -42597.919    102.35665    226.57409 
   30050    135.45657    -1247.262    146199.27   -39841.063    2732.3136   -42573.376    102.27977    228.75832 
   30100    134.51931   -1297.8423    146181.43   -39845.293     2713.408   -42558.701    102.16231    227.17548 
   30150    132.70792   -1256.8272    146215.39   -39872.411    2676.8702   -42549.281    102.11887    224.11641 
   30200    133.85031   -1222.7746    146223.72   -39868.629    2699.9136   -42568.542    102.32925    226.04569 
   30250    132.79656   -1433.6041    146144.53   -39889.624    2678.6583   -42568.282    102.44186    224.26612 
   30300    134.26816   -1321.1023    146069.22   -39848.765    2708.3421   -42557.107    102.59674    226.75135 
   30350    133.36703   -1154.2846    146073.02   -39899.254    2690.1653   -42589.419    102.77183    225.22953 
   30400    134.22349   -1333.1781    146149.31   -39926.509    2707.4409    -42633.95    102.84197     226.6759 
   30450    133.85209   -1232.9087    146174.63   -39925.139    2699.9494   -42625.088    102.86038    226.04869 
   30500    133.36228   -1204.5668    146179.28   -39878.227    2690.0694   -42568.296    102.93372     225.2215 
   30550    134.76673   -1225.5889    146167.27    -39893.69    2718.3987   -42612.088    103.17315    227.59332 
   30600    134.49527   -1031.9382    146115.13   -39928.451    2712.9232   -42641.374    103.66619    227.13489 
   30650    132.06211   -1079.9434    146067.97   -39995.669    2663.8435   -42659.512    103.62022    223.02577 
   30700    134.28547   -1099.3192    146130.77   -39992.129    2708.6913    -42700.82    103.82766    226.78058 
   30750    132.11837   -1071.1929    146094.95   -39978.924    2664.9784   -42643.902    104.01499     223.1208 
   30800    132.99863   -1054.0959    146141.74   -39985.333    2682.7342   -42668.067     104.2645    224.60737 
   30850    135.80178   -904.97016    146244.16   -39976.099    2739.2769   -42715.376    104.57228    229.34131 
   30900    132.07024    -983.5406    146277.28   -40022.413    2664.0076    -42686.42    104.80471    223.03951 
   30950    130.71431   -1052.4774    146282.77   -40041.528    2636.6569   -42678.185    105.16939    220.74963 
   31000    134.45846   -1180.1921    146276.98   -39934.513    2712.1807   -42646.694    105.29917    227.07273 
   31050    132.60787   -1278.3048    146300.46   -39969.331    2674.8522   -42644.183    105.54803    223.94746 
   31100    132.43662   -1174.2411    146265.72    -39948.38    2671.3978   -42619.778    105.92784    223.65825 
   31150    134.23985    -1155.972    146225.19   -39957.916    2707.7711   -42665.687    105.88334    226.70354 
   31200    130.70827   -982.65626    146284.53   -39955.689    2636.5351   -42592.224    106.01226    220.73943 
   31250     134.4715   -1249.3548    146244.81   -39931.383    2712.4437   -42643.827    106.16841    227.09475 
   31300    134.70022   -1209.8237    146183.58   -39926.384    2717.0571   -42643.441    106.36624      227.481 
   31350    130.64658   -1095.2473    146161.69   -39961.846    2635.2906   -42597.137    106.48061    220.63524 
   31400    133.37974   -1213.3351    146154.81   -39925.775    2690.4216   -42616.196    106.89546    225.25098 
   31450    132.59311   -1186.1695    146204.44   -39904.603    2674.5544   -42579.158    107.07612    223.92253 
   31500    133.64249   -1094.4272    146253.14   -39876.826    2695.7216   -42572.548    107.17356    225.69471 
   31550    133.08952   -1257.3399    146275.35   -39879.798    2684.5675   -42564.366    107.43512    224.76086 
   31600     133.4411   -1309.0974    146210.65    -39833.02    2691.6593    -42524.68    107.98274    225.35461 
   31650    133.43288   -1193.3098    146151.41   -39878.047    2691.4936    -42569.54    108.36506    225.34074 
   31700    132.61824   -1220.5971    146158.62   -39903.445    2675.0613   -42578.507     108.5185    223.96497 
   31750    133.62556    -1214.878    146197.48   -39867.161    2695.3801   -42562.541    108.93228    225.66612 
   31800    132.37687   -1348.4719    146106.17   -39897.053    2670.1926   -42567.246    108.96168    223.55735 
   31850    132.35903   -1342.2849    145952.67   -39922.586    2669.8328   -42592.419     109.1962    223.52722 
   31900    133.20318   -1245.4407     145959.9   -39892.357    2686.8603   -42579.217    109.43208    224.95282 
   31950    132.16727   -1309.5495    145921.76    -39885.16    2665.9648   -42551.124    109.54665    223.20338 
   32000    131.04436   -1237.4206    145902.51   -39854.467    2643.3144   -42497.781    110.01306    221.30701 
   32050     131.2774   -1267.5241     145915.1   -39907.767    2648.0151   -42555.782     110.4848    221.70057 
   32100    133.47983   -1223.1551    145952.64   -39845.433    2692.4406   -42537.874    110.62713    225.42002 
   32150    133.50127   -1175.2881    145930.34   -39829.768     2692.873   -42522.641    110.59628    225.45622 
   32200    132.43567    -1049.008    145984.67   -39778.156    2671.3787   -42449.535    110.57888    223.65665 
   32250    135.36964   -1233.9154    145959.19   -39808.193    2730.5601   -42538.753    110.65729    228.61151 
   32300    134.86418   -1307.0624    145912.89   -39793.686    2720.3645   -42514.051    110.99289     227.7579 
   32350    135.00844   -1166.5128    145898.24   -39721.556    2723.2744    -42444.83    110.95143    228.00153 
   32400    135.34082   -1086.4129    145940.82    -39718.63    2729.9789   -42448.608    110.88887    228.56285 
   32450    135.89159   -1208.2035    145924.92   -39764.067    2741.0885   -42505.156    111.07236    229.49298 
   32500     133.0739   -1182.7285    145893.69   -39813.772    2684.2526   -42498.024    110.94256    224.73449 
   32550    133.90488   -1082.9691    145945.73   -39829.266    2701.0143    -42530.28    111.13139    226.13784 
   32600     135.9229   -1204.0812    145927.58   -39804.626      2741.72   -42546.346    111.06111    229.54586 
   32650    133.18252   -1074.5945    145997.93   -39811.989    2686.4434   -42498.433    111.22276    224.91792 
   32700    134.61925   -1330.8635    145957.55   -39845.295     2715.424   -42560.719    111.46915    227.34427 
   32750     136.0732   -1220.7368    145942.04   -39825.645    2744.7517   -42570.396    111.63589    229.79968 
   32800    134.16405   -1194.2163    145926.01   -39795.348     2706.242   -42501.591    111.76059    226.57552 
   32850    135.59148   -1110.3458    145922.47   -39784.291    2735.0349   -42519.326    111.69726    228.98615 
   32900     135.5366   -1199.1876    145813.56   -39839.722    2733.9279    -42573.65    111.74728    228.89348 
   32950    132.01019   -1113.3874    145842.79   -39856.083    2662.7962   -42518.879    112.00558    222.93809 
   33000     130.9352   -1196.5166    145870.46    -39877.36    2641.1124   -42518.473    112.31794    221.12265 
   33050     131.1965   -1269.7813    145859.31   -39905.856    2646.3832    -42552.24    112.11457    221.56394 
   33100    134.94408   -1220.1944    145794.55   -39854.015    2721.9761   -42575.992    111.96707    227.89283 
   33150    132.55788    -1258.023    145812.03    -39909.73    2673.8437   -42583.573     112.1364    223.86303 
   33200     132.3391   -1134.8714    145905.25    -39822.89    2669.4307   -42492.321    112.38659    223.49355 
   33250    136.21512   -968.85363    145936.57   -39859.864    2747.6145   -42607.478    112.37316    230.03937 
   33300     131.2388   -1264.1238    146068.93   -39887.434    2647.2364   -42534.671    112.35532    221.63537 
   33350    131.47077   -1357.1889    145962.78   -39888.404    2651.9156   -42540.319    112.40667    222.02713 
   33400    130.31413   -1301.0939    145891.84   -39893.614    2628.5847   -42522.199    112.69664    220.07379 
   33450    133.28918   -1135.6048    145883.45   -39898.151    2688.5949   -42586.745    112.86127    225.09804 
   33500    131.46151    -1139.031    145867.06   -39887.755    2651.7288   -42539.484     113.1057    222.01149 
   33550    131.86319   -1243.9294    145833.74   -39894.535    2659.8312   -42554.366    113.34113    222.68985 
   33600    133.76316   -1106.9806    145836.56   -39888.327    2698.1557   -42586.483    113.48798    225.89851 
   33650    133.91577   -1108.6485     145896.1   -39856.228    2701.2339   -42557.462    113.60362    226.15623 
   33700    132.74967   -1247.7014    145948.51   -39890.067    2677.7124    -42567.78    113.76461    224.18693 
   33750    130.67623   -1163.0388    146004.63   -39922.078    2635.8888   -42557.967    114.11178    220.68532 
   33800    132.66439   -1313.7721    145994.65    -39978.05    2675.9922   -42654.042    114.21786     224.0429 
   33850    128.36171   -1331.9667    145901.44    -39961.15    2589.2022   -42550.353    114.52554    216.77656 
   33900    131.10031   -1286.4041     145846.8   -39918.589    2644.4429   -42563.032    114.56548    221.40149 
   33950    132.66439   -1162.8783    145831.74   -39916.342    2675.9922   -42592.334    114.78713    224.04291 
[...]
   92000    130.70605   -1086.9716    146207.94   -39991.724    2636.4902   -42628.214    267.47946    220.73567 
   92050    132.49203   -1088.0634    146247.59   -39949.429    2672.5155   -42621.945    267.44419    223.75182 
   92100    131.75487   -1061.7366    146254.31   -39971.244    2657.6461    -42628.89    267.54611    222.50691 
   92150    133.57784   -1068.8326    146223.85   -39965.345    2694.4175   -42659.763    267.92825    225.58554 
   92200    129.34351    -1173.551    146213.81   -39970.262    2609.0063   -42579.268    267.48666    218.43463 
   92250    134.55187   -953.32619    146155.91   -39943.611    2714.0647   -42657.675    267.11895    227.23047 
   92300    131.42474   -1059.3504    146168.54   -39964.786     2650.987   -42615.773    267.17679    221.94939 
   92350    131.65984   -1056.9847    146156.84   -40006.851    2655.7293    -42662.58    267.69002    222.34643 
   92400    132.76392   -1239.8908    146152.49   -39969.908    2677.9998   -42647.908     267.9446    224.21099 
   92450    131.98852    -1096.555    146140.57   -39967.632    2662.3592   -42629.991    268.10183    222.90151 
   92500    129.85722   -1126.2754    146160.59   -40016.079    2619.3684   -42635.447    267.91914    219.30218 
   92550    129.92008   -1121.7466    146203.81   -40014.562    2620.6363   -42635.198    268.15562    219.40833 
   92600    130.06374   -1161.3954    146139.34   -39996.504    2623.5342   -42620.039    267.94948    219.65095 
   92650    129.03754   -1114.1674    146086.12    -40006.61    2602.8345   -42609.444    267.96813     217.9179 
   92700    133.51948   -1061.4688       146103   -39951.464    2693.2404   -42644.704    267.82633    225.48699 
   92750    132.61202   -1148.6554    146159.75   -39914.966    2674.9359   -42589.902    267.95459    223.95447 
   92800    133.10709   -1154.5396    146181.08   -39843.913    2684.9219   -42528.835    268.23628    224.79053 
   92850    129.96207   -1298.6339     146166.7   -39867.813    2621.4833   -42489.296    268.55081    219.47924 
   92900    134.09368   -1392.7944    146057.35       -39892    2704.8227   -42596.823    268.55999    226.45669 
   92950    133.70463   -1128.9023    146008.49   -39866.417     2696.975   -42563.392    268.71989    225.79966 
   93000    132.17482   -1149.9138    146005.01    -39889.08     2666.117   -42555.197    268.63165    223.21612 
   93050    134.94054   -1221.9435    146067.54   -39860.634    2721.9047   -42582.539    268.50888    227.88686 
   93100    131.00215   -1000.3152    146116.23   -39909.898     2642.463   -42552.361    268.71569    221.23573 
   93150    132.90379    -995.5899    146185.35   -39876.892    2680.8212   -42557.714     268.7085    224.44721 
   93200    133.78444   -1024.3875    146175.56     -39844.5    2698.5849   -42543.085    268.95511    225.93444 
   93250    135.29975   -999.18737     146293.6   -39825.273    2729.1504   -42554.423    268.90415    228.49349 
   93300    132.36625   -993.69723    146319.22   -39812.959    2669.9783   -42482.937    269.10556     223.5394 
   93350    134.33975   -1187.7885    146316.58   -39806.944    2709.7862    -42516.73       269.43    226.87225 
   93400    135.58269   -1208.1694    146283.74   -39808.864    2734.8577   -42543.722    269.38743    228.97132 
   93450    136.64583   -1124.4928    146226.37   -39769.899    2756.3024   -42526.201    269.60037    230.76674 
   93500    134.42675    -1311.102    146202.57   -39794.474    2711.5411   -42506.015    269.82333    227.01918 
   93550    133.80142   -1227.2134    146095.41   -39776.885    2698.9273   -42475.812    270.15166    225.96311 
   93600    136.34269   -1337.9805    146042.43   -39790.446    2750.1877   -42540.633    270.43239     230.2548 
   93650    134.76422   -1127.7068    145937.63   -39792.034    2718.3482   -42510.382    270.55974    227.58909 
   93700    134.07862   -1147.9949    145984.42   -39742.885    2704.5188   -42447.403    271.19739    226.43125 
   93750    136.28715   -1128.6713     145985.4   -39723.163    2749.0675    -42472.23    271.80624    230.16101 
   93800    133.58036   -1253.6412    145996.79   -39779.795    2694.4684   -42474.263    272.39914     225.5898 
   93850    135.14738   -1243.5378    146023.64    -39737.45    2726.0769   -42463.526    272.76412    228.23616 
   93900    134.71818   -1311.8048    145981.02   -39732.709    2717.4195   -42450.129     272.8163    227.51133 
   93950    136.02386   -1186.0536    145925.45   -39750.527    2743.7565   -42494.283    272.98084    229.71635 
   94000    137.14745   -1112.3909     145936.1    -39757.81    2766.4207   -42524.231    273.16462    231.61388 
   94050     133.5715   -1210.4008    145851.69   -39825.859    2694.2897   -42520.149    273.33413    225.57484 
   94100    133.09955   -1328.1626     145882.5   -39787.892    2684.7699   -42472.662    273.47688    224.77781 
   94150    133.67255   -1290.2335    145828.43   -39784.666     2696.328   -42480.994    273.63632    225.74549 
   94200    132.27298   -1064.7624    145833.06   -39813.045    2668.0969   -42481.142    273.94687    223.38189 
   94250    131.81676   -1294.0996    145835.53   -39871.045    2658.8946   -42529.939    273.94164    222.61144 
   94300    134.07459   -1050.8165    145831.88   -39895.722    2704.4376    -42600.16    274.18462    226.42445 
   94350     133.3538   -1134.0602    145809.15   -39871.094    2689.8984   -42560.992     274.4251    225.20718 
   94400    132.67121   -1099.7251    145788.92    -39909.12    2676.1298   -42585.249    274.71516    224.05442 
   94450    131.84466   -1122.0043    145836.14   -39902.421    2659.4574   -42561.879    275.10425    222.65856 
   94500    132.70068   -1220.1572     145795.4   -39869.761    2676.7242   -42546.485    275.19918    224.10419 
   94550    133.26553   -1173.3039    145792.29   -39861.364    2688.1179   -42549.482    275.02932    225.05811 
   94600    131.88494   -1232.4265    145854.63   -39877.124    2660.2697   -42537.393    274.68373    222.72657 
   94650    133.42715   -1255.2679    145860.72   -39835.956    2691.3779   -42527.334     274.9326    225.33105 
   94700    134.45921   -1208.0231    145858.08   -39841.961    2712.1958   -42554.157    274.72788    227.07399 
   94750    133.39746    -1009.995    145918.38   -39895.006     2690.779   -42585.785    275.04987     225.2809 
   94800    134.24974   -1195.1034    145896.89   -39880.037    2707.9705   -42588.007      275.232    226.72024 
   94850    133.12574   -1099.2371    145878.63   -39863.731    2685.2982    -42549.03    275.23728    224.82203 
   94900    133.40127   -1080.5679    145866.95   -39875.356    2690.8559   -42566.212    275.38253    225.28735 
   94950    135.72568   -1111.0151    145912.31   -39912.548    2737.7419    -42650.29    275.69329     229.2128 
   95000    134.46841   -1184.3064    145937.38   -39861.783    2712.3813   -42574.164    275.84124    227.08952 
   95050    136.58954   -1082.2883    145978.43   -39853.587     2755.167   -42608.754     276.0037    230.67168 
   95100    134.28049   -1011.9573    146012.87   -39889.546    2708.5907   -42598.137    276.30895    226.77216 
   95150     136.6468   -1106.4773    146003.65   -39839.313    2756.3219   -42595.635    276.51398    230.76837 
   95200    133.03199   -1056.4479    145942.76   -39864.416     2683.407   -42547.823    276.77468     224.6637 
   95250     133.7233   -1205.4835    145943.68   -39899.462    2697.3516   -42596.813     276.8175    225.83118 
   95300    131.48571   -1404.8611    145882.34   -39895.136    2652.2169   -42547.353     277.0704    222.05236 
   95350    130.57898   -1260.2321     145918.9   -39914.016    2633.9272   -42547.943    276.92991    220.52109 
   95400    133.22361   -1140.9038    145970.54   -39869.507    2687.2723   -42556.779    277.21251    224.98732 
   95450    133.96503   -1328.3781    145915.16    -39831.02    2702.2276   -42533.248    276.98325    226.23942 
   95500    135.97859   -1038.1329    145911.61   -39813.055    2742.8434   -42555.898    276.86967    229.63991 
   95550    134.49016   -1139.6986    145967.83   -39831.675    2712.8202   -42544.495    276.80306    227.12627 
   95600    132.90733   -1254.1888    145953.91   -39885.644    2680.8926   -42566.537    276.74596    224.45319 
   95650    130.48299   -1272.4124    145901.18   -39919.735    2631.9909   -42551.726    276.99994    220.35897 
   95700    135.37695   -1326.4384    145816.56   -39916.164    2730.7075   -42646.872    276.67586    228.62386 
   95750    133.30387   -994.78949    145799.71   -39928.267    2688.8912   -42617.158     276.5635    225.12285 
   95800    132.21482   -896.76035    145871.52   -39914.725    2666.9238   -42581.649     276.8586    223.28367 
   95850    132.96562   -1132.1493    145867.55    -39961.86    2682.0684   -42643.928    276.91799    224.55163 
   95900    131.84372   -1099.5753    145934.43   -39950.972    2659.4384    -42610.41    276.95522    222.65697 
   95950    132.68309   -1135.7935    145960.93   -39933.384    2676.3694   -42609.753    277.19143    224.07449 
   96000    134.03656   -1108.5765    145966.66   -39964.459    2703.6704   -42668.129    277.46387    226.36022 
   96050    132.28056   -1230.2278    145862.56   -39979.989    2668.2499   -42648.239    277.65531     223.3947 
   96100    134.59383   -1050.0421    145891.26    -39976.51    2714.9111   -42691.421    277.96691    227.30133 
   96150    131.00056   -1172.8111    145937.96   -39985.977    2642.4308   -42628.407    277.90276    221.23304 
   96200     135.7667   -1064.7538    145957.79   -39976.602    2738.5694   -42715.171    278.70141    229.28207 
   96250    131.93364   -1274.1584    145975.05   -39976.486    2661.2522   -42637.738    279.10638    222.80882 
   96300    132.98494   -1196.4145    146019.05    -39947.32    2682.4581   -42629.778     279.0568    224.58425 
   96350    132.47248   -1246.6982    145992.21   -39943.288    2672.1211   -42615.409    279.02398    223.71881 
   96400    132.87652   -1161.1025    145976.18   -39993.531     2680.271   -42673.802    278.92828    224.40114 
   96450    134.05356   -1124.8903    145989.73   -39984.473    2704.0134   -42688.487      278.481    226.38893 
   96500     133.3991   -1008.7214    146065.95   -39975.575    2690.8122   -42666.387    278.98385    225.28369 
   96550    137.28771   -1186.4661    146097.31   -39926.119    2769.2498   -42695.369    279.09972    231.85074 
   96600    134.48119   -1324.8772    146083.82   -39931.367    2712.6391   -42644.006    279.27586     227.1111 
   96650    132.71411   -1087.7421    146075.54   -39902.651     2676.995   -42579.646    279.18747    224.12687 
   96700    132.71876   -1118.6866    146083.67   -39993.645    2677.0888   -42670.734    278.66509    224.13472 
   96750    134.25267   -1206.0298    146050.42   -39992.971    2708.0295       -42701    279.01088    226.72518 
   96800    132.16336   -1045.7425    146058.63   -40032.267    2665.8858   -42698.153    278.87923    223.19677 
   96850    134.07565   -1234.9824    146065.62    -39983.51    2704.4589   -42687.968    278.74436    226.42623 
   96900     134.1344   -1210.0216    146136.56   -40005.406    2705.6439    -42711.05    279.17575    226.52545 
   96950    131.40499    -1083.453    146102.69   -39996.968    2650.5887   -42647.556    279.40578    221.91604 
   97000    132.09935   -1218.0789    146080.85   -39992.769    2664.5946   -42657.363     279.8063    223.08867 
   97050    131.30462   -1023.3697    146101.52   -40033.231    2648.5641   -42681.795    279.96539    221.74654 
   97100    129.18896   -1096.0068    146169.98   -39987.327    2605.8888   -42593.216    280.10124    218.17362 
   97150    134.54883   -1219.6648    146246.52   -40016.401    2714.0034   -42730.404    280.36955    227.22533 
   97200    133.96001   -1102.5422    146318.36   -40020.501    2702.1263   -42722.627    280.56575    226.23094 
   97250    131.77733    -1158.674    146338.43   -40020.862    2658.0991   -42678.961     280.7689    222.54484 
   97300    133.96225   -1220.4094    146389.49   -39996.971    2702.1716   -42699.142      280.604    226.23473 
   97350    133.58129   -1356.3596    146418.42   -40009.897    2694.4872   -42704.385    280.73623    225.59137 
   97400    132.25514   -1112.8419    146484.14   -39996.894    2667.7371   -42664.631    281.30093    223.35176 
   97450    135.02278   -1251.4059    146506.63   -39945.253    2723.5636   -42668.817    281.36201    228.02574 
   97500    133.62718   -1241.7956    146493.38    -39939.19    2695.4129   -42634.602    281.27169    225.66887 
   97550    134.88977   -1025.5936    146459.32    -39926.31    2720.8806   -42647.191    281.48517    227.80112 
   97600    134.78919   -1103.4403    146561.93   -39896.408    2718.8519    -42615.26    281.65492    227.63126 
   97650    134.67635   -1126.7031    146615.19   -39886.144    2716.5756    -42602.72    281.88102    227.44069 
   97700    134.40007   -1199.8429    146590.39   -39910.648    2711.0029   -42621.651    281.85666    226.97412 
   97750    133.17597   -1253.1397     146610.6   -39884.888    2686.3114   -42571.199    281.45011    224.90687 
   97800     132.3817   -1286.5456    146546.73   -39890.673      2670.29   -42560.963    281.49512     223.5655 
   97850     132.6199   -1220.5322    146494.73     -39942.8    2675.0947   -42617.895     281.6645    223.96777 
   97900    130.78995   -1170.3139    146463.23   -39953.725    2638.1827   -42591.908    281.93591    220.87737 
   97950    132.52237   -1156.0676    146488.97   -39958.223    2673.1274    -42631.35    282.25085    223.80306 
   98000    131.60835   -1244.2993    146505.36   -39921.436    2654.6906   -42576.127    282.11638    222.25947 
   98050    136.99025   -1215.2904    146502.46   -39958.071    2763.2498   -42721.321     281.7844     231.3484 
   98100    133.06477   -1135.1399    146525.19   -39990.538    2684.0684   -42674.606    281.60962    224.71907 
   98150    134.39533   -1107.4075    146484.61   -39961.653    2710.9073    -42672.56    281.51753    226.96611 
   98200    132.24505   -1193.4093       146478   -39950.775    2667.5336   -42618.309    281.58654    223.33472 
   98250    136.72002   -1199.6155    146374.21   -39924.516    2757.7989   -42682.315     281.5653    230.89203 
   98300    134.86555   -1111.5834     146388.2   -39947.007     2720.392   -42667.399    281.57299    227.76021 
   98350    135.66022    -1096.241    146354.65   -39916.578    2736.4215       -42653    281.55531    229.10225 
   98400    131.29669   -1093.7072    146322.56   -39933.205    2648.4042   -42581.609    281.48823    221.73315 
   98450    134.76825   -1202.7814    146345.14   -39915.344    2718.4295   -42633.774      281.979     227.5959 
   98500    133.41481   -1023.7958    146346.93   -39942.607    2691.1289   -42633.736    282.49073     225.3102 
   98550     133.7864   -1216.9322     146351.4   -39945.673    2698.6245   -42644.298     282.9617    225.93776 
   98600    132.20948   -1136.6453    146304.48   -40009.224    2666.8162    -42676.04    283.47595    223.27466 
   98650    134.50434   -1231.8802     146325.8   -40004.554     2713.106    -42717.66    283.54036     227.1502 
   98700    133.04078   -1062.2844    146404.56   -39955.588    2683.5845   -42639.173    283.31607    224.67856 
   98750    134.08887   -1156.6931    146483.12   -39943.022    2704.7257   -42647.747    283.49148    226.44857 
   98800    134.36657   -1083.5866    146477.66    -39935.51     2710.327   -42645.837    283.51277    226.91753 
   98850    131.14626   -1190.9402    146457.57   -39963.145    2645.3699   -42608.515    283.73337    221.47911 
   98900    132.10483    -1359.079    146382.32   -39979.253    2664.7052   -42643.958    283.80675    223.09792 
   98950    133.47152   -1335.3576    146273.16   -39930.591    2692.2729   -42622.864    284.13073    225.40598 
   99000    130.52757   -1363.4095    146250.59   -39980.786    2632.8901   -42613.677    284.31681    220.43426 
   99050    134.71162   -927.49966    146255.75   -39934.632    2717.2872    -42651.92     284.2154    227.50026 
   99100    130.97425   -889.95615    146337.76   -39952.453    2641.9001   -42594.353    284.32389    221.18861 
   99150     132.2934   -969.96935     146379.3   -39962.418    2668.5089   -42630.927    284.29718    223.41638 
   99200     131.6205   -971.61805     146379.8   -39967.697    2654.9356   -42622.633    284.56762    222.27998 
   99250     133.6091   -1129.1016    146347.38   -39904.912    2695.0481    -42599.96    285.07321    225.63833 
   99300    136.23939   -934.15398    146340.16   -39928.885    2748.1041   -42676.989    284.89033    230.08035 
   99350    133.03476   -1196.3925    146388.89   -39956.602     2683.463   -42640.065    285.06879    224.66839 
   99400    136.49984   -1149.0654    146327.41   -39956.176    2753.3575   -42709.534    285.00456    230.52019 
   99450    136.80172   -1059.5815    146365.03   -39899.153    2759.4469   -42658.599    285.25451    231.03001 
   99500    134.06341   -1117.4839     146415.4   -39895.224     2704.212   -42599.436    285.47061    226.40556 
   99550    132.17874   -1141.8884    146391.93    -39925.74    2666.1962   -42591.936    285.44507    223.22275 
   99600    135.20929   -1125.2171    146420.42   -39869.283    2727.3258   -42596.608    285.90934    228.34072 
   99650    132.29484   -1202.2917    146411.04   -39910.514     2668.538   -42579.052    286.02766    223.41881 
   99700    133.49277   -1049.8894    146422.82   -39904.626    2692.7017   -42597.327    285.97986    225.44188 
   99750    133.22236   -1189.0882    146492.43   -39912.254     2687.247   -42599.501    286.27604     224.9852 
   99800    133.59874   -1217.4555    146437.06   -39916.795    2694.8392   -42611.634    286.05301    225.62084 
   99850    132.81692   -1250.5918    146295.29   -39924.814    2679.0689   -42603.883    285.87301     224.3005 
   99900    133.66362   -987.78743     146250.6   -39894.486    2696.1478   -42590.634     285.9111     225.7304 
   99950    133.43288   -1149.0233    146216.97   -39949.038    2691.4935   -42640.532    286.28853    225.34073 
  100000    134.64006   -1200.3152    146130.41   -39965.476    2715.8437    -42681.32    286.22814    227.37941 
Loop time of 318.662 on 40 procs for 100000 steps with 6768 atoms

Performance: 135.567 ns/day, 0.177 hours/ns, 313.812 timesteps/s
99.6% CPU use with 40 MPI tasks x no OpenMP threads

MPI task timing breakdown:
Section |  min time  |  avg time  |  max time  |%varavg| %total
---------------------------------------------------------------
Pair    | 49.944     | 133.91     | 258.59     | 639.4 | 42.02
Neigh   | 1.9492     | 4.0778     | 11.217     | 163.2 |  1.28
Comm    | 35.851     | 120.79     | 149.68     | 337.5 | 37.90
Output  | 0.17177    | 0.17787    | 0.27627    |   3.8 |  0.06
Modify  | 8.1288     | 58.298     | 129.85     | 740.4 | 18.29
Other   |            | 1.412      |            |       |  0.44

Nlocal:    169.2 ave 383 max 111 min
Histogram: 32 0 0 0 0 0 0 0 1 7
Nghost:    1272.7 ave 1629 max 856 min
Histogram: 16 0 0 0 0 0 0 0 16 8
Neighs:    0 ave 0 max 0 min
Histogram: 40 0 0 0 0 0 0 0 0 0
FullNghs:  19942.8 ave 69125 max 6871 min
Histogram: 32 0 0 0 0 0 0 0 0 8

Total # of neighbors = 797712
Ave neighs/atom = 117.865
Neighbor list builds = 6140
Dangerous builds = 0

write_data		${DIR}/data.eq-${NAME}-${TEMP}
write_data		run_8/data.eq-${NAME}-${TEMP}
write_data		run_8/data.eq-het_freeze_8-${TEMP}
write_data		run_8/data.eq-het_freeze_8-225
undump          1

reset_timestep  0

unfix           2
unfix           3
unfix           4


################################################
#######         Run Simulation         #########
################################################

log				${DIR}/log.run_${NAME}
log				run_8/log.run_${NAME}
log				run_8/log.run_het_freeze_8
