
# Create simulation box and atoms

read_data data.graphite_substrate_1000
  orthogonal box = (0 0 -1.03859) to (49.22 49.0196 61.1006)
  3 by 2 by 5 MPI processor grid
  reading atoms ...
  6768 atoms
  reading velocities ...
  6768 velocities
group water type 1
4008 atoms in group water
group graphite type 2
2760 atoms in group graphite

# Define potential

pair_style sw
pair_coeff * * mWC.sw mW C
Reading potential file mWC.sw with DATE: 2019-02-27


# Fix graphite atoms in place

fix 5 graphite setforce 0.0 0.0 0.0
velocity graphite set 0.0 0.0 0.0


# Equilibration of molecular water

# Add velocity/set timestep

velocity	    water create ${TEMP} ${SEED} rot yes dist gaussian
velocity	    water create 225 ${SEED} rot yes dist gaussian
velocity	    water create 225 3551 rot yes dist gaussian
timestep	    5.0

# Define output

compute			1 water msd
compute			3 water temp
thermo	    	50
thermo_style	custom step temp press vol etotal ke pe c_1[4] c_3

# Neighbor lists

neigh_modify    delay 0 every 1 check yes

# Set fixes

fix             1 water momentum 10 linear 1 1 1 rescale
fix             2 water nve
fix             3 water temp/csvr ${TEMP} ${TEMP} 500.0 ${SEED}
fix             3 water temp/csvr 225 ${TEMP} 500.0 ${SEED}
fix             3 water temp/csvr 225 225 500.0 ${SEED}
fix             3 water temp/csvr 225 225 500.0 3551
fix             4 water press/berendsen iso ${PRES} ${PRES} 1000.0 modulus 20000
fix             4 water press/berendsen iso -1000 ${PRES} 1000.0 modulus 20000
fix             4 water press/berendsen iso -1000 -1000 1000.0 modulus 20000

# Run 0.5 ns equilibration

dump		    1 all atom 2000 ${DIR}/eq.${NAME}-${TEMP}.dump
dump		    1 all atom 2000 run_8/eq.${NAME}-${TEMP}.dump
dump		    1 all atom 2000 run_8/eq.het_freeze_8-${TEMP}.dump
dump		    1 all atom 2000 run_8/eq.het_freeze_8-225.dump

reset_timestep  0

run	            100000
Neighbor list info ...
  update every 1 steps, delay 0 steps, check yes
  max neighbors/atom: 2000, page size: 100000
  master list distance cutoff = 7.76
  ghost atom cutoff = 7.76
  binsize = 3.88, bins = 13 13 17
  1 neighbor lists, perpetual/occasional/extra = 1 0 0
  (1) pair sw, perpetual
      attributes: full, newton on
      pair build: full/bin/atomonly
      stencil: full/bin/3d
      bin: standard
Per MPI rank memory allocation (min/avg/max) = 4.121 | 4.236 | 4.566 Mbytes
Step Temp Press Volume TotEng KinEng PotEng c_1[4] c_3 
       0    133.23112   -1309.3276    149926.08   -35971.017    2687.4238   -38658.441            0          225 
      50    176.40778   -1268.1014    148949.61   -36350.844    3558.3463   -39909.191   0.87155093    297.91651 
     100    169.47818   -1465.7037    148278.79    -36748.46    3418.5683   -40167.028    1.9839185    286.21383 
     150    163.12872   -1590.9314    147411.57   -37170.019    3290.4926   -40460.511    2.8281127    275.49091 
     200    160.35233   -1275.7102    146593.39   -37450.347    3234.4896   -40684.836     3.623082    270.80215 
     250     154.8932   -1390.6359    146021.15   -37658.607    3124.3726   -40782.979    4.3332814    261.58279 
     300    153.78801   -1265.2836    145747.67   -37901.761    3102.0796   -41003.841    4.8789845    259.71635 
     350    151.33346   -1060.4951    145384.97   -38053.769    3052.5687   -41106.338    5.4394488    255.57114 
     400    149.01899   -1152.1819    145061.76   -38216.428    3005.8832   -41222.312    6.0899322    251.66247 
     450    147.14842   -1178.6353    144670.33   -38327.206    2968.1516   -41295.358    6.6424177    248.50346 
     500    146.64926   -1162.5908    144633.82   -38461.304    2958.0829   -41419.387    7.0609694    247.66047 
     550    144.43507   -1153.2932    144366.18   -38564.226    2913.4203   -41477.646    7.5420681    243.92117 
     600    143.97513   -1090.8191    144171.51   -38695.208    2904.1428   -41599.351    8.0957608    243.14443 
     650    142.18907   -915.76613    144317.45   -38739.024    2868.1159    -41607.14     8.516047    240.12814 
     700    142.95477    -1169.319    144297.74   -38835.004     2883.561   -41718.565    8.9016515    241.42125 
     750    141.28117   -1301.0304    144000.41   -38950.504    2849.8024   -41800.307    9.3745804    238.59487 
     800    140.92258   -1082.5608    143746.25   -39007.886    2842.5692   -41850.455    9.8831218    237.98929 
     850    136.28019   -805.68949     143794.5   -39118.202    2748.9271   -41867.129    10.346493    230.14926 
     900    138.89374   -1018.5129    143840.69    -39124.72    2801.6453   -41926.366    10.685806      234.563 
     950    136.01582   -924.02603    143822.57    -39230.37    2743.5944   -41973.965    10.921031    229.70278 
    1000    133.91343   -1133.5467    143927.97   -39282.769    2701.1867   -41983.956    11.085283    226.15227 
    1050    138.00633   -1062.7029    143836.89   -39314.051    2783.7452   -42097.796    11.348762    233.06434 
    1100    136.91431   -991.06466    143777.81   -39356.052    2761.7179    -42117.77    11.614968    231.22014 
    1150    138.43743   -1172.0076    143585.24   -39351.261     2792.441   -42143.702    11.932578    233.79239 
    1200    136.09663   -887.15357     143531.4   -39380.771    2745.2243   -42125.996    12.116417    229.83925 
    1250      134.074   -855.86301     143690.5   -39409.978    2704.4255   -42114.404    12.327649    226.42344 
    1300    135.16714   -883.30875    143921.59   -39416.569    2726.4755   -42143.045    12.557299    228.26953 
    1350    132.64058   -969.45007    143999.99   -39480.368    2675.5119    -42155.88    12.870265     224.0027 
    1400    131.92285   -1052.4015    143965.92   -39517.933    2661.0345   -42178.967    13.231005     222.7906 
    1450    132.02359   -920.77215    143966.51   -39506.248    2663.0666   -42169.314    13.448699    222.96073 
    1500    133.04575   -921.75636    144070.01   -39492.654    2683.6846   -42176.339    13.738324    224.68694 
    1550    133.46292   -876.46771    144211.82   -39516.817    2692.0994   -42208.917    13.845624    225.39146 
    1600     134.8942   -1038.2112    144124.65   -39546.467      2720.97   -42267.437    14.076849     227.8086 
    1650    135.21961   -898.75062    144151.43   -39569.507    2727.5338   -42297.041    14.201651    228.35814 
    1700    135.49458   -980.89817    144079.67   -39568.057    2733.0805   -42301.138     14.49665    228.82252 
    1750    136.54385   -968.29418    144224.27   -39569.108    2754.2454   -42323.353    14.736315    230.59452 
    1800    133.35149   -922.45891    144324.01   -39602.197    2689.8518   -42292.049    14.918222    225.20328 
    1850    132.46366   -1080.1127    144357.97   -39678.837    2671.9432    -42350.78    15.194663    223.70391 
    1900    131.43365   -1029.1903    144347.64   -39697.447    2651.1668   -42348.614    15.377353    221.96445 
    1950    133.01678   -1086.4396    144397.96   -39678.377    2683.1003   -42361.477    15.607836    224.63802 
    2000    133.90837   -1208.2083    144408.95   -39659.638    2701.0846   -42360.723     15.74477    226.14373 
    2050    134.84965   -991.02919    144251.07   -39638.802    2720.0715   -42358.874    15.977176    227.73337 
    2100    135.90117   -999.14083    144343.42   -39607.331    2741.2818   -42348.613    16.185719    229.50917 
    2150    135.27751    -1199.671    144278.05   -39558.964    2728.7017   -42287.665    16.523878    228.45592 
    2200    134.17148   -948.00369     144355.8   -39578.666    2706.3919   -42285.058    16.780814    226.58807 
    2250    133.83843   -821.41179    144405.62   -39569.057     2699.674   -42268.731    17.065344    226.02563 
    2300    134.37963   -970.83945     144351.2   -39596.791    2710.5905   -42307.381    17.297066    226.93959 
    2350    133.84056   -1135.2294    144338.87   -39600.327    2699.7169   -42300.044    17.562997    226.02922 
    2400     132.3404   -1035.8314    144323.41   -39631.277    2669.4569   -42300.734    17.860052    223.49575 
    2450    132.66963   -994.85445    144274.35   -39639.051    2676.0978   -42315.148    18.033636    224.05175 
    2500    132.99809   -873.49234    144328.46    -39658.66    2682.7233   -42341.383    18.111226    224.60646 
    2550     132.8858   -866.51288    144341.52   -39614.997    2680.4583   -42295.456    18.396866    224.41682 
    2600    133.32831   -1170.1649    144294.86   -39611.819    2689.3841   -42301.203    18.649077    225.16413 
    2650     136.0955   -1081.2333    144222.82   -39596.162    2745.2016   -42341.363    18.853735    229.83734 
    2700    134.81526   -984.42311    144320.73   -39600.082    2719.3776   -42319.459     19.00442    227.67528 
    2750    134.81839   -997.65467    144359.76   -39632.522    2719.4409   -42351.963    19.161082    227.68058 
    2800    133.05691   -1047.1546    144474.99    -39639.07    2683.9099   -42322.979     19.47867     224.7058 
    2850    134.85907    -1011.538    144343.64   -39616.308    2720.2613    -42336.57    19.715094    227.74926 
    2900    135.79484    -873.3865    144300.11    -39630.15     2739.137   -42369.287     20.02451    229.32959 
    2950    135.59199   -975.61371    144328.05   -39620.762    2735.0452   -42355.807    20.280116    228.98702 
    3000     133.6903   -993.66508    144310.95   -39668.374     2696.686    -42365.06    20.477168    225.77546 
    3050    133.89604   -974.59952    144239.43     -39644.2    2700.8359   -42345.035    20.774236     226.1229 
    3100    131.84662   -1013.0323    144272.85   -39623.854    2659.4968   -42283.351    20.872302    222.66186 
    3150    133.64967   -1031.2449    144386.05   -39633.367    2695.8663   -42329.234    21.002546    225.70683 
    3200    134.17344   -835.04548    144420.79    -39644.09    2706.4314   -42350.522    21.173179    226.59138 
    3250    137.48833   -983.59238    144519.11   -39626.125    2773.2965   -42399.422    21.263248    232.18955 
    3300    136.15299   -1060.3248    144558.62   -39597.867    2746.3612   -42344.228    21.490652    229.93444 
    3350    134.51364   -985.30583     144542.4   -39634.038    2713.2936   -42347.332    21.756672     227.1659 
    3400    134.95258   -865.20556    144597.24   -39658.775    2722.1476   -42380.923    21.948482    227.90719 
    3450    135.41624   -815.19796    144863.14   -39723.148    2731.5001   -42454.648    22.135758    228.69021 
    3500    135.77491   -1046.4247    145019.48    -39758.01    2738.7349   -42496.744    22.374697    229.29593 
    3550    134.94519   -832.35244    145015.39   -39773.727    2721.9985   -42495.725    22.584761    227.89471 
    3600    133.32049   -1079.2672    145215.99   -39799.673    2689.2265     -42488.9    22.804225    225.15093 
    3650    132.93616   -995.55307    144970.73   -39853.539    2681.4742   -42535.014    23.107732    224.50188 
    3700    133.49506   -998.94848    145137.91   -39838.651    2692.7477   -42531.399    23.171141    225.44573 
    3750    134.62736   -931.20318    145103.93   -39827.806    2715.5876   -42543.393    23.336222    227.35797 
    3800    130.27929   -929.19799    145093.58   -39848.875     2627.882   -42476.757    23.657129    220.01496 
    3850    131.44666   -1088.9726    145114.27   -39887.294    2651.4291   -42538.723    23.836994    221.98641 
    3900    134.82177   -947.15191    145108.03   -39842.075     2719.509   -42561.584    24.222185    227.68627 
    3950    132.13141   -1111.1567    145099.18   -39879.695    2665.2415   -42544.936    24.386618    223.14282 
    4000    133.33419   -978.27525    145025.12   -39832.182    2689.5028   -42521.685    24.536264    225.17406 
    4050    133.42117    -956.8268    145138.17   -39847.537    2691.2574   -42538.794    24.630699    225.32096 
    4100    132.51626   -926.23222    145164.12   -39808.208    2673.0042   -42481.212    24.616462    223.79274 
    4150    131.87102   -905.65069    145166.14   -39844.077    2659.9891   -42504.066    24.638701    222.70308 
    4200     134.7659    -796.8576    145221.68    -39844.01     2718.382   -42562.392    24.797692    227.59192 
    4250    131.92944   -1133.1187    145268.17    -39861.01    2661.1674   -42522.177    24.977469    222.80173 
    4300    131.27784   -1070.4978    145131.72   -39906.922    2648.0239   -42554.946    25.164714    221.70131 
    4350    135.27757   -1092.0471    145080.73   -39821.813     2728.703   -42550.516    25.263953    228.45603 
    4400    133.16465   -921.30333     144960.3    -39855.57     2686.083   -42541.653    25.402661    224.88774 
    4450    131.70766   -1006.5144    144859.42   -39851.006    2656.6938     -42507.7    25.642553    222.42718 
    4500    132.30787   -904.79305    144921.68   -39846.357    2668.8008   -42515.158    25.828611    223.44082 
    4550     132.3757   -958.84335    145040.06   -39847.861    2670.1691    -42518.03    26.005846    223.55538 
    4600    135.42267   -994.42645    145053.02   -39825.922    2731.6298   -42557.552    26.208691    228.70107 
    4650    132.02599   -1108.0682    145020.77   -39866.459    2663.1149   -42529.573    26.413626    222.96477 
    4700    132.38064    -979.0415    144937.76   -39881.612    2670.2685    -42551.88    26.562861     223.5637 
    4750    131.98416    -1086.013    144900.42   -39866.989    2662.2711    -42529.26    26.701552    222.89414 
    4800    133.54303   -975.86002    144871.43   -39840.117    2693.7154   -42533.832     26.72589    225.52675 
    4850     134.3739   -1050.3486    144902.25   -39778.454    2710.4751   -42488.929    26.766786    226.92993 
    4900    135.97088    -902.0773    144888.85   -39682.816    2742.6879   -42425.504    26.890561    229.62689 
    4950    132.39367   -915.48473    144981.97   -39739.224    2670.5315   -42409.756    26.908114    223.58572 
    5000     135.5307   -963.44224    145028.37   -39756.332     2733.809   -42490.141    27.098843    228.88352 
    5050    136.78124    -1105.371    144902.61   -39744.483    2759.0337   -42503.517    27.247957    230.99542 
    5100    134.16709   -852.84353    144903.63   -39776.408    2706.3033   -42482.711    27.515103    226.58065 
    5150    134.77855   -1018.6557    144923.14   -39730.932    2718.6373   -42449.569    27.872804    227.61329 
    5200    134.96301   -1079.8594    144915.22   -39752.304    2722.3579   -42474.661    28.101512     227.9248 
    5250    132.62609   -777.13826    144927.17   -39813.535    2675.2197   -42488.755    28.187338    223.97823 
    5300    131.54542   -1100.2211    144882.28   -39846.649    2653.4214   -42500.071    28.234886     222.1532 
    5350    134.29579   -890.77263    145011.95   -39816.557    2708.8994   -42525.456    28.284857    226.79801 
    5400    134.70034   -982.11783    145056.16   -39804.623    2717.0596   -42521.683    28.393341     227.4812 
    5450    136.55293   -1097.1466    144954.37   -39805.763    2754.4285   -42560.192    28.456436    230.60985 
    5500    134.78899   -1015.1185    145067.21   -39862.971    2718.8477   -42581.818    28.700679    227.63091 
    5550    133.51518   -1007.9305    145060.29   -39829.888    2693.1536   -42523.041    28.864344    225.47972 
    5600    133.13726   -947.41916    145183.94    -39837.12    2685.5304    -42522.65    29.081464    224.84148 
    5650    133.29798   -1059.8962     145214.4   -39872.064    2688.7724   -42560.836    29.206315    225.11291 
    5700    135.16786   -837.77842    145101.05   -39842.148      2726.49   -42568.638    29.253257    228.27075 
    5750    133.61857   -969.02359    145109.38   -39853.139     2695.239   -42548.378    29.352616    225.65432 
    5800    132.84554    -980.3703    145106.37     -39871.2    2679.6463   -42550.846    29.454044    224.34884 
    5850    131.41519   -991.93423     144959.7   -39842.892    2650.7944   -42493.687    29.623665    221.93326 
    5900    131.76379   -812.13585    145087.51   -39840.013    2657.8261   -42497.839     29.65677    222.52198 
    5950    134.39278   -1032.8833    145275.33   -39845.243    2710.8558   -42556.099    29.892956     226.9618 
    6000    134.87179   -1139.2075    145313.93   -39860.454    2720.5179   -42580.972    30.079997    227.77075 
    6050    134.78814   -1020.6232    145253.74    -39811.02    2718.8306   -42529.851    30.250882    227.62948 
    6100    131.36029   -1003.6779    145402.72   -39841.025    2649.6869   -42490.712    30.501713    221.84054 
    6150    135.31508   -1039.9423    145253.17    -39860.69    2729.4597    -42590.15    30.555993    228.51938 
    6200    131.49645   -1033.4963    145231.85   -39874.978    2652.4335   -42527.412    30.561714    222.07049 
    6250    132.09559   -916.33761    145337.11   -39883.126    2664.5189   -42547.645    30.796247    223.08233 
    6300    135.40224   -1102.5675    145213.93   -39837.683    2731.2178   -42568.901    30.848196    228.66658 
    6350    134.57306   -910.68097    145096.36   -39889.395    2714.4922   -42603.887    30.941166    227.26625 
    6400    133.15825    -975.0165    145084.03   -39899.691    2685.9539   -42585.645    31.079339    224.87693 
    6450     135.4221    -971.4786    145072.09   -39848.283    2731.6184   -42579.902    31.240236    228.70011 
    6500    135.83369   -1115.0547     145173.5   -39832.099    2739.9206    -42572.02    31.373884    229.39521 
    6550    132.80703   -1033.2064     145037.7   -39869.618    2678.8695   -42548.488     31.46477     224.2838 
    6600    135.20112   -1044.5993    145209.57   -39887.436     2727.161   -42614.597    31.489077    228.32693 
    6650    133.53546   -1029.2789    145006.72   -39891.406    2693.5626   -42584.969    31.685118    225.51396 
    6700      134.245    -1111.423     144982.6   -39889.186    2707.8749   -42597.061    31.854949    226.71223 
    6750    133.97931    -1037.995    144777.67   -39894.984    2702.5155     -42597.5     32.00819    226.26353 
    6800    134.62812   -848.60455     144808.7   -39874.082    2715.6029   -42589.685    32.115402    227.35925 
    6850    133.16718   -833.42694    145024.34   -39879.862    2686.1341   -42565.996    32.341967    224.89202 
    6900    131.80101    -890.9763    145004.66   -39872.587    2658.5767   -42531.164    32.621745    222.58483 
    6950     133.5482   -1128.6901    144994.04   -39862.671    2693.8196    -42556.49    32.767498    225.53548 
    7000    133.56374   -991.85994    144680.22   -39841.586     2694.133   -42535.719    32.892336    225.56172 
    7050    132.63814   -979.24629    144691.93   -39864.196    2675.4626   -42539.659    33.084288    223.99857 
    7100    132.98878   -1061.9639    144617.08   -39932.271    2682.5356   -42614.806    33.243486    224.59074 
    7150    131.85926   -860.66856    144611.48   -39932.103    2659.7517   -42591.855    33.599017     222.6832 
    7200    132.51376   -893.95503    144753.01    -39960.76    2672.9539   -42633.714    33.729317    223.78853 
    7250    131.52762   -1099.9125    144811.29   -39925.402    2653.0622   -42578.464     33.90036    222.12313 
    7300    132.43738   -928.50324    144762.88   -39947.696    2671.4132   -42619.109    34.130874    223.65954 
    7350    132.09513   -899.47965    144802.19   -39977.213    2664.5096   -42641.723     34.18663    223.08155 
    7400    133.35863   -998.75219    144727.11   -39964.108    2689.9958   -42654.104    34.375219    225.21534 
    7450    132.77641   -1068.7087    144608.66   -39953.744    2678.2518   -42631.995    34.474571    224.23208 
    7500    132.25836   -854.28799    144687.43   -39958.416    2667.8021   -42626.218    34.645115    223.35721 
    7550    130.82182   -961.74257    144653.89   -39988.345    2638.8255    -42627.17     34.77603    220.93119 
    7600    135.20572   -870.35711    144790.68   -39915.282    2727.2536   -42642.536    35.044495    228.33468 
    7650    133.06568   -1172.5505    144872.14   -39883.729    2684.0867   -42567.816     35.23089    224.72061 
    7700    131.70715   -1045.3533    144789.31   -39896.586    2656.6836    -42553.27    35.360244    222.42633 
    7750    135.41257   -1083.0066    144622.42   -39840.691    2731.4261   -42572.117    35.524926    228.68401 
    7800    134.23444   -1141.4772    144446.01   -39846.337    2707.6619   -42553.999    35.564972     226.6944 
    7850    132.49752   -976.48395    144385.85   -39911.967    2672.6263   -42584.593    35.714009     223.7611 
    7900     134.9831   -918.60434    144383.79   -39909.125    2722.7632   -42631.889    35.823444    227.95873 
    7950    133.85375   -921.20434    144518.68   -39931.647    2699.9829    -42631.63    35.965072    226.05149 
    8000    134.83732   -1129.4224    144544.45   -39870.092    2719.8227   -42589.914    36.250054    227.71254 
    8050    137.95052   -1004.7726    144466.61   -39836.515    2782.6194   -42619.134    36.466272    232.97009 
    8100    133.11991   -1033.8634    144539.49   -39950.708    2685.1806   -42635.889    36.427695    224.81219 
    8150     132.7362   -972.19577    144526.53    -39895.31    2677.4406   -42572.751    36.519068    224.16418 
    8200     133.1972   -947.42624    144709.06   -39865.064    2686.7396   -42551.804    36.739384    224.94271 
    8250    135.23808   -875.48294    144876.83   -39861.801    2727.9065   -42589.708    37.001644    228.38935 
    8300    133.59698   -1095.8641    144801.93   -39828.378    2694.8036   -42523.181    37.240306    225.61786 
    8350    136.01291   -1088.2785     144640.4   -39817.344    2743.5356    -42560.88    37.501033    229.69786 
    8400    134.66132   -910.10678    144726.65   -39798.164    2716.2725   -42514.436    37.701549    227.41531 
    8450    133.48965    -1185.758    144626.25   -39832.139    2692.6385   -42524.777    37.799722    225.43659 
    8500    131.79792   -977.14583    144680.17   -39897.134    2658.5145   -42555.648    38.006573    222.57962 
    8550    133.59875   -1085.5277       144645   -39907.154    2694.8394   -42601.993      38.0531    225.62085 
    8600    132.20434    -983.2782    144573.23   -39937.274    2666.7125   -42603.987    38.248931    223.26598 
    8650    132.09735   -1037.9237    144582.69   -39947.442    2664.5544   -42611.996     38.48518    223.08529 
    8700    129.08342   -979.61873    144506.13   -39968.552    2603.7599   -42572.312    38.600239    217.99538 
    8750    129.62441   -1003.9713    144572.35    -39978.38    2614.6722   -42593.052    38.713304      218.909 
    8800    131.20579   -1013.5239    144597.47   -39989.418    2646.5705   -42635.988    38.881813    221.57962 
    8850    131.09561   -984.17921    144653.18   -39976.382     2644.348    -42620.73    38.990492    221.39355 
    8900    131.99253   -1022.6435    144745.19   -39984.518      2662.44   -42646.958    39.151359    222.90827 
    8950    132.02136   -1057.7201    144831.03    -39960.27    2663.0215   -42623.291     39.42419    222.95696 
    9000    132.45292   -898.04493    144818.56   -39949.576    2671.7266   -42621.303    39.471987    223.68578 
    9050    133.40881   -979.38831    144818.68   -39953.217     2691.008   -42644.225     39.55547    225.30008 
    9100     131.1579   -1087.5565    144967.27   -39926.056    2645.6046    -42571.66    39.711656    221.49876 
    9150    131.46101   -949.91189    144869.11   -39925.953    2651.7187   -42577.672    39.875662    222.01065 
    9200    130.80559   -925.61815    144883.81   -39964.719    2638.4981   -42603.217    40.038178    220.90378 
    9250    132.65161    -955.2291    144972.85   -39979.084    2675.7345   -42654.819    40.358204    224.02133 
    9300    132.68318   -1098.2198    145030.08   -39961.992    2676.3712   -42638.363     40.45838    224.07463 
    9350    133.74825   -946.22205    145054.93   -39973.115    2697.8549    -42670.97    40.513678    225.87332 
    9400    132.13558   -1102.1275    145013.41   -39988.332    2665.3254   -42653.658    40.766632    223.14985 
    9450     133.2751     -825.692    144932.21    -39968.91    2688.3108    -42657.22    40.931537    225.07426 
    9500    133.91935   -860.02757    145112.29   -39976.717    2701.3062   -42678.023    41.013279    226.16228 
    9550    132.42825   -985.73519    145082.53     -39938.8     2671.229   -42610.029    41.135635    223.64411 
    9600    134.23672   -814.10078    145223.07   -39887.369    2707.7079   -42595.077    41.374807    226.69825 
    9650    136.15767   -1076.4244    145179.66   -39857.335    2746.4556   -42603.791    41.535567    229.94234 
    9700    135.22461   -943.68377    145247.32   -39825.947    2727.6347   -42553.582     41.79001    228.36659 
    9750     136.2837   -1042.5505    145337.49   -39851.695    2748.9978   -42600.693    42.137608    230.15518 
    9800    132.37452   -1005.4758    145186.82   -39914.782    2670.1453   -42584.927     42.46333    223.55338 
    9850     134.0364   -860.41835    145271.38   -39878.288    2703.6672   -42581.955    42.590622    226.35995 
    9900    131.88588   -1101.5475    145294.86   -39830.474    2660.2888   -42490.763    42.896453    222.72817 
    9950    134.88024   -975.72609    145265.39    -39816.25    2720.6883   -42536.939    43.194782    227.78502 
   10000    133.30203   -940.84767     145320.4   -39818.069    2688.8542   -42506.924      43.3776    225.11975 
   10050    134.90717    -998.5571    145291.95   -39784.173    2721.2316   -42505.404    43.614541     227.8305 
   10100    135.36669   -1031.6617    145185.37   -39833.433    2730.5008   -42563.933    43.740217    228.60654 
   10150    133.76989   -912.71894    145344.99   -39827.269    2698.2915    -42525.56    43.814258    225.90988 
   10200    134.01408     -1064.92     145194.7   -39830.556     2703.217   -42533.773    43.941943    226.32226 
   10250    133.61434   -989.17592    145283.51   -39844.726    2695.1537    -42539.88    43.972991    225.64717 
   10300    133.07864   -953.40625    145165.36   -39877.757    2684.3481   -42562.105    43.895867    224.74249 
   10350    132.44247   -941.63599    145192.03   -39839.579    2671.5159   -42511.095     44.00095    223.66813 
   10400     133.1516   -897.12051    145190.79   -39836.673    2685.8199   -42522.493     44.02275    224.86571 
   10450    134.11682   -1185.2926     145073.2   -39854.604    2705.2894   -42559.893    44.234465    226.49577 
   10500    132.06773   -1034.9644    144963.22   -39892.107    2663.9568   -42556.064    44.297333    223.03527 
   10550    131.67531   -785.36794    145087.01   -39865.772    2656.0413   -42521.813    44.255995    222.37255 
   10600    132.80509   -1040.2914    145116.23   -39888.688    2678.8304   -42567.518    44.426105    224.28053 
   10650    132.10164   -1067.8232    144988.52    -39900.06    2664.6409   -42564.701    44.549829    223.09254 
   10700    132.28707   -971.33006    144897.71   -39923.817    2668.3812   -42592.198    44.730672    223.40569 
   10750    134.63196   -954.04242    145016.36   -39857.447    2715.6803   -42573.127     44.95676    227.36572 
   10800    132.32032   -945.99381    145012.48   -39848.303     2669.052   -42517.355    45.228385    223.46185 
   10850     136.3424   -989.44992    145023.93   -39847.155    2750.1818   -42597.337    45.184046     230.2543 
   10900    131.20843   -1100.8893    144948.66   -39895.971    2646.6239   -42542.595    45.379911    221.58409 
   10950     132.3059   -880.14934     144917.2   -39899.211     2668.761   -42567.972    45.592805    223.43748 
   11000    131.36435   -990.21441    144878.41   -39918.551    2649.7689    -42568.32    45.788662     221.8474 
   11050    135.31902   -743.58559    145022.45   -39842.931     2729.539    -42572.47    46.024818    228.52602 
   11100    131.62458   -980.46943    145134.98   -39850.051    2655.0181   -42505.069    46.187186    222.28689 
   11150    133.69027   -1126.8259    145220.58   -39897.046    2696.6853   -42593.731    46.367841     225.7754 
   11200    133.61593   -1118.5307     145097.4    -39873.37    2695.1859   -42568.556    46.420718    225.64987 
   11250    132.07122   -984.14851    145131.82    -39891.46    2664.0273   -42555.487    46.476899    223.04117 
   11300    133.25513   -1136.2439    144980.38   -39886.584    2687.9081   -42574.492    46.544986    225.04054 
   11350    132.43432   -1015.4341    145020.43   -39902.071    2671.3515   -42573.423    46.815739    223.65437 
   11400    133.65946    -1115.519    144975.73   -39892.416    2696.0639    -42588.48    47.196576    225.72338 
   11450    133.78713   -1049.0996     144915.5   -39900.019    2698.6392   -42598.658    47.555667    225.93899 
   11500    133.38962   -1118.5912    144902.22   -39891.631    2690.6209   -42582.252    47.811039    225.26767 
   11550    133.36905   -917.92528     144914.3   -39925.106    2690.2061   -42615.312    47.860369    225.23294 
   11600     132.1554   -960.45151    145104.96   -39888.017    2665.7254   -42553.742    48.067453    223.18333 
   11650    132.39112    -1086.768    145139.83   -39876.522    2670.4801   -42547.002    48.306453    223.58141 
   11700    133.71473   -912.42476    145251.76   -39894.899    2697.1788   -42592.078    48.497129    225.81672 
   11750    131.45529   -1047.4338    145271.96   -39908.741    2651.6032   -42560.344    48.682061    222.00098 
   11800    132.42156   -975.10397    145226.88   -39882.092     2671.094   -42553.186    48.802512    223.63281 
   11850    131.51463   -876.03165    145262.06   -39862.837    2652.8001   -42515.637    48.946758    222.10119 
   11900    131.53223   -1090.0761    145196.21   -39896.647    2653.1552   -42549.803    48.914849    222.13091 
   11950    131.46974   -1001.8982    145172.44   -39887.465    2651.8948    -42539.36    49.167103    222.02539 
   12000    133.79879   -1123.6161     145031.2   -39894.229    2698.8743   -42593.104    49.229368    225.95867 
   12050    132.47571   -1149.7394    144904.38   -39945.801    2672.1864   -42617.987    49.503026    223.72427 
   12100    128.62396    -828.3567    144788.05   -39981.089     2594.492   -42575.581    49.663869    217.21944 
   12150    131.06667   -903.01957    144830.32   -39991.584    2643.7643   -42635.348    49.987398    221.34468 
   12200    129.33522   -1165.8657    144857.77   -40013.329     2608.839   -42622.168    50.141164    218.42062 
   12250    132.70313   -927.94764    144797.48    -40010.28    2676.7735   -42687.053    50.273069    224.10832 
   12300    130.17044   -900.61835    144812.62   -40001.656    2625.6863   -42627.342    50.546797    219.83113 
   12350    131.97739   -1026.1319    144850.48   -40002.788    2662.1346   -42664.922    50.737684    222.88271 
   12400    131.27157   -1088.8858    144805.82   -39994.747    2647.8975   -42642.644    50.817173    221.69073 
   12450    133.12967   -990.71541    144735.72   -39985.436    2685.3775   -42670.813     51.01369    224.82868 
   12500    135.40822   -880.18138     144845.7   -39938.683    2731.3383   -42670.021    51.290057    228.67666 
   12550    130.50066   -930.03508    145016.17   -39946.595    2632.3473   -42578.942    51.581455    220.38882 
   12600    133.15194   -994.32974    145001.71   -39896.225    2685.8266   -42582.052     51.68649    224.86628 
   12650    132.24668   -1038.0691    144815.32   -39933.142    2667.5664   -42600.709    51.909895    223.33747 
   12700    133.47693   -978.51028    144729.42   -39948.974    2692.3821   -42641.356    52.129566    225.41513 
   12750    130.85644   -850.97881    144861.44   -39958.644    2639.5239   -42598.168    52.511605    220.98966 
   12800    135.27247   -972.87677    145079.27   -39895.878    2728.6001   -42624.478    52.809462    228.44741 
   12850    135.76154    -872.1377     145228.5   -39861.739    2738.4653   -42600.205    52.873616    229.27336 
   12900    132.32783   -922.64789    145360.79   -39918.164    2669.2034   -42587.368    52.967156    223.47452 
   12950    131.39646   -1063.8471    145410.37   -39938.781    2650.4166   -42589.198    53.224873    221.90163 
   13000    132.26954   -1028.0881    145519.03   -39974.276    2668.0277   -42642.304     53.23408    223.37609 
   13050    132.34303   -1177.7316    145391.39   -39952.361      2669.51   -42621.871    53.582041     223.5002 
   13100    133.67507   -1082.0462    145261.25   -39967.772    2696.3789   -42664.151    53.880913    225.74975 
   13150    131.08923   -901.52357    145239.87   -39963.847    2644.2195   -42608.067    54.101121    221.38279 
   13200    130.00273   -941.49843    145383.86   -39989.678    2622.3035   -42611.982    54.258827    219.54791 
   13250    134.58746   -989.80111    145440.92   -39970.255    2714.7827   -42685.037    54.214179    227.29057 
   13300    133.36174   -1149.9978    145317.11    -39950.51    2690.0586   -42640.569    54.303041    225.22059 
   13350    132.54495   -997.12052    145216.88   -39952.386    2673.5829   -42625.969    54.447117    223.84119 
   13400    132.89953   -1095.7978    145188.47   -39933.614    2680.7353    -42614.35    54.604093    224.44001 
   13450    136.24782   -1002.1554    145226.35   -39874.822    2748.2741   -42623.096    54.819252    230.09458 
   13500    135.57268    -1092.473    145260.39   -39940.059    2734.6557   -42674.715    55.021029    228.95441 
   13550    134.17926   -956.56182    145392.91   -39939.357    2706.5489   -42645.906    55.068855    226.60122 
   13600    134.04648   -1124.0927     145298.4   -39918.269    2703.8706    -42622.14    55.347191    226.37698 
   13650    135.87428   -915.03369    145194.95    -39960.35    2740.7393    -42701.09    55.471638    229.46375 
   13700    134.41807   -1071.5578    145209.21   -39938.634    2711.3659       -42650     55.64477    227.00451 
   13750    135.27104   -1101.1179    145160.66   -39924.322    2728.5712   -42652.893    55.749213      228.445 
   13800    131.52311    -1043.576    145144.65   -39907.661    2652.9712   -42560.633    55.939625    222.11551 
   13850    131.52374   -879.15262    145222.51   -39936.671     2652.984   -42589.655    56.076107    222.11658 
   13900    133.69872   -829.50033    145384.14   -39871.145    2696.8558   -42568.001    56.104401    225.78968 
   13950     133.6641    -1009.412    145575.59   -39881.935    2696.1575   -42578.093    56.241164    225.73121 
   14000    137.31289   -930.76275    145567.11   -39860.334    2769.7576   -42630.092    56.394354    231.89326 
   14050    134.42216   -964.57646    145554.15   -39885.353    2711.4484   -42596.801    56.745044    227.01142 
   14100    136.10352   -1057.7182    145546.58   -39861.444    2745.3635   -42606.808    57.075834     229.8509 
   14150    132.38459   -1008.3139    145495.57    -39927.16    2670.3484   -42597.508     57.40271    223.57039 
   14200     131.7398   -1084.7453    145309.34   -39970.868    2657.3422    -42628.21    57.463012    222.48147 
   14250    130.51027   -1041.1152    145266.43   -39965.268    2632.5411   -42597.809     57.50362    220.40504 
   14300    133.63219   -894.70736    145468.42   -39955.597    2695.5138    -42651.11    57.723492    225.67732 
   14350    131.79594   -993.64839     145558.9   -39955.022    2658.4747   -42613.497     57.86639    222.57628 
   14400    132.46458   -1178.9275    145558.31    -39998.52    2671.9618   -42670.482     57.95214    223.70547 
   14450    131.77234   -1093.0642    145474.44   -39944.423    2657.9986   -42602.422    58.028816    222.53642 
   14500    133.73787   -1035.8595    145351.28   -39957.332    2697.6455   -42654.977    58.021455    225.85579 
   14550    133.86206   -996.80612     145385.4   -39902.974    2700.1505   -42603.124    58.134188    226.06552 
   14600    132.85782   -1076.0572    145303.64   -39918.361    2679.8939   -42598.255    58.382494    224.36957 
   14650      135.194   -894.29979     145289.1   -39918.755    2727.0173   -42645.773    58.464717     228.3149 
   14700    132.12598   -1152.9813    145353.52   -39940.309    2665.1318   -42605.441    58.544673    223.13364 
   14750    132.86693   -1000.1741    145317.65   -39908.342    2680.0776    -42588.42    58.541539    224.38495 
   14800    132.80118   -981.26447    145352.26   -39936.387    2678.7514   -42615.138    58.616661    224.27392 
   14850    131.96975   -1006.0566    145335.63   -39981.302    2661.9805   -42643.283    58.840848     222.8698 
   14900    132.04352   -984.18897    145205.65   -39996.102    2663.4685    -42659.57    58.989263    222.99438 
   14950    133.30699   -953.25694    145237.59   -39954.934    2688.9542   -42643.888    59.098992    225.12813 
   15000     134.4249   -1058.9822    145107.28   -39974.965    2711.5036   -42686.469    59.346304    227.01604 
   15050     133.7354   -964.94051    145178.84   -39962.713    2697.5957   -42660.309    59.395051    225.85162 
   15100    131.61505   -1135.0056    145172.59     -40030.5    2654.8259   -42685.326     59.61354    222.27079 
   15150    131.07846   -1034.6962    145032.11   -40029.005    2644.0023   -42673.007    59.884745     221.3646 
   15200    131.91062   -928.34244    144918.93   -40024.989    2660.7879   -42685.777    60.256136    222.76995 
   15250    132.01161   -1031.9217    144964.29    -40022.54     2662.825   -42685.365    60.464504     222.9405 
   15300    132.18855   -1047.5672    144914.16   -40044.129     2666.394   -42710.523    60.539492    223.23932 
   15350     130.9645   -881.59643    144979.03     -40002.3    2641.7035   -42644.004    60.618327    221.17215 
   15400    130.53035   -949.29645    144944.45   -39976.159    2632.9462   -42609.105    60.736115    220.43895 
   15450    131.97328   -967.67224    144971.33   -39973.509    2662.0516    -42635.56    61.025184    222.87576 
   15500    133.68094   -1064.9774    144941.54   -39939.427    2696.4972   -42635.924    61.139775    225.75965 
   15550    137.01086   -1204.7934    144930.59   -39880.655    2763.6654   -42644.321     61.25916     231.3832 
   15600    131.60918   -932.59454    144821.91   -39904.257    2654.7073   -42558.964     61.39217    222.26087 
   15650    130.26487   -1144.6844    144876.88   -39916.252    2627.5911   -42543.843    61.544782     219.9906 
   15700    132.99414   -920.33801    144825.66   -39908.614    2682.6437   -42591.257    62.001896    224.59979 
   15750    132.86278   -861.77709    144823.92   -39961.861     2679.994   -42641.855    62.242843    224.37795 
   15800    132.85828   -1075.2075     144890.1   -40010.362    2679.9032   -42690.266    62.389644    224.37035 
   15850    134.85254   -1136.1757    144898.43   -40012.352    2720.1298   -42732.481    62.828285    227.73825 
   15900    131.80924   -867.85965    144833.64    -40059.46    2658.7429   -42718.203    63.048626    222.59874 
   15950    130.58516   -979.14799    144886.01   -40041.207    2634.0518   -42675.259    63.218234    220.53152 
   16000    132.37111   -1051.5293    144838.39   -40047.399    2670.0764   -42717.475    63.301892    223.54761 
   16050    132.13182   -923.70447     144857.4   -39997.946    2665.2496   -42663.196    63.460723     223.1435 
   16100    134.79137    -888.8067    144963.39   -39993.213    2718.8959   -42712.109    63.612442    227.63495 
   16150    134.03269   -1105.7369    144976.73   -39983.275    2703.5924   -42686.867    63.716618    226.35369 
   16200    128.88262   -1041.5812    144791.78   -40052.943    2599.7096   -42652.653     63.96391    217.65627 
   16250     131.4509   -1015.0635    144602.45   -40033.157    2651.5147   -42684.672    64.041073    221.99357 
   16300    132.69828   -922.34046    144749.34   -40039.155    2676.6758   -42715.831    64.191719    224.10014 
   16350    130.93672    -925.0845    144883.55   -40067.024    2641.1432   -42708.167    64.356312    221.12523 
   16400     130.9601   -984.79592    144904.89   -40057.192    2641.6148   -42698.806    64.664926    221.16472 
   16450    130.42106   -965.94691    144919.32   -40040.338    2630.7417    -42671.08    64.826995    220.25438 
   16500    133.12378   -965.84709    144928.59   -39999.191    2685.2587   -42684.449    65.062694    224.81873 
   16550    133.06978   -1032.1862    145005.37   -39975.778    2684.1694   -42659.947    65.420134    224.72753 
   16600    134.52538   -980.89149    145047.04   -39934.577    2713.5306   -42648.108    65.431522    227.18574 
   16650    133.92246   -860.86368    145242.34   -39906.302     2701.369   -42607.671    65.241523    226.16754 
   16700    135.27094   -1003.7812    145249.35   -39900.106    2728.5692   -42628.675    65.152417    228.44483 
   16750    134.08749   -935.99855    145231.75   -39912.166    2704.6977   -42616.864    65.099089    226.44623 
   16800    135.89866   -928.46319    145313.48   -39936.243    2741.2312   -42677.474    65.050416    229.50493 
   16850    131.14532   -1213.3919     145211.7   -39972.703    2645.3509   -42618.054    65.067746    221.47752 
   16900    130.17418   -982.90193    144975.47   -40019.196    2625.7619   -42644.958    64.915689    219.83746 
   16950     134.2407   -963.73496    145058.14   -40066.083    2707.7881   -42773.871    65.022989    226.70497 
   17000    133.19733   -1020.2648    144933.91    -40005.05    2686.7421   -42691.792    64.977186    224.94292 
   17050    131.17441   -1057.7834    144883.05   -40014.122    2645.9375   -42660.059    65.080594    221.52663 
   17100    134.07176   -1073.2065    144700.34   -40007.741    2704.3805   -42712.122    65.187899    226.41967 
   17150    134.39675   -1115.5754    144737.14   -40001.709    2710.9359   -42712.645    65.293135    226.96851 
   17200    133.61802   -1115.5225    144636.21    -40048.01    2695.2279   -42743.238    65.412055    225.65339 
   17250    131.89645   -982.09837    144685.53   -40049.902     2660.502   -42710.404    65.533753    222.74602 
   17300    130.89922   -978.83193     144776.7   -40055.279    2640.3867   -42695.666    65.555223     221.0619 
   17350    131.76307   -935.73146    144783.97   -40054.557    2657.8116   -42712.369    65.486433    222.52077 
   17400    132.69063   -975.29795    144854.03   -40023.818    2676.5215   -42700.339    65.539189    224.08722 
   17450    131.42604   -1121.7252    144770.82   -40041.792    2651.0133   -42692.806     65.61774    221.95159 
   17500    134.60918   -923.26908    144784.16   -39989.712    2715.2209   -42704.933    65.868024    227.32726 
   17550    133.48321   -1015.3697    144861.82   -39960.153    2692.5088   -42652.662    65.995132    225.42573 
   17600    131.97551   -1104.0941    144781.42   -40019.724    2662.0967   -42681.821    65.833563    222.87953 
   17650    131.57012   -1135.5993    144755.92   -40012.237    2653.9195   -42666.156    65.864991    222.19491 
   17700    131.77712   -1013.2642    144691.89   -40026.265     2658.095    -42684.36    65.708335    222.54449 
   17750    133.85273   -1122.1554    144675.97    -39962.36    2699.9624   -42662.323    65.749397    226.04977 
   17800    132.95538   -1112.7303    144573.89   -39971.966    2681.8618   -42653.828    65.822162    224.53433 
   17850    133.63853   -963.46256    144565.27    -39983.53    2695.6418   -42679.171    65.919129    225.68804 
   17900    134.17619   -1201.2484    144385.44   -39952.142     2706.487   -42658.629    66.081424    226.59603 
   17950    132.23233   -883.16915    144318.99   -39901.651     2667.277   -42568.928    66.256442    223.31324 
   18000    136.05741    -1067.015    144359.85    -39912.24    2744.4332   -42656.674    66.305955    229.77301 
   18050    136.02984   -943.94056    144341.94   -39866.877    2743.8773   -42610.754    66.323067    229.72647 
   18100    137.23138   -888.14774    144486.81   -39830.778    2768.1137   -42598.891    66.611888    231.75562 
   18150    135.28877   -811.70493    144562.92   -39930.976     2728.929   -42659.905    66.733489    228.47495 
   18200    134.30159   -1160.7412     144582.2   -39940.034    2709.0164    -42649.05    66.794797     226.8078 
   18250    136.21258   -886.06905    144588.04   -39965.528    2747.5632   -42713.091    66.969276    230.03507 
   18300    132.18489   -887.40035    144785.49    -39978.85    2666.3201   -42645.171    67.042292    223.23313 
   18350    134.35584   -942.39658    144768.12   -39998.639    2710.1106   -42708.749    67.017534    226.89941 
   18400    132.40741   -879.02977     144812.6   -40025.449    2670.8085   -42696.258    67.156731    223.60891 
   18450    133.85303   -846.89023    144927.31   -39991.103    2699.9684   -42691.071    67.151725    226.05028 
   18500    134.30284   -948.44608    145015.59    -39953.56    2709.0416   -42662.601    67.387872    226.80991 
   18550    133.16153    -1060.076    144991.75   -40012.072    2686.0201   -42698.092    67.497326    224.88248 
   18600    131.57493   -953.99187    145010.01   -40025.889    2654.0165   -42679.906    67.478864    222.20303 
   18650    133.88629   -976.43461    145052.77    -40060.25    2700.6394    -42760.89     67.37038    226.10645 
   18700    130.19484   -965.93258     144891.1   -40069.424    2626.1785   -42695.603    67.506843    219.87234 
   18750    131.53889   -952.43661     145045.4     -39998.6    2653.2896    -42651.89    67.620805    222.14217 
   18800    132.98489   -1039.9573    144879.13   -40048.413     2682.457    -42730.87    67.690887    224.58416 
   18850    130.80656   -992.27942    144866.48   -40091.175    2638.5176   -42729.692    67.971193    220.90541 
   18900    131.22157   -857.31281    144987.94   -40082.495     2646.889   -42729.384    68.201871    221.60629 
   18950    130.54865   -882.09508    145044.63   -40046.555    2633.3153   -42679.871     68.56194    220.46986 
   19000     134.4773   -1129.2798    145062.53   -39993.112    2712.5608   -42705.673    68.559895    227.10455 
   19050     132.0235   -1068.1325       144901   -39959.701    2663.0647   -42622.765    68.921864    222.96057 
   19100    132.93129   -962.68697    144862.76   -39936.082    2681.3759   -42617.458     69.02236    224.49365 
   19150    132.93606   -962.88326    144902.44   -39952.435    2681.4721   -42633.907    69.204015    224.50171 
   19200    132.93829   -962.89921    144913.01    -39968.64    2681.5171   -42650.157    69.436687    224.50547 
   19250    135.14245   -1136.1892    144892.49   -39946.901    2725.9774   -42672.879    69.669173    228.22784 
   19300    134.00683   -1043.2123    144731.06   -39924.502    2703.0708   -42627.573    69.917651    226.31002 
   19350    132.16064   -1171.8924    144654.67   -39942.166    2665.8311   -42607.997    70.051538    223.19218 
   19400    133.93157   -1017.1967    144602.28    -39916.04    2701.5526   -42617.592    70.190847    226.18291 
   19450    133.84441    -783.2936    144675.62   -39901.962    2699.7946   -42601.757    70.557483    226.03572 
   19500    134.85386   -987.76266    144853.69   -39951.091    2720.1563   -42671.247    70.902309    227.74047 
   19550     131.7961   -913.34188    144855.49   -40003.755    2658.4778   -42662.232    71.417327    222.57654 
   19600    128.87454   -1012.4833    144866.68   -40041.772    2599.5465   -42641.319    71.530929    217.64262 
   19650    133.84877   -946.18988     144948.7   -40036.838    2699.8825    -42736.72    71.756927    226.04308 
   19700    132.47095   -977.64204    144925.14   -40047.293    2672.0904   -42719.384    71.967938    223.71623 
   19750    133.19057   -1033.0487    144811.45   -40065.853    2686.6058   -42752.459    72.432242    224.93151 
   19800    134.60206   -957.85185    144978.39   -40035.626    2715.0771   -42750.703    72.529641    227.31523 
   19850     133.7923   -1039.8065    145099.93   -40018.334    2698.7435   -42717.077    72.631778    225.94772 
   19900    132.85247   -1042.5002     145038.3   -40001.976    2679.7859   -42681.762    72.925954    224.36053 
   19950     132.4001   -999.68978     144849.5   -40062.897    2670.6611   -42733.558    72.830763    223.59657 
   20000    131.44322   -961.85968    144929.39   -40068.912    2651.3598   -42720.272     73.07377     221.9806 
   20050    133.11268   -1142.4559    144897.46   -40062.153    2685.0348   -42747.188    73.070848    224.79998 
   20100    135.95804   -1034.9247    144837.62   -40031.881    2742.4289    -42774.31    73.093739    229.60521 
   20150    131.72015   -1002.2179    144914.47   -40033.943    2656.9458   -42690.889    73.165559    222.44828 
   20200    135.94567    -1065.165    145000.32   -40000.023    2742.1793   -42742.202    73.282569    229.58431 
   20250    133.52632   -948.80904    144933.36   -40003.351    2693.3784    -42696.73    73.302973    225.49854 
   20300    131.43492    -1137.641    144975.84   -40023.628    2651.1923    -42674.82    73.297735    221.96658 
   20350    131.05181   -902.66718       145005   -40044.086    2643.4645   -42687.551    73.491949    221.31958 
   20400    131.60302   -1102.6971    144951.73   -40076.358    2654.5831   -42730.941    73.689573    222.25047 
   20450     129.0693   -1127.5944    144677.35   -40094.025    2603.4752     -42697.5    74.070194    217.97154 
   20500    135.23104   -905.40246    144666.76    -40039.42    2727.7645   -42767.184     74.08481    228.37745 
   20550    131.64775   -1023.4916    144754.02   -40078.425    2655.4854   -42733.911    74.182113    222.32601 
   20600    130.65119   -1057.0634    144783.48   -40088.654    2635.3837   -42724.037    74.322445    220.64303 
   20650    131.24168    -967.2053    144887.11   -40098.659    2647.2945   -42745.953    74.575399    221.64024 
   20700     131.1892   -1063.3105    144825.69   -40123.821    2646.2359   -42770.057    74.764208    221.55161 
   20750    130.50248   -1060.8925    144796.71   -40115.031    2632.3841   -42747.415    74.782365    220.39189 
   20800    127.23291   -1041.8378    144732.31   -40196.401    2566.4331   -42762.834    74.841161    214.87026 
   20850    128.37909   -922.10395     144787.7   -40157.099    2589.5527   -42746.652    75.104484    216.80591 
   20900    129.12878   -667.19171    144928.53   -40144.822    2604.6749   -42749.497    75.267913    218.07199 
   20950    131.38145   -965.43159    145120.66   -40074.844    2650.1138   -42724.958    75.424346    221.87628 
   21000    130.78951   -1001.9271    145245.87   -40012.955    2638.1738   -42651.129    75.539858    220.87662 
   21050    130.83634   -942.21873    145183.81   -39984.547    2639.1183   -42623.666    75.552555    220.95571 
   21100    131.92734   -920.53563    145144.88   -39965.396    2661.1251   -42626.521     75.53023    222.79819 
   21150    132.20451   -927.35843       145066   -39951.077    2666.7158   -42617.792    75.783456    223.26626 
   21200       132.29   -885.32499    145039.26   -39915.578    2668.4404   -42584.019    75.732516    223.41065 
   21250    133.28083   -1014.1448    145090.63   -39952.527    2688.4266   -42640.954    75.964645    225.08395 
   21300    131.91992   -983.94762    145291.38   -39949.042    2660.9754   -42610.017    76.007887    222.78565 
   21350     135.4305   -1062.8348     145159.9   -39925.667    2731.7877   -42657.455     76.22334    228.71429 
   21400    132.19474   -1011.1436    145158.82    -39923.24    2666.5188   -42589.759    76.226721    223.24976 
   21450    131.67209   -965.43899    145031.06   -39963.366    2655.9763   -42619.342    76.274027    222.36711 
   21500    133.31338   -863.74064    145064.24   -39938.924     2689.083   -42628.007    76.575537    225.13892 
   21550    131.04751   -942.34958    145058.55   -39977.431    2643.3778   -42620.809    76.608917    221.31233 
   21600    132.74255   -1136.4328    145012.41   -40006.009    2677.5687   -42683.577    76.721263     224.1749 
   21650     129.4428   -930.14317    144952.99   -40006.153     2611.009   -42617.162    76.773987     218.6023 
   21700    133.27774   -904.45354    144976.99   -39963.128    2688.3642   -42651.493    76.725346    225.07873 
   21750    134.88675   -908.22262    145099.11   -39909.643    2720.8198   -42630.463     76.67783    227.79602 
   21800    133.54621   -1121.3053    145092.77   -39876.366    2693.7796   -42570.145    76.680271    225.53213 
   21850    135.87856   -918.00263    145127.54   -39925.055    2740.8256    -42665.88      76.7051    229.47097 
   21900    136.53239   -866.94989    145204.89   -39878.667    2754.0142   -42632.681    76.846458    230.57516 
   21950    136.56003    -1006.394    145301.88    -39918.24    2754.5718   -42672.812     76.88192    230.62185 
   22000    133.33666   -1105.9981    145147.71   -39966.533    2689.5526   -42656.086    76.907971    225.17823 
   22050    132.66767   -939.68911    144991.93   -39966.942    2676.0583       -42643    77.110507    224.04844 
   22100    132.98918   -1042.0114    144946.07    -39960.68    2682.5437   -42643.224    77.220801    224.59142 
   22150    134.02759   -1139.6193    144960.94   -39941.675    2703.4894   -42645.164    77.628787    226.34507 
   22200    133.13086   -782.24577    144912.46   -39956.868    2685.4014   -42642.269    77.696487    224.83067 
   22250    134.82897   -868.74204     145101.9   -39959.821    2719.6542   -42679.476    77.969971    227.69843 
   22300    134.55145   -932.90795    145181.25   -39932.045    2714.0563   -42646.101     78.07171    227.22976 
   22350    134.03416     -983.372    145116.74   -39951.259     2703.622   -42654.881    78.087085    226.35617 
   22400    130.66752   -1098.6685    144985.21   -39958.075    2635.7131   -42593.788    78.344421    220.67061 
   22450    134.69265   -858.96239    145072.44   -39957.269    2716.9046   -42674.174    78.570211    227.46823 
   22500    130.82952   -998.57384    145123.14   -39997.167    2638.9807   -42636.148    78.811537    220.94418 
   22550    136.94237   -1163.9651    145149.54   -39980.751    2762.2839   -42743.035    78.890649    231.26753 
   22600     132.2753   -1019.6854    145099.48   -40020.227    2668.1439   -42688.371    78.941167    223.38582 
   22650    131.77046   -916.83072     145103.3   -40027.922    2657.9607   -42685.883    78.802171    222.53325 
   22700     134.0951   -935.24838    145271.97   -39983.017    2704.8513   -42687.868    79.023186    226.45909 
   22750    132.99676   -1040.8796    145223.26   -39950.389    2682.6965   -42633.085    79.266822    224.60422 
   22800     135.2416   -881.71111    145333.81   -39927.435    2727.9774   -42655.413    79.446483    228.39528 
   22850    135.03837   -1006.2079    145434.71    -39939.28    2723.8781   -42663.158    79.522596    228.05207 
   22900    133.71033   -1002.0481    145402.04   -39934.979    2697.0901   -42632.069    79.592896    225.80929 
   22950    133.15839   -1035.8025    145298.69   -39936.551    2685.9567   -42622.507     79.74661    224.87717 
   23000    134.36154   -947.98286    145332.85   -39875.703    2710.2256   -42585.928    79.843316    226.90904 
   23050    136.70025   -1085.7575    145350.62   -39862.821    2757.4001   -42620.221    79.875602    230.85865 
   23100     134.0077   -1035.0181    145171.09   -39928.582    2703.0884    -42631.67    79.980835    226.31149 
   23150    131.60212   -996.31232    145205.66   -39939.377     2654.565   -42593.942    80.140312    222.24895 
   23200    132.29452   -1065.8306    145179.93   -39927.835    2668.5316   -42596.367     80.32202    223.41828 
   23250    131.64873   -959.48218    145163.32   -39975.955    2655.5051   -42631.461    80.599071    222.32766 
   23300    134.69811   -946.70205     145291.3   -39936.178    2717.0147   -42653.192    80.566971    227.47745 
   23350    132.14153   -1168.8308     145188.6   -39939.028    2665.4455   -42604.474      80.5028     223.1599 
   23400    133.21308    -796.1583     145196.5   -39871.457    2687.0598   -42558.517    80.698954    224.96952 
   23450    133.70073   -935.60448    145321.92   -39876.731    2696.8964   -42573.627    80.852943    225.79307 
   23500    132.57988   -1058.5077    145324.22   -39876.548    2674.2874   -42550.835    80.938772    223.90018 
   23550    134.62738   -1045.6962    145259.27    -39833.58    2715.5879   -42549.168    81.330792    227.35799 
   23600    136.75637   -983.34419     145298.4   -39755.883    2758.5321   -42514.415    81.527948    230.95342 
   23650    136.73919   -949.38152    145349.18   -39800.048    2758.1855   -42558.233     81.73539     230.9244 
   23700    134.30658   -1074.9798    145483.97   -39817.486     2709.117   -42526.603    82.109649    226.81622 
   23750    131.96671     -1111.93    145195.22   -39846.922    2661.9191   -42508.841     82.36461    222.86466 
   23800    134.21839   -926.84224    145132.09   -39843.467    2707.3382   -42550.805    82.520319     226.6673 
   23850    133.61982   -881.24196    145196.73   -39889.435    2695.2644   -42584.699    82.878002    225.65644 
   23900    135.05912   -883.84528    145256.49   -39827.306    2724.2966   -42551.603    82.956626    228.08711 
   23950    134.46042   -931.77547    145341.91   -39791.093    2712.2201   -42503.313    83.299232    227.07603 
   24000    135.10309   -937.90571    145338.83   -39829.183    2725.1835   -42554.366     83.35292    228.16136 
   24050    136.30989   -1091.3385    145204.55   -39837.381     2749.526   -42586.907    83.476882     230.1994 
   24100    134.69986   -1047.8456     145135.6   -39819.458      2717.05   -42536.508    83.450353     227.4804 
   24150    131.33822    -958.1884    145106.58    -39877.97    2649.2418   -42527.212    83.493715    221.80328 
   24200    135.69045   -1069.4285    145140.52   -39861.929    2737.0312    -42598.96    83.467223    229.15329 
   24250    133.63501   -963.19325    145211.42   -39861.666    2695.5706   -42557.237    83.400551    225.68208 
   24300    136.68273   -1003.8913    145336.32   -39854.687    2757.0468   -42611.734    83.546561    230.82906 
   24350    134.44198   -1086.4309    145288.52   -39842.534    2711.8482   -42554.382    83.632323    227.04489 
   24400    133.97932   -1080.5582    145148.18   -39876.887    2702.5157   -42579.403    83.543004    226.26355 
   24450    134.13404    -996.2686    145073.65     -39817.8    2705.6367   -42523.436    83.779921    226.52484 
   24500    132.94056   -1093.2613     145160.9   -39840.832    2681.5628   -42522.394    84.078114     224.5093 
   24550    131.58996    -915.4402    144897.12   -39890.139    2654.3197   -42544.458    84.272669    222.22842 
   24600    129.47183   -919.65281    145055.02   -39897.622    2611.5946   -42509.217    84.510846    218.65133 
   24650    132.92563   -1148.5754    145058.87   -39896.107    2681.2617   -42577.368    84.755162    224.48409 
   24700    134.20753   -998.15358    144891.14   -39862.295    2707.1191   -42569.415    85.061707    226.64896 
   24750    132.44949   -1003.0151    144738.88   -39936.222    2671.6575    -42607.88     85.37018    223.67999 
   24800    132.32249   -917.48758    144951.03   -39923.685    2669.0957   -42592.781    85.641167    223.46551 
   24850    133.06747   -950.37126    145095.82   -39951.024    2684.1229   -42635.147    85.818592    224.72363 
   24900    132.03161   -898.46036    145128.86   -39954.864    2663.2283   -42618.092    86.120578    222.97427 
   24950    131.80453   -973.52887    145297.07   -39959.668    2658.6478   -42618.315    86.260075    222.59078 
   25000    131.65737   -953.75449    145273.82   -39986.982    2655.6795   -42642.662     86.51848    222.34226 
   25050     132.0275   -1025.7337    145180.07   -39939.537    2663.1454   -42602.683     86.89281    222.96733 
   25100    133.94138    -1025.414    145018.41   -39974.465    2701.7505   -42676.215    87.088897    226.19947 
   25150    132.23208    -1003.677    145117.29   -39970.725    2667.2719   -42637.997    87.303391    223.31282 
   25200    132.21508   -792.11992    145060.83     -39960.6     2666.929   -42627.529    87.441694    223.28411 
   25250    132.99182    -1013.215    145202.57   -39943.277    2682.5968   -42625.874    87.414591    224.59586 
   25300    134.07422   -923.75336    145327.77   -39894.299    2704.4301   -42598.729    87.514527    226.42382 
   25350    134.96638    -1029.066    145410.25   -39946.357    2722.4259   -42668.783    87.989654    227.93049 
   25400    134.18743   -973.04768    145491.98   -39983.184    2706.7137   -42689.898    88.225903    226.61501 
   25450    131.92118   -1123.3783    145246.25   -39967.246    2661.0008   -42628.247    88.530161    222.78778 
   25500    132.05819   -932.66258    145152.17   -39992.254    2663.7644   -42656.019    88.723008    223.01916 
   25550    130.04083   -1059.3944    145220.65   -40051.411     2623.072   -42674.483    88.882056    219.61225 
   25600    133.51628   -854.71717    145416.19   -39982.263    2693.1757   -42675.438    88.943492    225.48157 
   25650    130.70019    -1034.445    145558.08   -40006.984     2636.372   -42643.356    89.130813    220.72577 
   25700    132.19198   -1006.3409    145350.81   -40022.927    2666.4631    -42689.39    89.019217     223.2451 
   25750    130.98482   -1149.3875    145373.86    -40063.68    2642.1133   -42705.793    89.295412    221.20645 
   25800    129.90653   -1104.5537    145177.52    -40064.44     2620.363   -42684.803    89.433155    219.38545 
   25850    131.85142   -987.86594    145086.23   -39998.775    2659.5936   -42658.369    89.557647    222.66996 
   25900    131.18128   -1105.5744    144997.41   -39978.727    2646.0762   -42624.803    89.720881    221.53824 
   25950    134.66916   -981.47272    144941.62   -39969.357    2716.4306   -42685.788    89.930879    227.42855 
   26000    130.01555   -1031.6589    144915.25   -40079.485    2622.5621   -42702.048      89.9937    219.56956 
   26050    131.47663   -986.80954    144939.78   -40043.322    2652.0337   -42695.356    90.267534    222.03702 
   26100    131.20209   -881.78192       145081   -40084.221    2646.4959   -42730.717    90.530153    221.57338 
   26150    129.31907   -856.62329    145180.56   -40047.314    2608.5132   -42655.827    90.755942    218.39335 
   26200    131.26642   -1085.2607    145127.85   -40016.635    2647.7935   -42664.429     90.95344    221.68201 
   26250    132.42223   -1042.9641    144940.41   -40036.734    2671.1076   -42707.842    91.324409    223.63395 
   26300    136.57366   -970.93571    144949.99   -40014.074    2754.8465    -42768.92    91.513578    230.64485 
   26350    131.70806   -1059.0432    145060.99   -40011.416    2656.7019   -42668.118    91.513523    222.42786 
   26400    130.94193    -884.4791    145089.01   -39984.941    2641.2482    -42626.19    91.812644    221.13403 
   26450    132.46938     -1033.77    145068.08   -39989.036    2672.0587   -42661.094     91.87995    223.71358 
   26500    134.59821   -1049.2106    144935.62   -39997.226    2714.9995   -42712.226    92.094759    227.30872 
   26550    133.16078   -955.08476    144941.95   -40015.161     2686.005   -42701.166    92.383746    224.88121 
   26600    130.23032   -875.29993     144943.3    -40048.26    2626.8943   -42675.155    92.562301    219.93227 
   26650      134.561   -1033.8972    144915.23   -39964.785     2714.249   -42679.034    92.925004    227.24589 
   26700    132.35147   -895.74288    144951.41   -39961.215    2669.6803   -42630.895    93.088777    223.51445 
   26750    131.04114   -947.79958     144920.4    -40059.23    2643.2494    -42702.48    93.246632    221.30157 
   26800    133.64424   -947.25931     144957.6   -40028.135    2695.7569   -42723.892    93.642721    225.69767 
   26850    131.67134   -969.40449    144953.79   -40037.814    2655.9613   -42693.775    93.555846    222.36585 
   26900    131.66475   -882.01174     145081.9   -39991.869    2655.8283   -42647.698    93.614216    222.35472 
   26950    132.36641   -1020.0363    145031.57   -39966.518    2669.9816     -42636.5    93.602783    223.53968 
   27000    133.08558   -1001.2495    145013.42   -39943.554    2684.4881   -42628.042    93.383553    224.75422 
   27050    133.00661   -1012.6343    144952.82   -39910.738    2682.8952   -42593.633    93.048044    224.62085 
   27100    133.98181   -892.02969     144855.5   -39889.874    2702.5661    -42592.44    93.355541    226.26776 
   27150     135.5751   -961.75177    144884.02   -39900.942    2734.7045   -42635.647    93.513096     228.9585 
   27200    132.67344   -868.22452    145003.51    -39961.04    2676.1747   -42637.215    93.543104    224.05819 
   27250    133.42653   -941.02618    145135.55   -39968.325    2691.3655   -42659.691    93.588639    225.33001 
   27300    130.91609    -891.7515    145217.64   -39918.824    2640.7271   -42559.551    93.807034    221.09039 
   27350    133.84788    -888.6739     145500.2   -39857.819    2699.8646   -42557.684    94.104963    226.04158 
   27400    133.97874   -1060.8695    145497.67   -39849.335    2702.5042    -42551.84    94.294007    226.26258 
   27450     132.0883   -1089.2154     145386.8   -39948.255    2664.3718   -42612.627    94.459908    223.07001 
   27500     131.5268   -1126.1029    145163.44   -39918.058    2653.0458   -42571.104    94.700907    222.12176 
   27550    131.94815   -1034.5369    145139.41   -39913.559    2661.5447   -42575.104    94.633497    222.83332 
   27600     134.7513   -996.60776    145118.28   -39893.075    2718.0876   -42611.162     94.53655    227.56728 
   27650    131.79686   -1002.8438    145110.56   -39902.325    2658.4931   -42560.818    94.643492    222.57783 
   27700    132.32572     -973.975    144974.43   -39945.069    2669.1609    -42614.23    94.862255    223.47097 
   27750    130.47312    -870.0507    145082.09   -39970.007    2631.7919   -42601.799    94.813761    220.34231 
   27800    132.26852   -1124.4145    145119.31    -39990.01     2668.007   -42658.017    94.757013    223.37436 
   27850    130.48984   -950.94102    145164.92   -39981.687     2632.129   -42613.816    94.822096    220.37054 
   27900    133.88068   -1129.1803    145118.67   -39935.117    2700.5262   -42635.643    95.056775    226.09697 
   27950    131.44344   -948.94528     145149.6    -39975.02    2651.3643   -42626.384     95.29878    221.98098 
   28000    130.00141   -1089.9934    145106.23   -40013.207    2622.2769   -42635.484    95.467752    219.54569 
   28050    131.36281   -811.89136    145134.66   -39950.474    2649.7378   -42600.212    95.504826     221.8448 
   28100    134.51769   -1136.0079    145151.72    -39864.58    2713.3754   -42577.956     95.73183    227.17275 
   28150    135.05007   -1093.6668    144952.09   -39859.056     2724.114    -42583.17    95.926787    228.07183 
   28200    134.97962   -1154.8684    144807.77    -39890.48    2722.6931   -42613.173    95.697927    227.95286 
   28250    132.43559   -1018.7482    144686.87   -39868.627    2671.3769   -42540.004    95.875461     223.6565 
   28300    130.08377    -979.8722    144741.15   -39892.657    2623.9381   -42516.596    96.033399    219.68476 
   28350    132.72495   -1043.2279     144747.6    -39861.46    2677.2138   -42538.673    95.978849    224.14518 
   28400    132.62762   -930.39628    144794.71   -39907.713    2675.2505   -42582.964     95.82737    223.98081 
   28450     131.6287   -866.02461    144793.68   -39901.576    2655.1011   -42556.677    95.853286    222.29384 
   28500    135.55151   -1011.7008    144885.42   -39873.827    2734.2288   -42608.056     96.05483    228.91867 
   28550    134.41749    -1115.927    144880.06    -39862.11    2711.3542   -42573.464    96.424664    227.00353 
   28600    130.15754   -967.51904    144865.45   -39860.841    2625.4263   -42486.267    96.513935    219.80936 
   28650    133.78789   -1001.1583    144907.62   -39837.522    2698.6544   -42536.176    96.630776    225.94026 
   28700    134.09684   -962.90485     144972.9   -39821.979    2704.8864   -42526.866      96.7715    226.46203 
   28750    135.00726   -930.62328    145047.63   -39810.271    2723.2506   -42533.521    97.056814    227.99953 
   28800    130.99706   -1026.9212    145149.58   -39799.541    2642.3603   -42441.901    97.098813    221.22713 
   28850    134.86444   -1046.9012    145103.62     -39822.9    2720.3698    -42543.27    97.444671    227.75834 
   28900    133.66921   -1042.4994    145005.09   -39856.775    2696.2606   -42553.035    97.579492    225.73984 
   28950     133.0693   -941.93819    144889.22   -39886.716    2684.1596   -42570.876    97.672585    224.72671 
   29000    132.75492   -1032.8154    144997.84   -39914.945    2677.8183   -42592.763    97.842303     224.1958 
   29050    135.16548   -1040.7728    145027.19    -39868.09     2726.442   -42594.532    97.914796    228.26673 
   29100    132.57333   -776.23401    144985.27   -39864.902    2674.1554   -42539.057    98.074913    223.88912 
   29150    133.31587   -924.28394     145108.5   -39850.261    2689.1334   -42539.394    98.077134    225.14313 
   29200    133.35139   -1079.7961    145112.09   -39838.178    2689.8498   -42528.028    98.247333    225.20312 
   29250    132.64732   -1043.0315    145067.56   -39857.986    2675.6479   -42533.634    98.401192    224.01408 
   29300    131.77153   -993.97478    144939.12   -39827.365    2657.9821   -42485.347     98.33662    222.53504 
   29350     134.4817   -1032.1667    144943.83   -39804.822    2712.6494   -42517.471     98.56291    227.11197 
   29400    131.49476   -1065.3213    144828.88    -39870.49    2652.3995    -42522.89    98.853053    222.06764 
   29450    133.89101   -949.89747    144880.55   -39874.052    2700.7345   -42574.786    98.945984    226.11441 
   29500     134.2208   -1027.4414    144750.95   -39819.894    2707.3867   -42527.281    99.400444    226.67136 
   29550    136.52665   -988.31695    144744.52   -39819.786    2753.8983   -42573.684    99.470278    230.56547 
   29600    137.25921   -967.55208    144821.37   -39774.328     2768.675   -42543.003     99.77231    231.80261 
   29650     132.7875   -951.39417    144817.02    -39832.92    2678.4756   -42511.396    100.03974    224.25082 
   29700    130.09428   -1052.1982    144738.47   -39865.194    2624.1501   -42489.344    100.30478    219.70252 
   29750    135.25811   -1126.7909    144626.21   -39862.689    2728.3105   -42590.999    100.53153    228.42317 
   29800    132.65391   -1002.0168     144474.7   -39838.473    2675.7808   -42514.254    100.74477     224.0252 
   29850    135.63593   -822.03569    144514.18   -39742.142    2735.9316   -42478.073    100.98197    229.06123 
   29900    133.80984    -1066.696    144553.61   -39726.639    2699.0972   -42425.737    101.08968    225.97734 
   29950      136.395   -1061.7301       144603   -39720.048    2751.2429   -42471.291    101.37391    230.34314 
   30000    134.46265   -1038.5772    144633.96   -39718.718    2712.2652   -42430.983    101.49222     227.0798 
   30050    136.11108   -998.76564    144534.78   -39761.649    2745.5158   -42507.165    101.39501    229.86366 
   30100    133.25617   -1203.9465    144312.19   -39850.314    2687.9291   -42538.243    101.29556     225.0423 
   30150    134.73373   -945.80479    144357.42   -39852.194    2717.7332   -42569.927    101.12427     227.5376 
   30200    135.85542   -944.85728    144445.19   -39829.303    2740.3589   -42569.662    101.05611     229.4319 
   30250    132.05459   -1061.3779    144404.09   -39861.706    2663.6919   -42525.398    101.25733    223.01309 
   30300    131.12489   -929.76403    144264.19   -39868.568    2644.9388   -42513.507    101.61823    221.44301 
   30350    131.71661   -967.87449    144309.87   -39837.469    2656.8744   -42494.343    101.40323     222.4423 
   30400    132.27736   -939.20994    144375.45   -39847.786    2668.1853   -42515.972    101.52897    223.38929 
   30450    130.23284   -872.15411    144543.24   -39870.177    2626.9451   -42497.122     101.7099    219.93652 
   30500    130.20937   -861.31476    144739.75   -39901.922    2626.4716   -42528.393    101.89515    219.89688 
   30550    129.91159   -1031.4134    144731.88   -39898.379     2620.465   -42518.844    102.14865    219.39399 
   30600    131.11607    -857.8847    144654.16   -39906.266    2644.7607   -42551.027    102.34823    221.42811 
   30650    130.48225    -1024.206    144711.36   -39891.418     2631.976   -42523.394    102.63253    220.35772 
   30700    132.05299   -937.09218    144602.87   -39886.246    2663.6596   -42549.906    102.74829    223.01038 
   30750    133.80093    -857.3784    144730.39   -39835.743    2698.9176   -42534.661    102.83719     225.9623 
   30800    133.61077    -899.2278    144806.86   -39867.718    2695.0818   -42562.799     103.0023    225.64115 
   30850    132.52367   -1063.4386    144821.37   -39836.194    2673.1537   -42509.348    102.85091    223.80526 
   30900    132.30401   -1057.8207    144614.47   -39876.137     2668.723    -42544.86     102.9095    223.43431 
   30950    131.68915   -1023.9271    144684.88   -39852.504    2656.3204   -42508.825    103.22489    222.39592 
   31000    133.63105   -1024.3462    144578.58    -39910.59    2695.4908    -42606.08    103.52068     225.6754 
   31050    131.63076   -982.45266    144616.11   -39922.384    2655.1427   -42577.527     103.6647    222.29732 
   31100        132.9   -1018.4412    144683.59   -39905.464    2680.7447   -42586.209    103.75569     224.4408 
   31150    134.41137    -884.2868    144654.33    -39898.61    2711.2308   -42609.841    104.07817     226.9932 
   31200     132.5326   -975.59798    144727.55   -39894.076    2673.3339    -42567.41    104.25056    223.82034 
   31250    132.68657   -1045.7162    144704.97   -39893.267    2676.4396   -42569.707    104.63514    224.08036 
   31300    133.35301   -961.12673    144570.21   -39959.532    2689.8824   -42649.415    105.07046    225.20584 
   31350    133.35196   -954.94878    144501.03   -39934.629    2689.8612    -42624.49    105.28744    225.20406 
   31400    134.06844   -949.29311    144527.05   -39936.632    2704.3134   -42640.945    105.52826    226.41405 
   31450    134.12953   -1018.9596    144593.55   -39936.977    2705.5457   -42642.522    105.64805    226.51723 
   31500     133.1656    -1089.757    144495.42   -39884.736    2686.1022   -42570.838    105.86329    224.88935 
   31550    132.73866   -936.05235    144503.87   -39934.153    2677.4904   -42611.643    106.09166    224.16834 
   31600    132.73397   -988.66553    144680.56   -39938.442    2677.3957   -42615.838    106.37719    224.16042 
   31650    131.04948   -746.46689    144585.37   -39965.249    2643.4177   -42608.667    106.44387    221.31566 
   31700    131.86895   -1114.6336    144606.71   -39945.011    2659.9473   -42604.959    106.82555    222.69958 
   31750    131.02522   -1108.9694    144659.17   -39961.398    2642.9284   -42604.326    107.04344    221.27469 
   31800     131.6958   -961.23701    144658.58    -39945.94    2656.4546   -42602.395    107.28955    222.40716 
   31850    130.64664   -904.56107    144878.71   -39968.484    2635.2919   -42603.776    107.43324    220.63534 
   31900    133.26119    -1009.196    144784.86   -40026.119    2688.0304   -42714.149    107.53761    225.05079 
   31950    132.69302    -1006.697    144768.63   -39983.942    2676.5697   -42660.511     107.3838    224.09126 
   32000      130.617   -1043.3776    144562.87   -39990.428     2634.694   -42625.122    107.61067    220.58529 
   32050    134.69646    -1041.916    144599.71    -39996.22    2716.9814   -42713.202      107.713    227.47466 
   32100    132.55954   -871.73088    144684.76   -39997.174    2673.8772   -42671.051    107.74111    223.86583 
   32150    131.72681   -861.04827    144814.28    -39989.91    2657.0801    -42646.99     107.8191    222.45952 
   32200    133.55434   -1073.0693    144957.77   -40011.369    2693.9435   -42705.313    107.98887    225.54585 
   32250    133.16154   -1058.6746    144998.32   -40012.809    2686.0202    -42698.83    108.23167    224.88248 
   32300    132.61174   -1048.4057    144997.33   -39979.255    2674.9302   -42654.185    108.16806    223.95399 
   32350     129.9714   -906.31372    145103.89    -40001.61    2621.6715   -42623.282    108.38391      219.495 
   32400    133.22306   -943.32258    145247.29   -40015.846    2687.2612   -42703.107    108.53504    224.98638 
   32450     133.1311   -972.15602    145331.07   -39985.774    2685.4063   -42671.181    108.73586    224.83108 
   32500     136.5657   -931.88624    145445.68   -39879.906    2754.6861   -42634.593    108.77857    230.63142 
   32550    133.40873   -1047.9786    145440.25   -39899.875    2691.0064   -42590.881    109.12058    225.29995 
   32600    134.25832    -978.5254    145395.42   -39924.545    2708.1436   -42632.688    109.29867    226.73473 
   32650    134.70546   -924.79288     145413.8   -39885.119    2717.1629   -42602.282    109.47466    227.48985 
   32700    134.35703     -990.709    145391.94   -39888.596    2710.1347   -42598.731    109.57108    226.90143 
   32750    134.64458   -856.27804    145266.29   -39853.513    2715.9349   -42569.448    109.45564    227.38705 
   32800    138.36749   -1005.2137    145346.94   -39912.849    2791.0303   -42703.879    109.70772    233.67428 
   32850    132.82085   -1044.5011    145293.55   -39925.908    2679.1481   -42605.057    109.78921    224.30713 
   32900     131.8331   -893.32142    145302.16   -39960.926     2659.224    -42620.15    110.11853    222.63902 
   32950    134.63699   -964.06955    145378.26   -39884.895    2715.7818   -42600.677    110.21555    227.37423 
   33000    133.91545   -922.64426    145285.82   -39887.611    2701.2276   -42588.839    110.55284    226.15569 
   33050    132.85907   -1108.0693    145280.26   -39948.993    2679.9191   -42628.912    110.54348    224.37168 
   33100    134.15223   -1087.7874    145163.03   -39911.215    2706.0037   -42617.219    110.66153    226.55557 
   33150    135.30618   -878.98529    145097.43   -39950.715    2729.2801   -42679.995     110.8395    228.50435 
   33200    133.30274    -909.8431     145156.3   -39976.265    2688.8685   -42665.133    110.95267    225.12095 
   33250    132.70116   -1088.0868    145225.32   -39990.367    2676.7338   -42667.101    111.03811      224.105 
   33300    130.26903   -1181.2097    145092.95   -40046.299    2627.6751   -42673.974    111.13224    219.99764 
   33350    131.66803   -1091.5374    145039.92   -40013.442    2655.8944   -42669.337    111.07011    222.36025 
   33400     135.5272   -1044.8809    144939.26   -39955.268    2733.7384   -42689.006    111.35274    228.87761 
   33450    133.39078   -1165.0262    144825.53   -39984.149    2690.6443   -42674.794    111.36241    225.26963 
   33500    134.96494   -1163.0367    144781.07    -39952.82     2722.397   -42675.217       111.55    227.92807 
   33550    135.91439   -1018.9203    144833.92   -39970.337    2741.5485   -42711.885    111.55626     229.5315 
   33600    134.63047   -963.32438    144913.93   -39970.288    2715.6504   -42685.938    112.07942    227.36322 
   33650    130.09017   -1101.5847    144854.27   -39943.287    2624.0673   -42567.355    112.00334    219.69558 
   33700    132.14753   -920.96097    144889.03   -39949.477    2665.5665   -42615.043    112.15542    223.17003 
   33750    130.65455    -1010.744    144933.88   -39981.423    2635.4515   -42616.874    112.20658     220.6487 
   33800    133.82608   -1078.2497    144877.91   -39964.076    2699.4249   -42663.501    112.36804    226.00477 
   33850    131.09002   -901.53385    144877.96   -39952.581    2644.2354   -42596.816    112.65612    221.38412 
   33900    135.16837   -931.63483    144878.92   -39933.992    2726.5003   -42660.493    112.75159    228.27161 
   33950    132.17021   -1117.8073     144899.8    -39992.22     2666.024   -42658.244     112.8487    223.20834 
[...]
   92000    132.58928   -967.54486    144696.84   -39933.135    2674.4771   -42607.612    290.90218    223.91606 
   92050    129.88729   -1025.2742    144752.63   -39953.855     2619.975    -42573.83    291.45175    219.35296 
   92100    133.85688    -974.4959    144817.08   -39885.653    2700.0461   -42585.699    291.43465    226.05678 
   92150    133.10494   -962.70179    144812.65   -39890.698    2684.8787   -42575.576    291.34898    224.78691 
   92200    129.83884   -868.36603    144858.17   -39882.691    2618.9975   -42501.689     291.5533    219.27113 
   92250    132.52815   -1096.0277    144904.05   -39846.352    2673.2442   -42519.597    291.49322    223.81283 
   92300    132.56729   -1139.8795    144945.32   -39855.839    2674.0336   -42529.873    291.80907    223.87892 
   92350    133.59124   -952.32311     144991.9   -39890.318    2694.6877   -42585.006    291.59789    225.60816 
   92400    135.16216    -969.5112     145155.1   -39837.005    2726.3751    -42563.38    292.07746    228.26113 
   92450    134.86719   -1059.0011    145092.04   -39862.965    2720.4252    -42583.39    292.45007    227.76298 
   92500    135.16299   -984.58644    144961.23    -39842.18    2726.3918   -42568.572     292.4237    228.26253 
   92550    133.28378    -870.9962    144984.48   -39876.813     2688.486   -42565.299    292.39103    225.08893 
   92600    133.68493   -945.41396    145021.42   -39887.006    2696.5777   -42583.584    292.73904     225.7664 
   92650    132.74659   -1131.2119    144916.25   -39909.709    2677.6503   -42587.359    292.76805    224.18173 
   92700    134.80576   -977.08552    144893.66   -39968.669    2719.1861   -42687.855    292.58521    227.65924 
   92750    130.91876   -1117.5374    144866.74   -39948.929    2640.7809    -42589.71    292.76005     221.0949 
   92800    131.12755   -882.23843    144693.37   -39945.332    2644.9924   -42590.325    292.65317     221.4475 
   92850    132.55504   -996.17831    144743.43   -39894.154    2673.7864   -42567.941    292.77595    223.85823 
   92900    131.77912   -964.14711    144771.82   -39893.566    2658.1353   -42551.702    292.91749    222.54787 
   92950    132.10384   -868.16088     144902.3   -39883.087    2664.6852   -42547.773    292.99006    223.09625 
   93000    131.96003    -951.7043    144909.22   -39918.955    2661.7844    -42580.74    293.33989    222.85338 
   93050    132.47412   -1073.4341    144857.59   -39930.219    2672.1543   -42602.373     293.6937    223.72159 
   93100    130.95986   -915.15746     144972.6   -39920.379    2641.6099   -42561.989    293.69476    221.16431 
   93150    132.60503   -1097.3568    144959.91   -39952.292    2674.7948   -42627.086    293.48793    223.94265 
   93200    133.00761   -1053.5488    144932.48   -39946.054    2682.9154    -42628.97    293.42097    224.62254 
   93250    133.47505    -1074.695    144847.86   -39948.205    2692.3441   -42640.549    293.54221    225.41194 
   93300    133.61767   -980.77852    144777.46   -39907.515     2695.221   -42602.736    293.46592     225.6528 
   93350     134.2441   -836.82629    144790.23   -39866.705    2707.8568   -42574.562     293.2576    226.71072 
   93400    132.55863   -994.36701    144889.69   -39849.385    2673.8589   -42523.244    293.50831     223.8643 
   93450     133.5118   -1004.0826    144860.88   -39884.262    2693.0854   -42577.348    293.30255      225.474 
   93500    134.39547   -1138.0968    144879.16   -39934.893    2710.9101   -42645.803    293.61292    226.96635 
   93550    133.23482   -1001.5044     144779.2   -39889.505    2687.4983   -42577.003    293.16484    225.00624 
   93600    136.75396   -1077.9353    144827.17   -39861.253    2758.4835   -42619.737      293.248    230.94935 
   93650    134.49429   -1130.2117    144680.79   -39883.124    2712.9034   -42596.027    293.72214    227.13323 
   93700    132.85811   -1088.1004    144477.99   -39899.566    2679.8998   -42579.465    293.41562    224.37006 
   93750    131.41074   -940.92203    144565.74   -39924.812    2650.7046   -42575.517    293.66645    221.92574 
   93800    132.89296   -957.31646    144641.72   -39932.405    2680.6027   -42613.007    293.53935    224.42892 
   93850     136.2856   -1019.6269    144551.88   -39945.766    2749.0361   -42694.802    293.71159    230.15838 
   93900    133.92832   -881.83095    144514.14   -39918.738    2701.4871   -42620.225    293.83759    226.17742 
   93950    132.44924   -984.79461    144375.14   -39928.152    2671.6525   -42599.804    293.99296    223.67957 
   94000    131.04101   -961.50205     144505.9   -39985.697    2643.2467   -42628.944    294.31711    221.30135 
   94050    130.10583   -960.41773    144552.83   -39997.319    2624.3832   -42621.702    294.70262    219.72203 
   94100    132.18413   -1050.2609    144525.14   -39990.797    2666.3047   -42657.102     294.5914    223.23184 
   94150     133.3541   -1036.4016    144449.05   -39964.566    2689.9044    -42654.47    294.74647    225.20768 
   94200    132.28428   -1091.1411     144262.8   -39970.749     2668.325   -42639.074    294.70454    223.40099 
   94250    130.71795   -898.84733    144284.18   -40006.481    2636.7302   -42643.211    294.71944    220.75577 
   94300    131.62203   -992.83436    144409.55   -39997.104    2654.9667    -42652.07    294.99853    222.28258 
   94350    132.67182   -997.36838    144395.54   -40007.738    2676.1421    -42683.88    295.41501    224.05545 
   94400    128.66231   -861.95155    144362.35   -40018.437    2595.2657   -42613.703    295.89387    217.28421 
   94450    127.26857   -1051.9674    144310.21   -40046.848    2567.1523       -42614    295.62799    214.93047 
   94500    131.25272   -961.57795    144270.62   -40062.401    2647.5172   -42709.919    295.44729    221.65889 
   94550    132.22445   -956.04879    144274.42   -39989.276    2667.1181   -42656.394    296.09148    223.29994 
   94600    130.83145   -1120.3015    144427.62   -39993.719    2639.0197   -42632.739      296.265    220.94745 
   94650    132.75852   -1014.6541    144499.04   -40002.055    2677.8908   -42679.946    296.20457    224.20187 
   94700    131.93016   -854.20443    144439.56   -39999.275     2661.182   -42660.457    296.32097    222.80295 
   94750    131.59435   -926.14557     144602.1   -40024.671    2654.4083   -42679.079    296.71121    222.23583 
   94800     129.5191   -1022.6996    144607.48   -40070.505     2612.548   -42683.053    297.04023    218.73115 
   94850     131.2202   -954.14219    144552.28   -40058.587    2646.8612   -42705.449    297.29777    221.60396 
   94900    132.60798   -954.83273    144505.13   -40031.338    2674.8544   -42706.193     297.5153    223.94765 
   94950    131.63261   -1092.8608    144593.05   -40013.607    2655.1801   -42668.787    297.83707    222.30045 
   95000    132.29774     -1084.48    144493.88   -39937.206    2668.5964   -42605.802    297.88981     223.4237 
   95050    131.11166   -865.18198    144548.08   -39938.538    2644.6719   -42583.209    297.82418    221.42067 
   95100    131.71992   -946.36503    144640.04   -39947.995    2656.9411   -42604.936    297.68223    222.44789 
   95150    131.82436   -985.22816    144668.72   -39941.288    2659.0477   -42600.336    298.17141    222.62426 
   95200    131.34218   -982.25316    144780.06   -39929.637    2649.3217   -42578.958    298.42791    221.80996 
   95250    133.37415    -927.9407    144697.43   -39953.271    2690.3089    -42643.58    298.43111    225.24155 
   95300    133.42377   -971.60964    144713.11   -39970.314    2691.3097   -42661.624    298.56535    225.32534 
   95350    130.91774   -1044.4415    144640.98   -39952.554    2640.7603   -42593.314    298.36697    221.09317 
   95400    129.84207   -1054.1464    144595.43   -39912.793    2619.0627   -42531.856    298.16026    219.27659 
   95450    133.71945   -983.65312    144545.47   -39947.175    2697.2739   -42644.449    298.46118    225.82468 
   95500    131.23003   -932.00026    144557.98   -39962.089    2647.0595   -42609.148    298.57694    221.62056 
   95550    131.68754   -982.56099    144622.41   -39978.061     2656.288   -42634.349    298.97976     222.3932 
   95600    133.91781   -909.03208     144687.5   -39941.129    2701.2752   -42642.404    299.36985    226.15968 
   95650    132.62348   -1059.7528    144692.49   -39918.998     2675.167   -42594.165    299.13737    223.97382 
   95700    132.87819   -1053.0586    144793.93   -39960.823    2680.3049   -42641.128    299.58522    224.40398 
   95750    131.71861   -1012.7129    144805.36   -39959.298    2656.9148   -42616.213    300.11556    222.44568 
   95800    131.87103   -1138.2197    144714.32   -39973.529    2659.9892   -42633.518    299.99725    222.70308 
   95850    132.71514   -1059.9064    144762.56   -39939.922    2677.0159   -42616.938    300.33306    224.12861 
   95900    131.77937   -1111.6143    144788.34   -39903.967    2658.1404   -42562.108    300.53082    222.54829 
   95950    134.03975    -1167.965    144607.45   -39842.202    2703.7347   -42545.937     300.0932     226.3656 
   96000    135.25016   -814.83772       144632   -39804.518    2728.1502   -42532.669    300.32948    228.40975 
   96050    137.70851   -940.08272    144778.98   -39740.602    2777.7378    -42518.34     300.4562    232.56138 
   96100    135.96149    -990.0041     144907.6   -39679.303    2742.4985   -42421.802    300.49277    229.61104 
   96150    135.08664   -1358.2431    144693.78    -39695.99    2724.8518   -42420.842    300.64122    228.13359 
   96200    135.91194   -911.20147    144591.49   -39713.944     2741.499   -42455.443    301.02973    229.52735 
   96250    135.17157   -1105.2046    144491.86   -39807.241    2726.5649   -42533.806    300.95345    228.27702 
   96300    133.49426   -904.91041    144607.05   -39834.666    2692.7317   -42527.398    301.28531    225.44439 
   96350    134.99463   -891.30059    144721.23    -39828.64    2722.9957   -42551.636    301.23371     227.9782 
   96400    134.46531   -1208.8439    144702.13   -39850.863    2712.3189   -42563.182    301.18621     227.0843 
   96450    133.02434   -989.25846    144612.38   -39951.718    2683.2527   -42634.971    301.49442    224.65078 
   96500    129.89067   -1059.8919    144559.56   -40001.267     2620.043    -42621.31    301.57112    219.35866 
   96550    134.61099   -1023.6127    144611.89   -40003.788    2715.2573   -42719.045    301.48109    227.33031 
   96600     133.7185   -948.83099    144754.27   -39995.539    2697.2549   -42692.794    301.73381    225.82309 
   96650    129.84644   -1112.0441    144648.97   -39995.407     2619.151   -42614.558    302.18922    219.28397 
   96700    132.80236   -1003.9379    144790.17   -39956.571    2678.7753   -42635.346    302.49307    224.27591 
   96750    134.44772   -1008.0397    144944.96    -39927.52    2711.9641   -42639.484     302.7796    227.05459 
   96800    132.98778   -896.98622    144965.56    -39923.56    2682.5154   -42606.075    303.11078    224.58905 
   96850    134.80605   -1042.6249    144969.96   -39898.289    2719.1919   -42617.481    303.10039    227.65973 
   96900    136.13674   -1022.5913     144900.6   -39873.042    2746.0335   -42619.076     303.1818      229.907 
   96950    133.36873   -863.91674     144973.1   -39873.875    2690.1995   -42564.074    303.79161    225.23239 
   97000    133.05954   -1183.7039       144945   -39887.696    2683.9628   -42571.659    304.25678    224.71023 
   97050    132.35166   -973.87309    144842.18   -39949.842    2669.6842   -42619.526    304.49715    223.51478 
   97100    135.07306   -961.28869    144849.84   -39958.387    2724.5778   -42682.965    304.90259    228.11066 
   97150    131.92926   -1013.7026    144931.29   -39947.997    2661.1639   -42609.161    304.95164    222.80143 
   97200    133.12561   -1021.7747    144748.26   -39921.955    2685.2956    -42607.25    305.00898    224.82182 
   97250    134.65736   -979.07494    144791.02   -39914.601    2716.1927   -42630.794    305.05851    227.40862 
   97300    133.58269   -884.43092    144942.74   -39938.689    2694.5155   -42633.204    305.41893    225.59374 
   97350    133.47462   -998.13444    145072.07   -39983.792    2692.3355   -42676.127    305.71705    225.41123 
   97400    132.96921   -1154.0176    145026.66    -39976.14    2682.1408    -42658.28     306.0509    224.55769 
   97450    132.56948   -925.57056    145029.37   -39972.647    2674.0778   -42646.725    306.40258    223.88263 
   97500    134.37344   -826.79676    145131.94   -39923.084    2710.4658    -42633.55    306.24751    226.92915 
   97550    133.28679   -999.28618    145176.51   -39950.419    2688.5468   -42638.966    306.86986    225.09402 
   97600    134.32842   -997.21136    145191.72    -39937.87    2709.5575   -42647.427    307.17677     226.8531 
   97650    130.97579   -968.12398    145126.89   -39967.033    2641.9312   -42608.964    307.34938    221.19121 
   97700    132.75206   -902.49493    145244.93   -39964.698    2677.7606   -42642.459    307.48268    224.19097 
   97750    131.78116   -871.25484    145377.72   -40026.728    2658.1764   -42684.905    307.64725    222.55131 
   97800     130.3478   -816.68434    145394.35   -40061.446     2629.264    -42690.71    307.96807    220.13067 
   97850    132.42177   -1101.9551    145453.75   -40046.236    2671.0982   -42717.334    308.38864    223.63316 
   97900     131.4845    -832.0996    145317.87   -40025.709    2652.1926   -42677.902    308.14912    222.05032 
   97950     131.9919   -1109.3208     145296.7   -40078.262    2662.4272   -42740.689    308.34618     222.9072 
   98000    133.79647   -878.25503    145385.78   -40035.912    2698.8274   -42734.739    308.66874    225.95475 
   98050    134.17405    -1025.902    145428.57   -40068.665    2706.4437   -42775.109    308.82873     226.5924 
   98100    131.74666   -940.54073    145372.36   -40068.206    2657.4805   -42725.686    308.76436    222.49305 
   98150    130.96612   -973.16351    145394.74   -40032.814    2641.7361    -42674.55     308.9842    221.17487 
   98200    132.96711   -956.30348    145372.29   -40018.898    2682.0984   -42700.996    309.18951    224.55414 
   98250    132.13959   -1003.6978    145381.13   -40045.183    2665.4064    -42710.59       309.44    223.15663 
   98300    132.84103    -1063.635     145432.9   -39975.307    2679.5552   -42654.862    309.45286    224.34121 
   98350    136.16369   -997.78597    145366.11   -39998.289     2746.577   -42744.866    309.74477     229.9525 
   98400    132.19003   -1029.6212    145293.12   -40002.832    2666.4239   -42669.256    309.92087    223.24182 
   98450    131.18492   -1185.6439    145205.62   -40000.618    2646.1497   -42646.767    309.66671    221.54439 
   98500    134.94573   -785.13269    145187.53   -39934.043    2722.0094   -42656.053     309.6587    227.89562 
   98550    135.35302   -925.61204    145396.95   -39916.408    2730.2249   -42646.633    310.13157    228.58344 
   98600    135.71386   -962.72577    145448.28   -39914.945    2737.5035   -42652.449    310.00721    229.19283 
   98650    133.33257   -940.67025    145325.26   -39915.577    2689.4702   -42605.047     310.0029    225.17133 
   98700    136.95518   -997.93515    145240.63   -39884.024    2762.5423   -42646.566    310.43052    231.28917 
   98750    134.85279   -1000.4801    145255.08   -39909.314    2720.1347   -42629.448    310.76561    227.73866 
   98800    136.90501   -1048.8599    145111.63   -39906.775    2761.5303   -42668.305    310.89768    231.20444 
   98850    134.21478   -1079.1814    145127.51   -39953.492    2707.2653   -42660.758    310.67184    226.66119 
   98900    133.31777   -798.11189     145127.8   -39938.553    2689.1717   -42627.725    311.04842    225.14634 
   98950    131.79029   -1149.4556    145356.42   -39944.677    2658.3605   -42603.038    311.32527    222.56672 
   99000    131.75549   -1139.5981    145317.13   -39925.913    2657.6585   -42583.571    311.47124    222.50795 
   99050    129.50302   -1029.9725    145230.97   -39935.446    2612.2238    -42547.67    311.52137      218.704 
   99100    132.61979   -1052.2278    145171.06   -39960.388    2675.0926   -42635.481    311.77796    223.96759 
   99150    132.32104   -1056.0467     145208.6   -39962.375    2669.0664   -42631.442    311.91254    223.46306 
   99200    132.13452   -990.03344    145173.99   -39955.563    2665.3041   -42620.868    311.65276    223.14807 
   99250    132.46459   -1015.7872    145063.46   -39998.806     2671.962   -42670.768    311.48736    223.70549 
   99300    131.03498   -926.88914    145127.87   -40016.615    2643.1251    -42659.74    311.45214    221.29116 
   99350    133.79428    -1091.547     145149.5   -39963.163    2698.7833   -42661.946    311.39278    225.95106 
   99400    132.63729   -871.81225    145105.31   -39961.267    2675.4456   -42636.712    311.92473    223.99714 
   99450    131.06368   -985.18351    145042.35   -39961.452     2643.704   -42605.156     311.9412    221.33963 
   99500    132.16994   -942.59111    144904.78   -39950.289    2666.0185   -42616.308    311.88139    223.20788 
   99550    131.08831   -1057.1237    144875.05   -39981.225    2644.2008   -42625.426    312.06964    221.38122 
   99600    131.93336   -912.47018    144824.29   -39972.035    2661.2466   -42633.282    312.10521    222.80835 
   99650     130.0343   -985.68528    144848.56   -39973.156    2622.9402   -42596.096    312.77659    219.60122 
   99700     132.6446   -977.31658    144766.81   -39986.685    2675.5931   -42662.278    312.82817    224.00949 
   99750    129.58184   -1032.4303    144815.49   -40056.762    2613.8137   -42670.576     312.7172    218.83712 
   99800    132.26811   -1077.4352     144734.5   -40043.507    2667.9988   -42711.506    312.95134    223.37367 
   99850    133.22665   -1003.6245    144660.23     -40087.4    2687.3336   -42774.733    313.41891    224.99244 
   99900     132.0329   -1031.3889    144742.61   -40041.054    2663.2543   -42704.308    313.05797    222.97645 
   99950    132.68285   -1014.1721    144790.13   -40091.113    2676.3646   -42767.478    312.85586    224.07408 
  100000    128.70732   -1183.1102    144678.94   -40075.499    2596.1735   -42671.673    313.13919    217.36023 
Loop time of 436.256 on 30 procs for 100000 steps with 6768 atoms

Performance: 99.024 ns/day, 0.242 hours/ns, 229.223 timesteps/s
99.5% CPU use with 30 MPI tasks x no OpenMP threads

MPI task timing breakdown:
Section |  min time  |  avg time  |  max time  |%varavg| %total
---------------------------------------------------------------
Pair    | 71.599     | 185.35     | 369.41     | 788.3 | 42.49
Neigh   | 2.7361     | 5.5639     | 16.555     | 196.4 |  1.28
Comm    | 42.674     | 163.76     | 215.2      | 460.6 | 37.54
Output  | 0.17199    | 0.18054    | 0.28143    |   4.4 |  0.04
Modify  | 5.8773     | 79.943     | 189.95     |1001.0 | 18.32
Other   |            | 1.46       |            |       |  0.33

Nlocal:    225.6 ave 526 max 151 min
Histogram: 24 0 0 0 0 0 0 0 2 4
Nghost:    1438.37 ave 1842 max 969 min
Histogram: 12 0 0 0 0 0 0 0 12 6
Neighs:    0 ave 0 max 0 min
Histogram: 30 0 0 0 0 0 0 0 0 0
FullNghs:  26885.9 ave 95888 max 9383 min
Histogram: 24 0 0 0 0 0 0 0 2 4

Total # of neighbors = 806576
Ave neighs/atom = 119.175
Neighbor list builds = 6125
Dangerous builds = 0

write_data		${DIR}/data.eq-${NAME}-${TEMP}
write_data		run_8/data.eq-${NAME}-${TEMP}
write_data		run_8/data.eq-het_freeze_8-${TEMP}
write_data		run_8/data.eq-het_freeze_8-225
undump          1

reset_timestep  0

unfix           2
unfix           3
unfix           4


################################################
#######         Run Simulation         #########
################################################

log				${DIR}/log.run_${NAME}
log				run_8/log.run_${NAME}
log				run_8/log.run_het_freeze_8
