LAMMPS data file via write_data, version 16 Mar 2018, timestep = 100000

5021 atoms
2 atom types

0.0000000000000000e+00 4.9219999999999999e+01 xlo xhi
0.0000000000000000e+00 4.9019635930410494e+01 ylo yhi
1.4611832075818008e+00 3.8538816792421649e+01 zlo zhi

Masses

1 18.015
2 12.01

Atoms # atomic

201 2 0.0000000000000000e+00 2.8417180249513345e+00 3.1458806566107014e+00 0 0 0
203 2 0.0000000000000000e+00 0.0000000000000000e+00 3.1458806566107014e+00 0 0 0
205 2 1.2305000000000001e+00 7.1042950623783474e-01 3.1458806566107014e+00 0 0 0
212 2 1.2305000000000001e+00 2.1312885187134998e+00 3.1458806566107014e+00 0 0 0
214 2 2.4610000000000003e+00 2.8417180249513345e+00 3.1458806566107014e+00 0 0 0
216 2 2.4610000000000003e+00 0.0000000000000000e+00 3.1458806566107014e+00 0 0 0
218 2 3.6915000000000004e+00 7.1042950623783474e-01 3.1458806566107014e+00 0 0 0
233 2 3.6914999999999996e+00 2.1312885187134998e+00 3.1458806566107014e+00 0 0 0
235 2 4.9220000000000006e+00 2.8417180249513332e+00 3.1458806566107014e+00 0 0 0
237 2 4.9220000000000006e+00 0.0000000000000000e+00 3.1458806566107014e+00 0 0 0
239 2 6.1524999999999999e+00 7.1042950623783407e-01 3.1458806566107014e+00 0 0 0
262 2 6.1524999999999999e+00 2.1312885187134989e+00 3.1458806566107014e+00 0 0 0
264 2 7.3829999999999991e+00 2.8417180249513345e+00 3.1458806566107014e+00 0 0 0
266 2 7.3829999999999991e+00 0.0000000000000000e+00 3.1458806566107014e+00 0 0 0
268 2 8.6134999999999984e+00 7.1042950623783407e-01 3.1458806566107014e+00 0 0 0
299 2 8.6134999999999984e+00 2.1312885187135002e+00 3.1458806566107014e+00 0 0 0
208 2 0.0000000000000000e+00 4.2625770374269996e+00 3.1458806566107014e+00 0 0 0
210 2 1.2305000000000001e+00 4.9730065436648339e+00 3.1458806566107014e+00 0 0 0
225 2 1.2305000000000001e+00 6.3938655561404980e+00 3.1458806566107014e+00 0 0 0
229 2 2.4610000000000003e+00 4.2625770374269996e+00 3.1458806566107014e+00 0 0 0
231 2 3.6914999999999996e+00 4.9730065436648339e+00 3.1458806566107014e+00 0 0 0
254 2 3.6914999999999996e+00 6.3938655561404980e+00 3.1458806566107014e+00 0 0 0
206 2 0.0000000000000000e+00 7.1042950623783341e+00 3.1458806566107014e+00 0 0 0
227 2 2.4610000000000003e+00 7.1042950623783341e+00 3.1458806566107014e+00 0 0 0
258 2 4.9220000000000006e+00 4.2625770374269978e+00 3.1458806566107014e+00 0 0 0
260 2 6.1524999999999999e+00 4.9730065436648339e+00 3.1458806566107014e+00 0 0 0
291 2 6.1524999999999999e+00 6.3938655561404980e+00 3.1458806566107014e+00 0 0 0
295 2 7.3829999999999991e+00 4.2625770374269996e+00 3.1458806566107014e+00 0 0 0
297 2 8.6135000000000002e+00 4.9730065436648339e+00 3.1458806566107014e+00 0 0 0
336 2 8.6135000000000002e+00 6.3938655561404980e+00 3.1458806566107014e+00 0 0 0
256 2 4.9220000000000006e+00 7.1042950623783341e+00 3.1458806566107014e+00 0 0 0
293 2 7.3830000000000009e+00 7.1042950623783341e+00 3.1458806566107014e+00 0 0 0
221 2 0.0000000000000000e+00 8.5251540748539991e+00 3.1458806566107014e+00 0 0 0
223 2 1.2305000000000001e+00 9.2355835810918343e+00 3.1458806566107014e+00 0 0 0
250 2 2.4610000000000003e+00 8.5251540748539991e+00 3.1458806566107014e+00 0 0 0
252 2 3.6915000000000004e+00 9.2355835810918343e+00 3.1458806566107014e+00 0 0 0
219 2 0.0000000000000000e+00 1.1366872099805333e+01 3.1458806566107014e+00 0 0 0
246 2 1.2305000000000001e+00 1.0656442593567498e+01 3.1458806566107014e+00 0 0 0
248 2 2.4610000000000003e+00 1.1366872099805333e+01 3.1458806566107014e+00 0 0 0
283 2 3.6914999999999996e+00 1.0656442593567499e+01 3.1458806566107014e+00 0 0 0
287 2 4.9220000000000006e+00 8.5251540748539991e+00 3.1458806566107014e+00 0 0 0
289 2 6.1524999999999999e+00 9.2355835810918343e+00 3.1458806566107014e+00 0 0 0
332 2 7.3830000000000009e+00 8.5251540748539991e+00 3.1458806566107014e+00 0 0 0
334 2 8.6134999999999984e+00 9.2355835810918343e+00 3.1458806566107014e+00 0 0 0
285 2 4.9220000000000006e+00 1.1366872099805333e+01 3.1458806566107014e+00 0 0 0
328 2 6.1524999999999999e+00 1.0656442593567499e+01 3.1458806566107014e+00 0 0 0
330 2 7.3829999999999991e+00 1.1366872099805333e+01 3.1458806566107014e+00 0 0 0
375 2 8.6134999999999984e+00 1.0656442593567498e+01 3.1458806566107014e+00 0 0 0
202 2 0.0000000000000000e+00 1.4208590124756650e+00 6.2310040685918908e+00 0 0 0
204 2 0.0000000000000000e+00 0.0000000000000000e+00 6.2310040685918908e+00 0 0 0
213 2 1.2305000000000001e+00 2.1312885187134998e+00 6.2310040685918908e+00 0 0 0
215 2 2.4610000000000003e+00 1.4208590124756650e+00 6.2310040685918908e+00 0 0 0
217 2 2.4610000000000003e+00 0.0000000000000000e+00 6.2310040685918908e+00 0 0 0
234 2 3.6914999999999996e+00 2.1312885187134998e+00 6.2310040685918908e+00 0 0 0
211 2 1.2305000000000001e+00 3.5521475311891644e+00 6.2310040685918908e+00 0 0 0
232 2 3.6914999999999996e+00 3.5521475311891644e+00 6.2310040685918908e+00 0 0 0
530 2 0.0000000000000000e+00 2.8417180249513345e+00 9.3161274805724759e+00 0 0 0
531 2 0.0000000000000000e+00 0.0000000000000000e+00 9.3161274805724759e+00 0 0 0
532 2 1.2305000000000001e+00 7.1042950623783474e-01 9.3161274805724759e+00 0 0 0
536 2 1.2305000000000001e+00 2.1312885187134998e+00 9.3161274805724759e+00 0 0 0
537 2 2.4610000000000003e+00 2.8417180249513345e+00 9.3161274805724759e+00 0 0 0
538 2 2.4610000000000003e+00 0.0000000000000000e+00 9.3161274805724759e+00 0 0 0
539 2 3.6915000000000004e+00 7.1042950623783474e-01 9.3161274805724759e+00 0 0 0
547 2 3.6914999999999996e+00 2.1312885187134998e+00 9.3161274805724759e+00 0 0 0
236 2 4.9220000000000006e+00 1.4208590124756650e+00 6.2310040685918908e+00 0 0 0
238 2 4.9220000000000006e+00 0.0000000000000000e+00 6.2310040685918908e+00 0 0 0
263 2 6.1524999999999999e+00 2.1312885187134989e+00 6.2310040685918908e+00 0 0 0
265 2 7.3829999999999991e+00 1.4208590124756659e+00 6.2310040685918908e+00 0 0 0
267 2 7.3829999999999991e+00 0.0000000000000000e+00 6.2310040685918908e+00 0 0 0
300 2 8.6134999999999984e+00 2.1312885187135002e+00 6.2310040685918908e+00 0 0 0
261 2 6.1524999999999999e+00 3.5521475311891644e+00 6.2310040685918908e+00 0 0 0
298 2 8.6134999999999984e+00 3.5521475311891657e+00 6.2310040685918908e+00 0 0 0
548 2 4.9220000000000006e+00 2.8417180249513332e+00 9.3161274805724759e+00 0 0 0
549 2 4.9220000000000006e+00 0.0000000000000000e+00 9.3161274805724759e+00 0 0 0
550 2 6.1524999999999999e+00 7.1042950623783407e-01 9.3161274805724759e+00 0 0 0
562 2 6.1524999999999999e+00 2.1312885187134989e+00 9.3161274805724759e+00 0 0 0
563 2 7.3829999999999991e+00 2.8417180249513345e+00 9.3161274805724759e+00 0 0 0
564 2 7.3829999999999991e+00 0.0000000000000000e+00 9.3161274805724759e+00 0 0 0
565 2 8.6134999999999984e+00 7.1042950623783407e-01 9.3161274805724759e+00 0 0 0
581 2 8.6134999999999984e+00 2.1312885187135002e+00 9.3161274805724759e+00 0 0 0
207 2 0.0000000000000000e+00 5.6834360499026637e+00 6.2310040685918908e+00 0 0 0
209 2 0.0000000000000000e+00 4.2625770374269996e+00 6.2310040685918908e+00 0 0 0
226 2 1.2305000000000001e+00 6.3938655561404980e+00 6.2310040685918908e+00 0 0 0
228 2 2.4610000000000003e+00 5.6834360499026637e+00 6.2310040685918908e+00 0 0 0
230 2 2.4610000000000003e+00 4.2625770374269996e+00 6.2310040685918908e+00 0 0 0
255 2 3.6914999999999996e+00 6.3938655561404980e+00 6.2310040685918908e+00 0 0 0
224 2 1.2305000000000001e+00 7.8147245686161639e+00 6.2310040685918908e+00 0 0 0
253 2 3.6914999999999996e+00 7.8147245686161639e+00 6.2310040685918908e+00 0 0 0
534 2 0.0000000000000000e+00 4.2625770374269996e+00 9.3161274805724759e+00 0 0 0
535 2 1.2305000000000001e+00 4.9730065436648339e+00 9.3161274805724759e+00 0 0 0
543 2 1.2305000000000001e+00 6.3938655561404980e+00 9.3161274805724759e+00 0 0 0
545 2 2.4610000000000003e+00 4.2625770374269996e+00 9.3161274805724759e+00 0 0 0
546 2 3.6914999999999996e+00 4.9730065436648339e+00 9.3161274805724759e+00 0 0 0
558 2 3.6914999999999996e+00 6.3938655561404980e+00 9.3161274805724759e+00 0 0 0
533 2 0.0000000000000000e+00 7.1042950623783341e+00 9.3161274805724759e+00 0 0 0
544 2 2.4610000000000003e+00 7.1042950623783341e+00 9.3161274805724759e+00 0 0 0
257 2 4.9220000000000006e+00 5.6834360499026637e+00 6.2310040685918908e+00 0 0 0
259 2 4.9220000000000006e+00 4.2625770374269978e+00 6.2310040685918908e+00 0 0 0
292 2 6.1524999999999999e+00 6.3938655561404980e+00 6.2310040685918908e+00 0 0 0
294 2 7.3829999999999991e+00 5.6834360499026637e+00 6.2310040685918908e+00 0 0 0
296 2 7.3829999999999991e+00 4.2625770374269996e+00 6.2310040685918908e+00 0 0 0
337 2 8.6135000000000002e+00 6.3938655561404980e+00 6.2310040685918908e+00 0 0 0
290 2 6.1524999999999999e+00 7.8147245686161639e+00 6.2310040685918908e+00 0 0 0
335 2 8.6135000000000002e+00 7.8147245686161639e+00 6.2310040685918908e+00 0 0 0
560 2 4.9220000000000006e+00 4.2625770374269978e+00 9.3161274805724759e+00 0 0 0
561 2 6.1524999999999999e+00 4.9730065436648339e+00 9.3161274805724759e+00 0 0 0
577 2 6.1524999999999999e+00 6.3938655561404980e+00 9.3161274805724759e+00 0 0 0
579 2 7.3829999999999991e+00 4.2625770374269996e+00 9.3161274805724759e+00 0 0 0
580 2 8.6135000000000002e+00 4.9730065436648339e+00 9.3161274805724759e+00 0 0 0
600 2 8.6135000000000002e+00 6.3938655561404980e+00 9.3161274805724759e+00 0 0 0
559 2 4.9220000000000006e+00 7.1042950623783341e+00 9.3161274805724759e+00 0 0 0
578 2 7.3830000000000009e+00 7.1042950623783341e+00 9.3161274805724759e+00 0 0 0
220 2 0.0000000000000000e+00 9.9460130873296642e+00 6.2310040685918908e+00 0 0 0
222 2 0.0000000000000000e+00 8.5251540748539991e+00 6.2310040685918908e+00 0 0 0
249 2 2.4610000000000003e+00 9.9460130873296642e+00 6.2310040685918908e+00 0 0 0
251 2 2.4610000000000003e+00 8.5251540748539991e+00 6.2310040685918908e+00 0 0 0
245 2 1.2305000000000001e+00 1.2077301606043163e+01 6.2310040685918908e+00 0 0 0
247 2 1.2305000000000001e+00 1.0656442593567498e+01 6.2310040685918908e+00 0 0 0
282 2 3.6914999999999996e+00 1.2077301606043163e+01 6.2310040685918908e+00 0 0 0
284 2 3.6914999999999996e+00 1.0656442593567499e+01 6.2310040685918908e+00 0 0 0
541 2 0.0000000000000000e+00 8.5251540748539991e+00 9.3161274805724759e+00 0 0 0
542 2 1.2305000000000001e+00 9.2355835810918343e+00 9.3161274805724759e+00 0 0 0
556 2 2.4610000000000003e+00 8.5251540748539991e+00 9.3161274805724759e+00 0 0 0
557 2 3.6915000000000004e+00 9.2355835810918343e+00 9.3161274805724759e+00 0 0 0
540 2 0.0000000000000000e+00 1.1366872099805333e+01 9.3161274805724759e+00 0 0 0
554 2 1.2305000000000001e+00 1.0656442593567498e+01 9.3161274805724759e+00 0 0 0
555 2 2.4610000000000003e+00 1.1366872099805333e+01 9.3161274805724759e+00 0 0 0
573 2 3.6914999999999996e+00 1.0656442593567499e+01 9.3161274805724759e+00 0 0 0
286 2 4.9220000000000006e+00 9.9460130873296642e+00 6.2310040685918908e+00 0 0 0
288 2 4.9220000000000006e+00 8.5251540748539991e+00 6.2310040685918908e+00 0 0 0
331 2 7.3830000000000009e+00 9.9460130873296642e+00 6.2310040685918908e+00 0 0 0
333 2 7.3830000000000009e+00 8.5251540748539991e+00 6.2310040685918908e+00 0 0 0
327 2 6.1524999999999999e+00 1.2077301606043163e+01 6.2310040685918908e+00 0 0 0
329 2 6.1524999999999999e+00 1.0656442593567499e+01 6.2310040685918908e+00 0 0 0
374 2 8.6135000000000002e+00 1.2077301606043163e+01 6.2310040685918908e+00 0 0 0
376 2 8.6134999999999984e+00 1.0656442593567498e+01 6.2310040685918908e+00 0 0 0
575 2 4.9220000000000006e+00 8.5251540748539991e+00 9.3161274805724759e+00 0 0 0
576 2 6.1524999999999999e+00 9.2355835810918343e+00 9.3161274805724759e+00 0 0 0
598 2 7.3830000000000009e+00 8.5251540748539991e+00 9.3161274805724759e+00 0 0 0
599 2 8.6134999999999984e+00 9.2355835810918343e+00 9.3161274805724759e+00 0 0 0
574 2 4.9220000000000006e+00 1.1366872099805333e+01 9.3161274805724759e+00 0 0 0
596 2 6.1524999999999999e+00 1.0656442593567499e+01 9.3161274805724759e+00 0 0 0
597 2 7.3829999999999991e+00 1.1366872099805333e+01 9.3161274805724759e+00 0 0 0
620 2 8.6134999999999984e+00 1.0656442593567498e+01 9.3161274805724759e+00 0 0 0
3550 1 5.6058212135586283e+00 9.9121267318881834e-01 1.5831333029183423e+01 1 1 0
1377 1 3.4458222207592590e+00 3.6120515800278046e+00 1.2490313795479734e+01 1 0 0
4632 1 3.0724687386726468e+00 1.6625061428004333e+00 1.4584372601160219e+01 1 2 0
950 1 5.5309223649817429e-01 4.6466191823382150e+00 1.1780658007850292e+01 0 -1 0
3486 1 8.3219302716483607e+00 1.6651196463818896e+00 1.1789042456444269e+01 0 0 0
2200 1 8.9250291910534774e+00 1.8594950458795168e+00 1.4666683331134143e+01 1 2 0
2585 1 6.3012959100603618e+00 3.9356866034823916e+00 1.1771104523451520e+01 1 0 0
965 1 6.8679628533239754e+00 3.4233717396508379e+00 1.4581878003649845e+01 0 0 0
3540 1 1.7118184520628505e+00 8.8486210038682991e+00 1.2445845826701824e+01 0 0 1
2421 1 4.3283742103642258e+00 8.1962075660597637e+00 1.2129361669306689e+01 0 1 0
4926 1 5.0650904022637970e+00 8.1747756848582949e+00 1.4873715494992322e+01 -1 0 -1
1253 1 8.1300086346636868e-01 4.9940636990008530e-01 1.8015229846111843e+01 1 0 0
1060 1 6.6157752583005918e+00 6.5890227387236182e+00 1.1788918293807896e+01 0 0 0
3412 1 5.3054849133236655e+00 1.7107521804317329e+00 1.8416811653134221e+01 0 0 0
2201 1 6.9033983285414067e+00 6.0865938965111486e+00 1.5700174368698580e+01 0 1 0
2393 1 3.8950944860781087e+00 1.1449884694437014e+01 1.4268949694613701e+01 1 0 0
69 1 8.8486002416961007e+00 9.5010487598749371e+00 1.6314448317142983e+01 0 1 1
923 1 7.4334967276714350e+00 1.1078427092062769e+01 1.2698565847941760e+01 0 0 0
3925 1 4.7820018753608124e+00 1.0804516125441415e+01 1.1771054068505359e+01 1 1 0
1213 1 6.3244482752264277e+00 1.1040865993783662e+01 1.5538432387464361e+01 0 0 0
2513 1 9.1768682291912214e+00 7.1122941415145604e+00 1.4932534990413115e+01 0 1 0
121 1 2.5674925363923116e+00 2.5641698390999270e+00 1.7965273779403663e+01 0 0 0
2211 1 5.4651431097016989e-01 1.1604259804623021e+01 1.4718568680122702e+01 0 0 0
1219 1 3.2432307562845040e+00 1.0959721835178369e+01 1.9914514143820753e+01 1 0 -1
1376 1 6.9629719807929256e+00 3.8005827429712520e+00 1.9147629859141670e+01 0 1 0
3419 1 1.4852231997120184e+00 1.0413818854331023e+01 1.7639683918819308e+01 0 0 0
4977 1 6.8533520122454412e+00 6.5096183768499376e+00 1.8301459738884692e+01 0 1 0
2678 1 2.5518295064073868e+00 6.8940269611223579e+00 1.7082497849093460e+01 1 0 0
917 1 2.1398319426378452e+00 4.4908380787715627e+00 1.5394691151832935e+01 0 0 0
110 1 5.2978757691032652e-01 1.1820545823641304e-01 1.2244462720814187e+01 1 1 0
1058 1 4.2033257233126147e+00 6.4942564118178305e+00 1.9023152088025437e+01 1 1 0
1256 1 2.5911332548307331e+00 9.0385020955720350e+00 1.5227230328144474e+01 0 0 0
2532 1 6.0291002755184113e+00 1.0604297267059202e+01 1.8474273889958344e+01 0 0 0
5012 1 8.8475825842866627e+00 8.3651928880557165e+00 1.8787614256847043e+01 0 0 0
25 1 9.3062722207961919e+00 7.0880151399018194e+00 1.2027768243751909e+01 0 1 0
4856 1 9.8219712855746995e+00 9.8916375642919654e+00 1.1720985734102269e+01 1 1 0
1344 1 8.8123591283523761e-01 1.1483806652950387e+01 1.1731582123999678e+01 0 -1 0
3780 1 3.3975335623096719e+00 2.8917573335887103e-01 1.2009704730294633e+01 0 0 -1
3652 1 6.7805314091863456e-01 1.9614431334097600e+00 2.2955235921954621e+01 1 0 -1
3464 1 4.0035617981056442e+00 4.1297684422912023e-01 2.5048482401435319e+01 0 0 0
1262 1 1.6768948313427396e+00 7.2962649007487146e+00 2.7397673624541007e+01 1 0 -1
4986 1 6.0962664770084158e+00 8.4380590373741504e-01 2.2663446575451172e+01 0 1 0
195 1 6.8927894966319325e+00 3.3660012466768547e+00 2.3714651811328814e+01 1 0 0
3581 1 5.3895495813228056e+00 4.4436402680925324e+00 2.5959080755879462e+01 0 2 0
4636 1 3.7057540600353169e+00 4.5450470383512140e+00 2.1127365728612485e+01 1 1 -1
2285 1 2.2359293783954231e+00 5.8749212748258213e+00 2.3075845572916492e+01 1 1 -1
2656 1 8.4271468532545306e+00 1.1472987080288119e+01 2.5601711397740971e+01 1 0 1
1427 1 3.3426261575470582e+00 6.2802393280769913e+00 2.5556132482203960e+01 1 1 0
94 1 6.9380238571058461e+00 1.2031658914509922e+01 2.3126107439597011e+01 1 0 0
2270 1 6.3415093781947229e+00 5.0345635982294024e+00 2.1563156287201618e+01 0 0 0
2307 1 7.0280204627579304e+00 7.9672305888381798e+00 2.6910575000377555e+01 1 1 0
1237 1 7.0935700220049815e+00 7.4075325391496660e-01 2.8037836310067718e+01 0 0 -1
9 1 7.4976989053514806e+00 9.7175141383477150e+00 2.0599522019394801e+01 0 0 0
2268 1 9.4718825156720232e+00 4.6576795594585478e+00 2.4379885308301567e+01 0 1 -1
1349 1 8.5853580734463852e-01 1.0165383852565558e+01 2.1370367266826008e+01 -1 1 0
3685 1 3.6415504427839012e+00 1.1642301844637702e+01 2.8064684177202373e+01 0 0 0
4988 1 9.4111177283315861e+00 9.2425361360838689e+00 2.4030415178889825e+01 0 0 -1
2408 1 6.2240361984247450e+00 7.8372940019689974e+00 2.2250578059386889e+01 0 0 0
2386 1 6.5038140405672609e+00 1.1131676605351807e+01 2.7708949558644239e+01 0 -1 -1
4744 1 2.4296518655843058e+00 2.8504953836227251e+00 2.8542526461906498e+01 1 1 0
1054 1 1.8059488327645314e+00 2.8309450170633692e+00 2.5546433867283181e+01 1 0 0
4754 1 4.7742657875755503e+00 1.9339396251264209e+00 2.7282282406032586e+01 1 1 0
4782 1 2.6027750010625201e+00 2.1178491878856494e+00 2.0795280929134837e+01 0 0 0
4749 1 9.0855709910916520e+00 2.3795619075593399e+00 2.8945482105334325e+01 1 1 -1
1017 1 6.3832131540487254e+00 5.4419973227652001e+00 2.8199992150585295e+01 0 0 0
1208 1 5.0934802775503227e+00 8.5360909648759158e+00 2.4925008613646327e+01 0 1 -1
2677 1 3.4138768109351592e+00 5.8067389985537012e+00 2.9029247513582241e+01 0 0 0
139 1 1.8156934800671429e+00 8.8464028902797587e+00 2.3528230766041840e+01 -1 0 1
3559 1 2.0820614913229804e-01 1.1907120092192356e+01 2.5342860425071308e+01 0 0 0
926 1 9.5248592826784471e+00 7.1423190860303274e+00 2.5584035528969874e+01 0 0 0
1318 1 1.9567596026114453e+00 9.5679846327197495e+00 2.8947783575233224e+01 0 1 0
1149 1 3.0126240062243559e+00 1.0505582793973426e+01 2.5517977231197822e+01 1 0 -1
2198 1 3.6836707551023298e+00 8.2481665155658188e+00 2.1311315474720622e+01 0 0 0
31 1 9.0248214462834948e+00 4.6863093203467843e+00 2.7685301490082349e+01 0 0 0
64 1 9.3097159759590333e+00 6.1194689950655814e+00 2.1835748831959876e+01 0 1 1
1040 1 2.3133098895891555e+00 2.8436210249129057e+00 3.1484977185865752e+01 1 1 0
1267 1 4.8947194911216814e+00 1.1534366884082242e+01 3.0731073974088485e+01 0 0 -1
1333 1 3.7783514607152942e+00 1.5072600622245638e+00 3.4465712532358538e+01 0 0 0
4842 1 6.5144683033385222e+00 3.2371600425556002e+00 3.4250355084660370e+01 0 1 0
4836 1 1.1855202781841849e+00 2.8816945985069070e-01 3.1812867500407378e+01 1 1 0
2520 1 9.1662623172517961e+00 8.3928002042856242e+00 3.5022125217796017e+01 0 0 0
3778 1 5.2095757893769150e+00 7.2023238742330680e+00 3.0701033075444748e+01 0 0 -1
3607 1 1.1961933082208565e+00 5.2169721735397632e+00 3.1029983506885475e+01 0 2 -1
1099 1 5.1474688277366107e+00 2.1843767556245730e+00 3.1568010715018715e+01 -1 1 0
125 1 6.6058642517193009e+00 6.0877679060820542e+00 3.2910262247892533e+01 1 1 0
4884 1 4.3002149942089423e+00 1.6192174408936353e+00 3.7865539152261263e+01 0 -1 0
3671 1 7.3319558802159248e+00 9.0908908548561502e+00 2.9791150555624728e+01 0 2 0
908 1 3.3701828726140217e+00 8.9162347392956836e+00 3.1326512684121489e+01 1 0 0
1384 1 9.1946210741548224e+00 1.0449120492657469e+01 3.3377983651638218e+01 1 1 1
59 1 7.8257734956324096e+00 1.1597944197606759e+01 3.0855099424835771e+01 0 -1 0
4667 1 1.9863007303265403e+00 3.8712528012665750e+00 3.4149863819810150e+01 0 0 0
1310 1 4.0457794104829734e+00 1.0692623472767282e+01 3.3653660658515506e+01 0 0 0
2326 1 6.7147739807755915e+00 1.0915697769059205e+01 3.4694960670462606e+01 0 1 0
2272 1 2.1915464211709832e+00 3.4505446628402763e+00 3.7532002275262627e+01 1 0 0
2260 1 6.7637187845580469e+00 2.6768855785878816e+00 3.7417403526899633e+01 1 1 0
4902 1 8.6246898868526252e+00 4.9612691470950949e+00 3.7639967184228155e+01 0 0 0
4765 1 2.6251316263109099e+00 7.8733427680526553e+00 3.7550100013565014e+01 1 1 0
3461 1 2.2729673464932558e+00 6.9724985476201073e+00 3.3281821787213104e+01 0 0 0
3619 1 3.9920046796280406e+00 5.6630838409014750e+00 3.7308027462035909e+01 1 1 0
4650 1 4.4407663068653500e+00 5.9306935710290549e+00 3.4499885019123852e+01 1 1 0
1362 1 6.3620685591641424e+00 7.9914073703455912e+00 3.5446288018076217e+01 2 1 0
4860 1 8.3545800238491204e+00 9.7680565337780560e+00 3.7482450139990419e+01 -1 1 0
4694 1 6.6015727199132082e+00 6.7121280253073961e+00 3.7817157363959666e+01 1 0 0
3547 1 9.1774733486828080e+00 3.3100796120489893e+00 3.4824076868404859e+01 1 1 0
2683 1 9.2809485334205366e+00 6.6703076848396430e+00 2.9900638448041523e+01 1 0 0
2372 1 7.1261037573876784e+00 4.1012513621148008e+00 3.0730741578210367e+01 1 1 0
3739 1 3.6558565375757044e+00 1.0452912862924391e+01 3.7732871510770337e+01 1 0 1
15 1 6.4328770126120052e+00 1.1496493434320593e+01 3.7163724564808362e+01 0 1 0
2271 1 8.8992740320243584e+00 8.5997054010532770e-01 3.7584056647692933e+01 0 1 0
5015 1 9.5582189707569967e+00 3.4241198756829374e+00 3.2065346084948629e+01 1 1 0
3428 1 6.2195298486157613e-01 8.0558453784634931e+00 3.5085553627835694e+01 1 -1 0
2708 1 1.8386225402846392e+00 1.2214577314306574e+01 3.4397740891002343e+01 1 -1 0
242 2 0.0000000000000000e+00 1.2787731112280996e+01 3.1458806566107014e+00 0 0 0
244 2 1.2305000000000001e+00 1.3498160618518829e+01 3.1458806566107014e+00 0 0 0
279 2 2.4610000000000003e+00 1.2787731112280996e+01 3.1458806566107014e+00 0 0 0
281 2 3.6915000000000004e+00 1.3498160618518829e+01 3.1458806566107014e+00 0 0 0
240 2 0.0000000000000000e+00 1.5629449137232333e+01 3.1458806566107014e+00 0 0 0
275 2 1.2305000000000001e+00 1.4919019630994494e+01 3.1458806566107014e+00 0 0 0
277 2 2.4610000000000003e+00 1.5629449137232328e+01 3.1458806566107014e+00 0 0 0
320 2 3.6915000000000004e+00 1.4919019630994494e+01 3.1458806566107014e+00 0 0 0
324 2 4.9220000000000006e+00 1.2787731112280996e+01 3.1458806566107014e+00 0 0 0
326 2 6.1524999999999990e+00 1.3498160618518829e+01 3.1458806566107014e+00 0 0 0
371 2 7.3829999999999991e+00 1.2787731112280996e+01 3.1458806566107014e+00 0 0 0
373 2 8.6135000000000002e+00 1.3498160618518835e+01 3.1458806566107014e+00 0 0 0
322 2 4.9220000000000006e+00 1.5629449137232333e+01 3.1458806566107014e+00 0 0 0
367 2 6.1524999999999990e+00 1.4919019630994494e+01 3.1458806566107014e+00 0 0 0
369 2 7.3829999999999991e+00 1.5629449137232333e+01 3.1458806566107014e+00 0 0 0
414 2 8.6135000000000002e+00 1.4919019630994494e+01 3.1458806566107014e+00 0 0 0
271 2 0.0000000000000000e+00 1.7050308149707998e+01 3.1458806566107014e+00 0 0 0
316 2 2.4610000000000003e+00 1.7050308149707998e+01 3.1458806566107014e+00 0 0 0
269 2 0.0000000000000000e+00 1.9892026174659328e+01 3.1458806566107014e+00 0 0 0
273 2 1.2305000000000001e+00 1.7760737655945832e+01 3.1458806566107014e+00 0 0 0
312 2 1.2305000000000001e+00 1.9181596668421495e+01 3.1458806566107014e+00 0 0 0
314 2 2.4610000000000003e+00 1.9892026174659328e+01 3.1458806566107014e+00 0 0 0
318 2 3.6914999999999996e+00 1.7760737655945832e+01 3.1458806566107014e+00 0 0 0
359 2 3.6914999999999996e+00 1.9181596668421495e+01 3.1458806566107014e+00 0 0 0
363 2 4.9220000000000006e+00 1.7050308149707998e+01 3.1458806566107014e+00 0 0 0
410 2 7.3830000000000009e+00 1.7050308149707998e+01 3.1458806566107014e+00 0 0 0
361 2 4.9220000000000006e+00 1.9892026174659328e+01 3.1458806566107014e+00 0 0 0
365 2 6.1524999999999999e+00 1.7760737655945832e+01 3.1458806566107014e+00 0 0 0
406 2 6.1524999999999999e+00 1.9181596668421495e+01 3.1458806566107014e+00 0 0 0
408 2 7.3829999999999991e+00 1.9892026174659328e+01 3.1458806566107014e+00 0 0 0
412 2 8.6134999999999984e+00 1.7760737655945832e+01 3.1458806566107014e+00 0 0 0
448 2 8.6135000000000002e+00 1.9181596668421495e+01 3.1458806566107014e+00 0 0 0
306 2 0.0000000000000000e+00 2.4154603212086325e+01 3.1458806566107014e+00 0 0 0
308 2 0.0000000000000000e+00 2.1312885187134999e+01 3.1458806566107014e+00 0 0 0
310 2 1.2304999999999993e+00 2.2023314693372832e+01 3.1458806566107014e+00 0 0 0
351 2 1.2304999999999993e+00 2.3444173705848499e+01 3.1458806566107014e+00 0 0 0
353 2 2.4610000000000003e+00 2.4154603212086325e+01 3.1458806566107014e+00 0 0 0
355 2 2.4610000000000003e+00 2.1312885187134995e+01 3.1458806566107014e+00 0 0 0
357 2 3.6914999999999996e+00 2.2023314693372832e+01 3.1458806566107014e+00 0 0 0
398 2 3.6915000000000004e+00 2.3444173705848499e+01 3.1458806566107014e+00 0 0 0
400 2 4.9220000000000006e+00 2.4154603212086325e+01 3.1458806566107014e+00 0 0 0
402 2 4.9220000000000006e+00 2.1312885187134995e+01 3.1458806566107014e+00 0 0 0
404 2 6.1524999999999990e+00 2.2023314693372832e+01 3.1458806566107014e+00 0 0 0
440 2 6.1524999999999999e+00 2.3444173705848499e+01 3.1458806566107014e+00 0 0 0
442 2 7.3830000000000009e+00 2.4154603212086336e+01 3.1458806566107014e+00 0 0 0
444 2 7.3829999999999991e+00 2.1312885187134999e+01 3.1458806566107014e+00 0 0 0
446 2 8.6135000000000002e+00 2.2023314693372832e+01 3.1458806566107014e+00 0 0 0
474 2 8.6134999999999984e+00 2.3444173705848499e+01 3.1458806566107014e+00 0 0 0
243 2 0.0000000000000000e+00 1.2787731112280996e+01 6.2310040685918908e+00 0 0 0
280 2 2.4610000000000003e+00 1.2787731112280996e+01 6.2310040685918908e+00 0 0 0
241 2 0.0000000000000000e+00 1.4208590124756663e+01 6.2310040685918908e+00 0 0 0
276 2 1.2305000000000001e+00 1.4919019630994494e+01 6.2310040685918908e+00 0 0 0
278 2 2.4610000000000003e+00 1.4208590124756663e+01 6.2310040685918908e+00 0 0 0
321 2 3.6915000000000004e+00 1.4919019630994494e+01 6.2310040685918908e+00 0 0 0
552 2 0.0000000000000000e+00 1.2787731112280996e+01 9.3161274805724759e+00 0 0 0
553 2 1.2305000000000001e+00 1.3498160618518829e+01 9.3161274805724759e+00 0 0 0
571 2 2.4610000000000003e+00 1.2787731112280996e+01 9.3161274805724759e+00 0 0 0
572 2 3.6915000000000004e+00 1.3498160618518829e+01 9.3161274805724759e+00 0 0 0
551 2 0.0000000000000000e+00 1.5629449137232333e+01 9.3161274805724759e+00 0 0 0
569 2 1.2305000000000001e+00 1.4919019630994494e+01 9.3161274805724759e+00 0 0 0
570 2 2.4610000000000003e+00 1.5629449137232328e+01 9.3161274805724759e+00 0 0 0
592 2 3.6915000000000004e+00 1.4919019630994494e+01 9.3161274805724759e+00 0 0 0
325 2 4.9220000000000006e+00 1.2787731112280996e+01 6.2310040685918908e+00 0 0 0
372 2 7.3829999999999991e+00 1.2787731112280996e+01 6.2310040685918908e+00 0 0 0
323 2 4.9220000000000006e+00 1.4208590124756663e+01 6.2310040685918908e+00 0 0 0
368 2 6.1524999999999990e+00 1.4919019630994494e+01 6.2310040685918908e+00 0 0 0
370 2 7.3830000000000009e+00 1.4208590124756663e+01 6.2310040685918908e+00 0 0 0
415 2 8.6135000000000002e+00 1.4919019630994494e+01 6.2310040685918908e+00 0 0 0
594 2 4.9220000000000006e+00 1.2787731112280996e+01 9.3161274805724759e+00 0 0 0
595 2 6.1524999999999990e+00 1.3498160618518829e+01 9.3161274805724759e+00 0 0 0
618 2 7.3829999999999991e+00 1.2787731112280996e+01 9.3161274805724759e+00 0 0 0
619 2 8.6135000000000002e+00 1.3498160618518835e+01 9.3161274805724759e+00 0 0 0
593 2 4.9220000000000006e+00 1.5629449137232333e+01 9.3161274805724759e+00 0 0 0
616 2 6.1524999999999990e+00 1.4919019630994494e+01 9.3161274805724759e+00 0 0 0
617 2 7.3829999999999991e+00 1.5629449137232333e+01 9.3161274805724759e+00 0 0 0
640 2 8.6135000000000002e+00 1.4919019630994494e+01 9.3161274805724759e+00 0 0 0
272 2 0.0000000000000000e+00 1.7050308149707998e+01 6.2310040685918908e+00 0 0 0
274 2 1.2305000000000001e+00 1.6339878643470165e+01 6.2310040685918908e+00 0 0 0
317 2 2.4610000000000003e+00 1.7050308149707998e+01 6.2310040685918908e+00 0 0 0
319 2 3.6915000000000004e+00 1.6339878643470165e+01 6.2310040685918908e+00 0 0 0
270 2 0.0000000000000000e+00 1.8471167162183658e+01 6.2310040685918908e+00 0 0 0
313 2 1.2305000000000001e+00 1.9181596668421495e+01 6.2310040685918908e+00 0 0 0
315 2 2.4610000000000003e+00 1.8471167162183658e+01 6.2310040685918908e+00 0 0 0
360 2 3.6914999999999996e+00 1.9181596668421495e+01 6.2310040685918908e+00 0 0 0
567 2 0.0000000000000000e+00 1.7050308149707998e+01 9.3161274805724759e+00 0 0 0
590 2 2.4610000000000003e+00 1.7050308149707998e+01 9.3161274805724759e+00 0 0 0
566 2 0.0000000000000000e+00 1.9892026174659328e+01 9.3161274805724759e+00 0 0 0
568 2 1.2305000000000001e+00 1.7760737655945832e+01 9.3161274805724759e+00 0 0 0
588 2 1.2305000000000001e+00 1.9181596668421495e+01 9.3161274805724759e+00 0 0 0
589 2 2.4610000000000003e+00 1.9892026174659328e+01 9.3161274805724759e+00 0 0 0
591 2 3.6914999999999996e+00 1.7760737655945832e+01 9.3161274805724759e+00 0 0 0
612 2 3.6914999999999996e+00 1.9181596668421495e+01 9.3161274805724759e+00 0 0 0
364 2 4.9220000000000006e+00 1.7050308149707998e+01 6.2310040685918908e+00 0 0 0
366 2 6.1524999999999999e+00 1.6339878643470165e+01 6.2310040685918908e+00 0 0 0
411 2 7.3830000000000009e+00 1.7050308149707998e+01 6.2310040685918908e+00 0 0 0
413 2 8.6134999999999984e+00 1.6339878643470165e+01 6.2310040685918908e+00 0 0 0
362 2 4.9220000000000006e+00 1.8471167162183658e+01 6.2310040685918908e+00 0 0 0
407 2 6.1524999999999999e+00 1.9181596668421495e+01 6.2310040685918908e+00 0 0 0
409 2 7.3829999999999991e+00 1.8471167162183658e+01 6.2310040685918908e+00 0 0 0
449 2 8.6135000000000002e+00 1.9181596668421495e+01 6.2310040685918908e+00 0 0 0
614 2 4.9220000000000006e+00 1.7050308149707998e+01 9.3161274805724759e+00 0 0 0
638 2 7.3830000000000009e+00 1.7050308149707998e+01 9.3161274805724759e+00 0 0 0
613 2 4.9220000000000006e+00 1.9892026174659328e+01 9.3161274805724759e+00 0 0 0
615 2 6.1524999999999999e+00 1.7760737655945832e+01 9.3161274805724759e+00 0 0 0
636 2 6.1524999999999999e+00 1.9181596668421495e+01 9.3161274805724759e+00 0 0 0
637 2 7.3829999999999991e+00 1.9892026174659328e+01 9.3161274805724759e+00 0 0 0
639 2 8.6134999999999984e+00 1.7760737655945832e+01 9.3161274805724759e+00 0 0 0
657 2 8.6135000000000002e+00 1.9181596668421495e+01 9.3161274805724759e+00 0 0 0
311 2 1.2305000000000001e+00 2.0602455680897162e+01 6.2310040685918908e+00 0 0 0