LAMMPS data file via write_data, version 16 Mar 2018, timestep = 100000

4537 atoms
2 atom types

0.0000000000000000e+00 4.9219999999999999e+01 xlo xhi
0.0000000000000000e+00 4.9019635930410494e+01 ylo yhi
1.7361014229051488e+00 3.2203898577093717e+01 zlo zhi

Masses

1 18.015
2 12.01

Atoms # atomic

96 2 0.0000000000000000e+00 2.8417180249513345e+00 3.3759696606391847e+00 0 0 0
98 2 0.0000000000000000e+00 0.0000000000000000e+00 3.3759696606391847e+00 0 0 0
100 2 1.2305000000000001e+00 7.1042950623783474e-01 3.3759696606391847e+00 0 0 0
107 2 1.2305000000000001e+00 2.1312885187134998e+00 3.3759696606391847e+00 0 0 0
109 2 2.4610000000000003e+00 2.8417180249513345e+00 3.3759696606391847e+00 0 0 0
111 2 2.4610000000000003e+00 0.0000000000000000e+00 3.3759696606391847e+00 0 0 0
113 2 3.6915000000000004e+00 7.1042950623783474e-01 3.3759696606391847e+00 0 0 0
128 2 3.6914999999999996e+00 2.1312885187134998e+00 3.3759696606391847e+00 0 0 0
130 2 4.9220000000000006e+00 2.8417180249513332e+00 3.3759696606391847e+00 0 0 0
132 2 4.9220000000000006e+00 0.0000000000000000e+00 3.3759696606391847e+00 0 0 0
134 2 6.1524999999999999e+00 7.1042950623783407e-01 3.3759696606391847e+00 0 0 0
157 2 6.1524999999999999e+00 2.1312885187134989e+00 3.3759696606391847e+00 0 0 0
159 2 7.3829999999999991e+00 2.8417180249513345e+00 3.3759696606391847e+00 0 0 0
161 2 7.3829999999999991e+00 0.0000000000000000e+00 3.3759696606391847e+00 0 0 0
163 2 8.6134999999999984e+00 7.1042950623783407e-01 3.3759696606391847e+00 0 0 0
194 2 8.6134999999999984e+00 2.1312885187135002e+00 3.3759696606391847e+00 0 0 0
196 2 9.8440000000000012e+00 2.8417180249513332e+00 3.3759696606391847e+00 0 0 0
198 2 9.8440000000000012e+00 0.0000000000000000e+00 3.3759696606391847e+00 0 0 0
200 2 1.1074500000000002e+01 7.1042950623783330e-01 3.3759696606391847e+00 0 0 0
239 2 1.1074500000000002e+01 2.1312885187135002e+00 3.3759696606391847e+00 0 0 0
103 2 0.0000000000000000e+00 4.2625770374269996e+00 3.3759696606391847e+00 0 0 0
105 2 1.2305000000000001e+00 4.9730065436648339e+00 3.3759696606391847e+00 0 0 0
120 2 1.2305000000000001e+00 6.3938655561404980e+00 3.3759696606391847e+00 0 0 0
124 2 2.4610000000000003e+00 4.2625770374269996e+00 3.3759696606391847e+00 0 0 0
126 2 3.6914999999999996e+00 4.9730065436648339e+00 3.3759696606391847e+00 0 0 0
149 2 3.6914999999999996e+00 6.3938655561404980e+00 3.3759696606391847e+00 0 0 0
101 2 0.0000000000000000e+00 7.1042950623783341e+00 3.3759696606391847e+00 0 0 0
122 2 2.4610000000000003e+00 7.1042950623783341e+00 3.3759696606391847e+00 0 0 0
153 2 4.9220000000000006e+00 4.2625770374269978e+00 3.3759696606391847e+00 0 0 0
155 2 6.1524999999999999e+00 4.9730065436648339e+00 3.3759696606391847e+00 0 0 0
186 2 6.1524999999999999e+00 6.3938655561404980e+00 3.3759696606391847e+00 0 0 0
190 2 7.3829999999999991e+00 4.2625770374269996e+00 3.3759696606391847e+00 0 0 0
151 2 4.9220000000000006e+00 7.1042950623783341e+00 3.3759696606391847e+00 0 0 0
188 2 7.3830000000000009e+00 7.1042950623783341e+00 3.3759696606391847e+00 0 0 0
192 2 8.6135000000000002e+00 4.9730065436648339e+00 3.3759696606391847e+00 0 0 0
231 2 8.6135000000000002e+00 6.3938655561404980e+00 3.3759696606391847e+00 0 0 0
235 2 9.8440000000000012e+00 4.2625770374270004e+00 3.3759696606391847e+00 0 0 0
237 2 1.1074500000000002e+01 4.9730065436648339e+00 3.3759696606391847e+00 0 0 0
278 2 1.1074500000000002e+01 6.3938655561404980e+00 3.3759696606391847e+00 0 0 0
233 2 9.8440000000000012e+00 7.1042950623783341e+00 3.3759696606391847e+00 0 0 0
116 2 0.0000000000000000e+00 8.5251540748539991e+00 3.3759696606391847e+00 0 0 0
118 2 1.2305000000000001e+00 9.2355835810918343e+00 3.3759696606391847e+00 0 0 0
145 2 2.4610000000000003e+00 8.5251540748539991e+00 3.3759696606391847e+00 0 0 0
147 2 3.6915000000000004e+00 9.2355835810918343e+00 3.3759696606391847e+00 0 0 0
114 2 0.0000000000000000e+00 1.1366872099805333e+01 3.3759696606391847e+00 0 0 0
141 2 1.2305000000000001e+00 1.0656442593567498e+01 3.3759696606391847e+00 0 0 0
143 2 2.4610000000000003e+00 1.1366872099805333e+01 3.3759696606391847e+00 0 0 0
178 2 3.6914999999999996e+00 1.0656442593567499e+01 3.3759696606391847e+00 0 0 0
182 2 4.9220000000000006e+00 8.5251540748539991e+00 3.3759696606391847e+00 0 0 0
184 2 6.1524999999999999e+00 9.2355835810918343e+00 3.3759696606391847e+00 0 0 0
227 2 7.3830000000000009e+00 8.5251540748539991e+00 3.3759696606391847e+00 0 0 0
180 2 4.9220000000000006e+00 1.1366872099805333e+01 3.3759696606391847e+00 0 0 0
223 2 6.1524999999999999e+00 1.0656442593567499e+01 3.3759696606391847e+00 0 0 0
225 2 7.3829999999999991e+00 1.1366872099805333e+01 3.3759696606391847e+00 0 0 0
229 2 8.6134999999999984e+00 9.2355835810918343e+00 3.3759696606391847e+00 0 0 0
274 2 9.8440000000000012e+00 8.5251540748539956e+00 3.3759696606391847e+00 0 0 0
276 2 1.1074500000000002e+01 9.2355835810918343e+00 3.3759696606391847e+00 0 0 0
270 2 8.6134999999999984e+00 1.0656442593567498e+01 3.3759696606391847e+00 0 0 0
272 2 9.8440000000000012e+00 1.1366872099805333e+01 3.3759696606391847e+00 0 0 0
317 2 1.1074500000000002e+01 1.0656442593567498e+01 3.3759696606391847e+00 0 0 0
319 2 1.2304999999999998e+01 1.1366872099805333e+01 3.3759696606391847e+00 0 0 0
97 2 0.0000000000000000e+00 1.4208590124756650e+00 6.3573583847754875e+00 0 0 0
99 2 0.0000000000000000e+00 0.0000000000000000e+00 6.3573583847754875e+00 0 0 0
108 2 1.2305000000000001e+00 2.1312885187134998e+00 6.3573583847754875e+00 0 0 0
110 2 2.4610000000000003e+00 1.4208590124756650e+00 6.3573583847754875e+00 0 0 0
112 2 2.4610000000000003e+00 0.0000000000000000e+00 6.3573583847754875e+00 0 0 0
129 2 3.6914999999999996e+00 2.1312885187134998e+00 6.3573583847754875e+00 0 0 0
425 2 0.0000000000000000e+00 2.8417180249513345e+00 9.3387471089120737e+00 0 0 0
426 2 0.0000000000000000e+00 0.0000000000000000e+00 9.3387471089120737e+00 0 0 0
427 2 1.2305000000000001e+00 7.1042950623783474e-01 9.3387471089120737e+00 0 0 0
431 2 1.2305000000000001e+00 2.1312885187134998e+00 9.3387471089120737e+00 0 0 0
432 2 2.4610000000000003e+00 2.8417180249513345e+00 9.3387471089120737e+00 0 0 0
433 2 2.4610000000000003e+00 0.0000000000000000e+00 9.3387471089120737e+00 0 0 0
434 2 3.6915000000000004e+00 7.1042950623783474e-01 9.3387471089120737e+00 0 0 0
442 2 3.6914999999999996e+00 2.1312885187134998e+00 9.3387471089120737e+00 0 0 0
106 2 1.2305000000000001e+00 3.5521475311891644e+00 6.3573583847754875e+00 0 0 0
127 2 3.6914999999999996e+00 3.5521475311891644e+00 6.3573583847754875e+00 0 0 0
131 2 4.9220000000000006e+00 1.4208590124756650e+00 6.3573583847754875e+00 0 0 0
133 2 4.9220000000000006e+00 0.0000000000000000e+00 6.3573583847754875e+00 0 0 0
158 2 6.1524999999999999e+00 2.1312885187134989e+00 6.3573583847754875e+00 0 0 0
160 2 7.3829999999999991e+00 1.4208590124756659e+00 6.3573583847754875e+00 0 0 0
162 2 7.3829999999999991e+00 0.0000000000000000e+00 6.3573583847754875e+00 0 0 0
443 2 4.9220000000000006e+00 2.8417180249513332e+00 9.3387471089120737e+00 0 0 0
444 2 4.9220000000000006e+00 0.0000000000000000e+00 9.3387471089120737e+00 0 0 0
445 2 6.1524999999999999e+00 7.1042950623783407e-01 9.3387471089120737e+00 0 0 0
457 2 6.1524999999999999e+00 2.1312885187134989e+00 9.3387471089120737e+00 0 0 0
458 2 7.3829999999999991e+00 2.8417180249513345e+00 9.3387471089120737e+00 0 0 0
459 2 7.3829999999999991e+00 0.0000000000000000e+00 9.3387471089120737e+00 0 0 0
156 2 6.1524999999999999e+00 3.5521475311891644e+00 6.3573583847754875e+00 0 0 0
195 2 8.6134999999999984e+00 2.1312885187135002e+00 6.3573583847754875e+00 0 0 0
197 2 9.8440000000000012e+00 1.4208590124756659e+00 6.3573583847754875e+00 0 0 0
199 2 9.8440000000000012e+00 0.0000000000000000e+00 6.3573583847754875e+00 0 0 0
240 2 1.1074500000000002e+01 2.1312885187135002e+00 6.3573583847754875e+00 0 0 0
460 2 8.6134999999999984e+00 7.1042950623783407e-01 9.3387471089120737e+00 0 0 0
476 2 8.6134999999999984e+00 2.1312885187135002e+00 9.3387471089120737e+00 0 0 0
477 2 9.8440000000000012e+00 2.8417180249513332e+00 9.3387471089120737e+00 0 0 0
478 2 9.8440000000000012e+00 0.0000000000000000e+00 9.3387471089120737e+00 0 0 0
479 2 1.1074500000000002e+01 7.1042950623783330e-01 9.3387471089120737e+00 0 0 0
499 2 1.1074500000000002e+01 2.1312885187135002e+00 9.3387471089120737e+00 0 0 0
193 2 8.6134999999999984e+00 3.5521475311891657e+00 6.3573583847754875e+00 0 0 0
238 2 1.1074500000000002e+01 3.5521475311891644e+00 6.3573583847754875e+00 0 0 0
102 2 0.0000000000000000e+00 5.6834360499026637e+00 6.3573583847754875e+00 0 0 0
104 2 0.0000000000000000e+00 4.2625770374269996e+00 6.3573583847754875e+00 0 0 0
121 2 1.2305000000000001e+00 6.3938655561404980e+00 6.3573583847754875e+00 0 0 0
123 2 2.4610000000000003e+00 5.6834360499026637e+00 6.3573583847754875e+00 0 0 0
125 2 2.4610000000000003e+00 4.2625770374269996e+00 6.3573583847754875e+00 0 0 0
150 2 3.6914999999999996e+00 6.3938655561404980e+00 6.3573583847754875e+00 0 0 0
429 2 0.0000000000000000e+00 4.2625770374269996e+00 9.3387471089120737e+00 0 0 0
430 2 1.2305000000000001e+00 4.9730065436648339e+00 9.3387471089120737e+00 0 0 0
438 2 1.2305000000000001e+00 6.3938655561404980e+00 9.3387471089120737e+00 0 0 0
440 2 2.4610000000000003e+00 4.2625770374269996e+00 9.3387471089120737e+00 0 0 0
441 2 3.6914999999999996e+00 4.9730065436648339e+00 9.3387471089120737e+00 0 0 0
453 2 3.6914999999999996e+00 6.3938655561404980e+00 9.3387471089120737e+00 0 0 0
119 2 1.2305000000000001e+00 7.8147245686161639e+00 6.3573583847754875e+00 0 0 0
148 2 3.6914999999999996e+00 7.8147245686161639e+00 6.3573583847754875e+00 0 0 0
428 2 0.0000000000000000e+00 7.1042950623783341e+00 9.3387471089120737e+00 0 0 0
439 2 2.4610000000000003e+00 7.1042950623783341e+00 9.3387471089120737e+00 0 0 0
152 2 4.9220000000000006e+00 5.6834360499026637e+00 6.3573583847754875e+00 0 0 0
154 2 4.9220000000000006e+00 4.2625770374269978e+00 6.3573583847754875e+00 0 0 0
187 2 6.1524999999999999e+00 6.3938655561404980e+00 6.3573583847754875e+00 0 0 0
189 2 7.3829999999999991e+00 5.6834360499026637e+00 6.3573583847754875e+00 0 0 0
191 2 7.3829999999999991e+00 4.2625770374269996e+00 6.3573583847754875e+00 0 0 0
455 2 4.9220000000000006e+00 4.2625770374269978e+00 9.3387471089120737e+00 0 0 0
456 2 6.1524999999999999e+00 4.9730065436648339e+00 9.3387471089120737e+00 0 0 0
472 2 6.1524999999999999e+00 6.3938655561404980e+00 9.3387471089120737e+00 0 0 0
474 2 7.3829999999999991e+00 4.2625770374269996e+00 9.3387471089120737e+00 0 0 0
185 2 6.1524999999999999e+00 7.8147245686161639e+00 6.3573583847754875e+00 0 0 0
454 2 4.9220000000000006e+00 7.1042950623783341e+00 9.3387471089120737e+00 0 0 0
473 2 7.3830000000000009e+00 7.1042950623783341e+00 9.3387471089120737e+00 0 0 0
232 2 8.6135000000000002e+00 6.3938655561404980e+00 6.3573583847754875e+00 0 0 0
234 2 9.8440000000000012e+00 5.6834360499026637e+00 6.3573583847754875e+00 0 0 0
236 2 9.8440000000000012e+00 4.2625770374270004e+00 6.3573583847754875e+00 0 0 0
279 2 1.1074500000000002e+01 6.3938655561404980e+00 6.3573583847754875e+00 0 0 0
475 2 8.6135000000000002e+00 4.9730065436648339e+00 9.3387471089120737e+00 0 0 0
495 2 8.6135000000000002e+00 6.3938655561404980e+00 9.3387471089120737e+00 0 0 0
497 2 9.8440000000000012e+00 4.2625770374270004e+00 9.3387471089120737e+00 0 0 0
498 2 1.1074500000000002e+01 4.9730065436648339e+00 9.3387471089120737e+00 0 0 0
519 2 1.1074500000000002e+01 6.3938655561404980e+00 9.3387471089120737e+00 0 0 0
230 2 8.6135000000000002e+00 7.8147245686161639e+00 6.3573583847754875e+00 0 0 0
277 2 1.1074500000000002e+01 7.8147245686161639e+00 6.3573583847754875e+00 0 0 0
496 2 9.8440000000000012e+00 7.1042950623783341e+00 9.3387471089120737e+00 0 0 0
115 2 0.0000000000000000e+00 9.9460130873296642e+00 6.3573583847754875e+00 0 0 0
117 2 0.0000000000000000e+00 8.5251540748539991e+00 6.3573583847754875e+00 0 0 0
144 2 2.4610000000000003e+00 9.9460130873296642e+00 6.3573583847754875e+00 0 0 0
146 2 2.4610000000000003e+00 8.5251540748539991e+00 6.3573583847754875e+00 0 0 0
436 2 0.0000000000000000e+00 8.5251540748539991e+00 9.3387471089120737e+00 0 0 0
437 2 1.2305000000000001e+00 9.2355835810918343e+00 9.3387471089120737e+00 0 0 0
451 2 2.4610000000000003e+00 8.5251540748539991e+00 9.3387471089120737e+00 0 0 0
452 2 3.6915000000000004e+00 9.2355835810918343e+00 9.3387471089120737e+00 0 0 0
140 2 1.2305000000000001e+00 1.2077301606043163e+01 6.3573583847754875e+00 0 0 0
142 2 1.2305000000000001e+00 1.0656442593567498e+01 6.3573583847754875e+00 0 0 0
177 2 3.6914999999999996e+00 1.2077301606043163e+01 6.3573583847754875e+00 0 0 0
179 2 3.6914999999999996e+00 1.0656442593567499e+01 6.3573583847754875e+00 0 0 0
435 2 0.0000000000000000e+00 1.1366872099805333e+01 9.3387471089120737e+00 0 0 0
449 2 1.2305000000000001e+00 1.0656442593567498e+01 9.3387471089120737e+00 0 0 0
450 2 2.4610000000000003e+00 1.1366872099805333e+01 9.3387471089120737e+00 0 0 0
468 2 3.6914999999999996e+00 1.0656442593567499e+01 9.3387471089120737e+00 0 0 0
181 2 4.9220000000000006e+00 9.9460130873296642e+00 6.3573583847754875e+00 0 0 0
183 2 4.9220000000000006e+00 8.5251540748539991e+00 6.3573583847754875e+00 0 0 0
226 2 7.3830000000000009e+00 9.9460130873296642e+00 6.3573583847754875e+00 0 0 0
228 2 7.3830000000000009e+00 8.5251540748539991e+00 6.3573583847754875e+00 0 0 0
470 2 4.9220000000000006e+00 8.5251540748539991e+00 9.3387471089120737e+00 0 0 0
471 2 6.1524999999999999e+00 9.2355835810918343e+00 9.3387471089120737e+00 0 0 0
493 2 7.3830000000000009e+00 8.5251540748539991e+00 9.3387471089120737e+00 0 0 0
222 2 6.1524999999999999e+00 1.2077301606043163e+01 6.3573583847754875e+00 0 0 0
224 2 6.1524999999999999e+00 1.0656442593567499e+01 6.3573583847754875e+00 0 0 0
469 2 4.9220000000000006e+00 1.1366872099805333e+01 9.3387471089120737e+00 0 0 0
491 2 6.1524999999999999e+00 1.0656442593567499e+01 9.3387471089120737e+00 0 0 0
492 2 7.3829999999999991e+00 1.1366872099805333e+01 9.3387471089120737e+00 0 0 0
273 2 9.8440000000000012e+00 9.9460130873296642e+00 6.3573583847754875e+00 0 0 0
275 2 9.8440000000000012e+00 8.5251540748539956e+00 6.3573583847754875e+00 0 0 0
494 2 8.6134999999999984e+00 9.2355835810918343e+00 9.3387471089120737e+00 0 0 0
517 2 9.8440000000000012e+00 8.5251540748539956e+00 9.3387471089120737e+00 0 0 0
518 2 1.1074500000000002e+01 9.2355835810918343e+00 9.3387471089120737e+00 0 0 0
269 2 8.6135000000000002e+00 1.2077301606043163e+01 6.3573583847754875e+00 0 0 0
271 2 8.6134999999999984e+00 1.0656442593567498e+01 6.3573583847754875e+00 0 0 0
316 2 1.1074500000000002e+01 1.2077301606043163e+01 6.3573583847754875e+00 0 0 0
318 2 1.1074500000000002e+01 1.0656442593567498e+01 6.3573583847754875e+00 0 0 0
515 2 8.6134999999999984e+00 1.0656442593567498e+01 9.3387471089120737e+00 0 0 0
516 2 9.8440000000000012e+00 1.1366872099805333e+01 9.3387471089120737e+00 0 0 0
539 2 1.1074500000000002e+01 1.0656442593567498e+01 9.3387471089120737e+00 0 0 0
540 2 1.2304999999999998e+01 1.1366872099805333e+01 9.3387471089120737e+00 0 0 0
4469 1 2.6067374063563622e+00 3.6117470440836890e+00 1.1913738171974360e+01 0 0 -1
4511 1 7.0219362338103588e+00 2.0009890142690296e+00 1.2610497207489292e+01 0 0 0
2934 1 1.2059630386688982e+00 7.5643981212779643e+00 1.3392136839240365e+01 0 0 -1
3108 1 4.5239166939782622e+00 6.9677991169240325e+00 1.1953405951197018e+01 1 0 1
1570 1 5.1443979068582131e+00 3.9931914310039147e+00 1.1860486452929832e+01 0 0 0
3115 1 9.2341943954888084e+00 6.4893411397971912e+00 1.2453052130773646e+01 0 0 0
1391 1 9.4552953805439799e+00 3.6068657530925843e+00 1.1728486630021148e+01 -1 0 1
4378 1 1.1226614792332496e+01 8.2121463644297155e+00 1.1610680206889414e+01 -1 0 -1
4337 1 5.5703945545695399e+00 1.0797210324907486e+01 1.1844654863335755e+01 1 0 0
2258 1 4.6817288540197337e+00 1.1410101425976885e+01 1.4484110993175019e+01 1 0 0
42 1 6.9946260029183422e+00 8.0218897699424598e+00 1.2094184671783092e+01 1 0 0
2988 1 8.7627833707497675e+00 1.0514602755930094e+01 1.2419935177000186e+01 0 0 -1
2166 1 1.1474402357276952e+01 7.2977852581698350e+00 1.6120457653680511e+01 0 0 0
2232 1 1.0357812101990784e+00 1.3754271758547991e+00 1.1771170673085958e+01 1 1 -1
3 1 6.9491303750180746e+00 2.1324702831076854e+00 1.5455192207954235e+01 0 0 0
2978 1 2.7038001153029452e+00 3.2579056609511292e-01 1.4954809325932477e+01 0 0 0
1341 1 9.7892243101954204e+00 1.1490643632724888e+00 1.6374348657828584e+01 1 1 0
1492 1 6.1270126650471268e-01 7.1651857219297730e+00 1.6141533846195419e+01 1 1 0
706 1 2.0479562785930217e+00 3.0726772201836474e+00 1.4644041971691328e+01 1 0 0
630 1 4.6252942521255118e+00 4.4519889945814413e+00 1.4751877036236243e+01 1 0 0
4386 1 4.1265254205503368e+00 7.2617989897229664e+00 1.4623839320961984e+01 1 0 1
862 1 6.9832627977347421e+00 7.6561639633612808e+00 1.5066718847728692e+01 0 0 0
700 1 1.2225828111805997e+01 1.1474386544630320e+01 1.5278026785191752e+01 0 0 -1
2962 1 9.6494015768237258e+00 5.4370410862880023e+00 1.4960748610055596e+01 1 0 -1
4328 1 1.0400330764093997e+01 1.0045494148313850e+01 1.6894810911350866e+01 0 2 0
4321 1 2.7103476019433579e+00 9.7631797795874320e+00 1.5786531925448340e+01 1 0 0
2972 1 8.4234215984247616e+00 1.0220310652769403e+01 1.5097145284594738e+01 0 0 -1
4472 1 7.2330924822576721e+00 4.9397555643696096e+00 1.6522917097231755e+01 1 0 -1
1404 1 5.9603617071319559e-01 5.4170042881064377e+00 1.1810192589778756e+01 1 1 -1
2169 1 1.1303606701077500e+01 3.1927759278213173e+00 1.4762686061794239e+01 0 0 -1
3760 1 1.1852896170431469e+01 2.7970190989906376e+00 1.2214937937735831e+01 -1 1 -1
877 1 3.1455041118058764e+00 9.5004689571896019e+00 1.2080545763435763e+01 0 1 1
1624 1 1.1530257112357832e+01 1.0842435825167138e+01 1.2661356170778449e+01 0 1 0
4360 1 2.1933850637068462e+00 1.2072527029420181e+01 1.2084401218130612e+01 1 1 0
57 1 4.1030805815931304e+00 2.4141968968546070e+00 1.6898024580101293e+01 -1 0 0
873 1 6.8883817236268490e+00 9.3907358689896530e+00 2.2314777808688795e+01 0 1 1
21 1 1.0707678855002799e+01 1.0046422334488595e+01 2.3162333526483557e+01 1 0 0
2131 1 2.7487089752639351e+00 4.6345945695743662e+00 2.3827611810069300e+01 1 1 0
3783 1 5.7624614309185542e+00 2.4340655334517298e+00 1.9551800458690295e+01 1 0 0
588 1 7.6678707630082803e+00 9.8712939492530900e+00 1.9568487573631771e+01 1 0 0
2153 1 8.1944649672654926e+00 4.2108026078395424e+00 1.9421346588405903e+01 1 0 0
1489 1 1.1216263619065202e+01 3.3886219242726088e+00 1.8212695408905404e+01 0 1 -1
4508 1 8.6030880421197455e+00 8.3559512806093217e+00 2.4138358008896134e+01 0 0 0
1586 1 1.7186568538646934e+00 8.7043650899138356e+00 2.0091763973922333e+01 1 1 1
702 1 2.0848380373339119e+00 2.2791184061386072e+00 1.8882227331033015e+01 -1 1 1
8 1 8.8910030488951364e+00 5.4298278904149944e-01 2.1897642739362070e+01 2 0 0
3582 1 9.9500224546373737e+00 7.9117840133234543e+00 1.9061762458387243e+01 0 0 0
3076 1 5.9593224761059949e+00 9.5902983133745376e+00 1.7480782360588265e+01 0 -1 -1
3870 1 2.7325090145396356e+00 6.9733005051700863e+00 1.7901998064881646e+01 0 0 0
3654 1 4.3252246391551239e+00 1.1742707472708544e+01 2.1060640006905523e+01 1 0 0
3042 1 5.4631996554466404e+00 6.9784636970050515e+00 1.8177702576780469e+01 2 1 0
1536 1 3.3732744375878929e+00 1.0948315743054430e+01 1.8525005077726803e+01 -1 0 0
2344 1 1.0370543913367927e+01 6.7958760774113014e-01 1.9283148515348685e+01 1 1 0
2130 1 9.1871092788814970e+00 1.2007213728432552e+01 1.9285234227915353e+01 0 1 0
2842 1 1.5151921339840859e+00 2.1388029711966872e+00 2.3937690997182827e+01 1 -1 -1
592 1 2.9856800236308861e-01 5.1705366723433799e-01 2.1699010145999779e+01 1 0 1
34 1 1.0028055017669661e+01 3.3133881048790963e+00 2.2031250492350033e+01 0 0 0
4365 1 3.4034453554201449e+00 1.5970763800444725e+00 2.1309839233690340e+01 1 1 1
590 1 1.1174497045255160e+01 1.0214171086464489e+01 2.0297499281757808e+01 -1 0 0
2977 1 2.9295180115220276e+00 8.8037714023412974e+00 2.4433149197000596e+01 1 -1 -1
1432 1 7.9094417390795424e-01 1.1685773618664360e+01 2.0259679298398240e+01 0 0 0
3875 1 1.7040444273441329e+00 5.0421177796907388e+00 1.9603738015213395e+01 1 0 -1
4415 1 6.9850164551628791e-01 6.9237677311941903e+00 2.4167229950954315e+01 1 0 0
2991 1 3.7610191272771738e+00 4.3823963521908516e+00 2.1360312665471902e+01 1 0 -1
2965 1 5.2118512785753373e+00 6.5948630627125038e+00 2.0976186823795416e+01 0 0 0
1595 1 6.5897211033523275e+00 1.8263541041697471e+00 2.2531208356927777e+01 1 0 0
3000 1 8.2070755491666212e+00 6.5369035720999529e+00 2.0632376046290517e+01 0 0 0
2890 1 9.0818119324811715e+00 5.8681357590658578e+00 2.3028665198914666e+01 0 0 0
1515 1 4.1716085171103359e+00 9.0505372621434965e+00 2.1966915038738833e+01 1 0 -1
2315 1 1.1951504483638891e+01 6.2727446044327415e+00 2.3651468925193512e+01 0 1 1
1556 1 1.1003569441282641e+01 9.9544918573119556e+00 3.0658367467673934e+01 2 0 -1
4448 1 2.4561471695696500e+00 1.3103494412898768e+00 2.6578974336037184e+01 1 0 0
4316 1 8.7417847031096869e+00 3.9450338277375483e+00 2.6943733773313923e+01 0 0 0
3731 1 6.8448476436460703e-01 1.8864819856420145e+00 2.8445731355261238e+01 0 0 -1
15 1 8.1579399402206274e+00 1.0372334013060245e+01 3.0963797417276091e+01 1 0 0
612 1 1.1302496847659160e+01 3.1454995101841319e+00 2.8519544252209997e+01 -1 0 0
4 1 9.5644539519307237e-01 7.2136631470822064e+00 2.7578283216197725e+01 0 0 0
2933 1 7.0398543725702201e+00 1.1417675610595936e+01 2.4926092631064101e+01 1 0 -1
4394 1 4.6469050337383635e+00 1.1791470793223780e+01 3.1428936525794171e+01 0 0 0
3079 1 3.1233559786723104e+00 1.1326102865410151e+01 2.5477579544363550e+01 1 0 0
4391 1 4.6320102941404135e+00 4.8981852470486835e+00 2.5559723050531147e+01 0 1 0
1488 1 1.1651105597150739e+01 6.4492165593042321e+00 2.8256653635571617e+01 0 0 0
2139 1 1.0749330339682954e+01 3.2714750381446263e+00 2.5030382208398052e+01 0 0 0
631 1 4.6198380560206698e-01 4.5099427594791024e+00 3.1508281705706381e+01 0 -1 0
2293 1 4.3414947524415322e+00 9.4436283548531836e+00 2.8452631604120064e+01 1 -1 0
3069 1 7.1055679660086888e+00 1.0476654491405982e+01 2.8333726090021294e+01 1 0 0
2897 1 1.2276121643185085e+01 5.3651119235101659e+00 3.0949081150115852e+01 0 0 0
3851 1 1.1451033933712935e+01 1.0152629335621885e+01 2.8002601886120985e+01 0 0 0
1601 1 9.1154639494340675e+00 8.8576479193500539e+00 2.6894003257991841e+01 -1 0 0
2272 1 2.5092590374153847e+00 1.0025509127537362e+01 3.1078512221221104e+01 1 1 0
4341 1 1.6247853527450420e+00 1.8828125226703638e+00 3.0889428298549326e+01 0 1 0
600 1 4.4565433178307954e+00 2.9487265658213722e+00 2.7747786186583035e+01 1 1 1
677 1 1.1788890360953010e+01 5.6861664568486470e-01 2.5341614567961336e+01 1 0 -1
1411 1 6.6813438788616555e+00 3.4150175623971961e+00 3.1189048753773754e+01 1 1 0
3770 1 7.0318502194246024e+00 2.1602620706459552e+00 2.8249365289145295e+01 1 0 0
4458 1 1.1250476180528896e+01 2.1510315332921475e+00 3.1305806449313394e+01 0 1 -1
26 1 3.8606684357072498e+00 7.2948764939930850e+00 2.6701560052342188e+01 1 0 0
2231 1 1.2312489282067340e+00 7.1912429259607968e+00 3.0875228628778238e+01 0 0 0
2980 1 3.8386424868541891e+00 6.6500680608727780e+00 3.0075910412602575e+01 1 0 0
626 1 3.6637833551281882e+00 3.9398641925171987e+00 3.0572753642869657e+01 0 0 0
2248 1 6.1561284376023968e+00 6.4144594043331402e+00 3.1346205118803347e+01 1 2 -1
1361 1 8.9383748433093331e+00 6.5105751994523215e+00 2.8159955201638446e+01 -1 0 -1
697 1 9.3844723152549143e+00 4.5008590174408978e+00 3.0941707638489994e+01 -1 0 0
1598 1 8.6636633997216919e+00 7.2767960121383837e+00 3.1019903085379511e+01 0 0 0
847 1 2.2253446569851114e+00 1.1186947197426601e+01 2.8065738278434658e+01 1 0 0
1442 1 1.0174806808803867e+01 3.2486442525948445e-01 2.7996553752011593e+01 1 0 -1
2364 1 5.2048121891766375e+00 5.0486666093770582e-01 2.5290890823554122e+01 0 1 0
3737 1 1.2206724485819503e+01 1.2237074310673355e+01 3.1129974839710528e+01 0 0 -1
1424 1 7.2813218158985951e+00 4.4177042332503715e+00 2.4642816447607409e+01 1 0 0
137 2 0.0000000000000000e+00 1.2787731112280996e+01 3.3759696606391847e+00 0 0 0
139 2 1.2305000000000001e+00 1.3498160618518829e+01 3.3759696606391847e+00 0 0 0
174 2 2.4610000000000003e+00 1.2787731112280996e+01 3.3759696606391847e+00 0 0 0
176 2 3.6915000000000004e+00 1.3498160618518829e+01 3.3759696606391847e+00 0 0 0
135 2 0.0000000000000000e+00 1.5629449137232333e+01 3.3759696606391847e+00 0 0 0
170 2 1.2305000000000001e+00 1.4919019630994494e+01 3.3759696606391847e+00 0 0 0
172 2 2.4610000000000003e+00 1.5629449137232328e+01 3.3759696606391847e+00 0 0 0
215 2 3.6915000000000004e+00 1.4919019630994494e+01 3.3759696606391847e+00 0 0 0
219 2 4.9220000000000006e+00 1.2787731112280996e+01 3.3759696606391847e+00 0 0 0
221 2 6.1524999999999990e+00 1.3498160618518829e+01 3.3759696606391847e+00 0 0 0
266 2 7.3829999999999991e+00 1.2787731112280996e+01 3.3759696606391847e+00 0 0 0
217 2 4.9220000000000006e+00 1.5629449137232333e+01 3.3759696606391847e+00 0 0 0
262 2 6.1524999999999990e+00 1.4919019630994494e+01 3.3759696606391847e+00 0 0 0
264 2 7.3829999999999991e+00 1.5629449137232333e+01 3.3759696606391847e+00 0 0 0
268 2 8.6135000000000002e+00 1.3498160618518835e+01 3.3759696606391847e+00 0 0 0
313 2 9.8440000000000012e+00 1.2787731112280996e+01 3.3759696606391847e+00 0 0 0
315 2 1.1074500000000002e+01 1.3498160618518829e+01 3.3759696606391847e+00 0 0 0
309 2 8.6135000000000002e+00 1.4919019630994494e+01 3.3759696606391847e+00 0 0 0
311 2 9.8440000000000012e+00 1.5629449137232328e+01 3.3759696606391847e+00 0 0 0
351 2 1.1074500000000002e+01 1.4919019630994494e+01 3.3759696606391847e+00 0 0 0
166 2 0.0000000000000000e+00 1.7050308149707998e+01 3.3759696606391847e+00 0 0 0
211 2 2.4610000000000003e+00 1.7050308149707998e+01 3.3759696606391847e+00 0 0 0
164 2 0.0000000000000000e+00 1.9892026174659328e+01 3.3759696606391847e+00 0 0 0
168 2 1.2305000000000001e+00 1.7760737655945832e+01 3.3759696606391847e+00 0 0 0
207 2 1.2305000000000001e+00 1.9181596668421495e+01 3.3759696606391847e+00 0 0 0
209 2 2.4610000000000003e+00 1.9892026174659328e+01 3.3759696606391847e+00 0 0 0
213 2 3.6914999999999996e+00 1.7760737655945832e+01 3.3759696606391847e+00 0 0 0
254 2 3.6914999999999996e+00 1.9181596668421495e+01 3.3759696606391847e+00 0 0 0
258 2 4.9220000000000006e+00 1.7050308149707998e+01 3.3759696606391847e+00 0 0 0
305 2 7.3830000000000009e+00 1.7050308149707998e+01 3.3759696606391847e+00 0 0 0
256 2 4.9220000000000006e+00 1.9892026174659328e+01 3.3759696606391847e+00 0 0 0
260 2 6.1524999999999999e+00 1.7760737655945832e+01 3.3759696606391847e+00 0 0 0
301 2 6.1524999999999999e+00 1.9181596668421495e+01 3.3759696606391847e+00 0 0 0
303 2 7.3829999999999991e+00 1.9892026174659328e+01 3.3759696606391847e+00 0 0 0
347 2 9.8440000000000012e+00 1.7050308149707998e+01 3.3759696606391847e+00 0 0 0
381 2 1.2304999999999998e+01 1.7050308149707998e+01 3.3759696606391847e+00 0 0 0
307 2 8.6134999999999984e+00 1.7760737655945832e+01 3.3759696606391847e+00 0 0 0
343 2 8.6135000000000002e+00 1.9181596668421495e+01 3.3759696606391847e+00 0 0 0
345 2 9.8440000000000012e+00 1.9892026174659335e+01 3.3759696606391847e+00 0 0 0
349 2 1.1074500000000002e+01 1.7760737655945835e+01 3.3759696606391847e+00 0 0 0
377 2 1.1074500000000002e+01 1.9181596668421495e+01 3.3759696606391847e+00 0 0 0
201 2 0.0000000000000000e+00 2.4154603212086325e+01 3.3759696606391847e+00 0 0 0
203 2 0.0000000000000000e+00 2.1312885187134999e+01 3.3759696606391847e+00 0 0 0
205 2 1.2304999999999993e+00 2.2023314693372832e+01 3.3759696606391847e+00 0 0 0
246 2 1.2304999999999993e+00 2.3444173705848499e+01 3.3759696606391847e+00 0 0 0
248 2 2.4610000000000003e+00 2.4154603212086325e+01 3.3759696606391847e+00 0 0 0
250 2 2.4610000000000003e+00 2.1312885187134995e+01 3.3759696606391847e+00 0 0 0
252 2 3.6914999999999996e+00 2.2023314693372832e+01 3.3759696606391847e+00 0 0 0
293 2 3.6915000000000004e+00 2.3444173705848499e+01 3.3759696606391847e+00 0 0 0
295 2 4.9220000000000006e+00 2.4154603212086325e+01 3.3759696606391847e+00 0 0 0
297 2 4.9220000000000006e+00 2.1312885187134995e+01 3.3759696606391847e+00 0 0 0
299 2 6.1524999999999990e+00 2.2023314693372832e+01 3.3759696606391847e+00 0 0 0
335 2 6.1524999999999999e+00 2.3444173705848499e+01 3.3759696606391847e+00 0 0 0
337 2 7.3830000000000009e+00 2.4154603212086336e+01 3.3759696606391847e+00 0 0 0
339 2 7.3829999999999991e+00 2.1312885187134999e+01 3.3759696606391847e+00 0 0 0
341 2 8.6135000000000002e+00 2.2023314693372832e+01 3.3759696606391847e+00 0 0 0
369 2 8.6134999999999984e+00 2.3444173705848499e+01 3.3759696606391847e+00 0 0 0
371 2 9.8440000000000012e+00 2.4154603212086336e+01 3.3759696606391847e+00 0 0 0
373 2 9.8440000000000012e+00 2.1312885187134999e+01 3.3759696606391847e+00 0 0 0
375 2 1.1074500000000002e+01 2.2023314693372832e+01 3.3759696606391847e+00 0 0 0
395 2 1.1074500000000002e+01 2.3444173705848499e+01 3.3759696606391847e+00 0 0 0
138 2 0.0000000000000000e+00 1.2787731112280996e+01 6.3573583847754875e+00 0 0 0
175 2 2.4610000000000003e+00 1.2787731112280996e+01 6.3573583847754875e+00 0 0 0
447 2 0.0000000000000000e+00 1.2787731112280996e+01 9.3387471089120737e+00 0 0 0
448 2 1.2305000000000001e+00 1.3498160618518829e+01 9.3387471089120737e+00 0 0 0
466 2 2.4610000000000003e+00 1.2787731112280996e+01 9.3387471089120737e+00 0 0 0
467 2 3.6915000000000004e+00 1.3498160618518829e+01 9.3387471089120737e+00 0 0 0
136 2 0.0000000000000000e+00 1.4208590124756663e+01 6.3573583847754875e+00 0 0 0
171 2 1.2305000000000001e+00 1.4919019630994494e+01 6.3573583847754875e+00 0 0 0
173 2 2.4610000000000003e+00 1.4208590124756663e+01 6.3573583847754875e+00 0 0 0
216 2 3.6915000000000004e+00 1.4919019630994494e+01 6.3573583847754875e+00 0 0 0
446 2 0.0000000000000000e+00 1.5629449137232333e+01 9.3387471089120737e+00 0 0 0
464 2 1.2305000000000001e+00 1.4919019630994494e+01 9.3387471089120737e+00 0 0 0
465 2 2.4610000000000003e+00 1.5629449137232328e+01 9.3387471089120737e+00 0 0 0