
# Create simulation box and atoms

read_data data.ML_graphite_m500atm_240K
  orthogonal box = (0 0 1.70882) to (49.22 49.0196 32.2312)
  4 by 4 by 4 MPI processor grid
  reading atoms ...
  4537 atoms
  reading velocities ...
  4537 velocities
group water type 1
1777 atoms in group water
group graphite type 2
2760 atoms in group graphite

# Define potential

pair_style sw
pair_coeff * * MLC_e.sw mW C


# Fix graphite atoms in place

fix 5 graphite setforce 0.0 0.0 0.0
velocity graphite set 0.0 0.0 0.0


# Equilibration of molecular water

# Add velocity/set timestep

velocity	    water create ${TEMP} ${SEED} rot yes dist gaussian
velocity	    water create 240 ${SEED} rot yes dist gaussian
velocity	    water create 240 25399 rot yes dist gaussian
timestep	    5.0

# Define output

compute			1 water msd
compute			3 water temp
thermo	    	50
thermo_style	custom step temp press vol etotal ke pe c_1[4] c_3

# Neighbor lists

neigh_modify    delay 0 every 1 check yes

# Set fixes

fix             1 water momentum 10 linear 1 1 1 rescale
fix             2 water nve
fix             3 water temp/csvr ${TEMP} ${TEMP} 500.0 ${SEED}
fix             3 water temp/csvr 240 ${TEMP} 500.0 ${SEED}
fix             3 water temp/csvr 240 240 500.0 ${SEED}
fix             3 water temp/csvr 240 240 500.0 25399
fix             4 water press/berendsen z ${PRES} ${PRES} 1000.0 modulus 20000
fix             4 water press/berendsen z -500 ${PRES} 1000.0 modulus 20000
fix             4 water press/berendsen z -500 -500 1000.0 modulus 20000

# Run 0.5 ns equilibration

dump		    1 all atom 2000 ${DIR}/eq.${NAME}-${TEMP}.dump
dump		    1 all atom 2000 run_6/eq.${NAME}-${TEMP}.dump
dump		    1 all atom 2000 run_6/eq.het_freeze_6-${TEMP}.dump
dump		    1 all atom 2000 run_6/eq.het_freeze_6-240.dump

reset_timestep  0

run	            100000
Neighbor list info ...
  update every 1 steps, delay 0 steps, check yes
  max neighbors/atom: 2000, page size: 100000
  master list distance cutoff = 6.67472
  ghost atom cutoff = 6.67472
  binsize = 3.33736, bins = 15 15 10
  1 neighbor lists, perpetual/occasional/extra = 1 0 0
  (1) pair sw, perpetual
      attributes: full, newton on
      pair build: full/bin/atomonly
      stencil: full/bin/3d
      bin: standard
Per MPI rank memory allocation (min/avg/max) = 4.071 | 4.206 | 4.511 Mbytes
Step Temp Press Volume TotEng KinEng PotEng c_1[4] c_3 
       0    93.968254   -654.73592     73642.74   -17158.673    1270.5405   -18429.214            0          240 
      50    93.749017   -802.83078     73639.33   -17155.948    1267.5762   -18423.524   0.49631318    239.44006 
     100    94.329659   -979.79971     73604.77   -17146.958     1275.427   -18422.385   0.80674101    240.92305 
     150    95.291294   -1140.3315    73564.759   -17156.586    1288.4292   -18445.015   0.96979319    243.37912 
     200    96.675789   -800.68831    73482.441   -17184.952    1307.1489   -18492.101    1.1528928    246.91519 
     250    91.852691    -796.5107    73483.552   -17221.911     1241.936   -18463.847    1.3960811    234.59674 
     300    94.883145   -610.62403    73458.696   -17210.895    1282.9107   -18493.806    1.5571527    242.33668 
     350    92.620076   -790.62638    73398.991   -17236.118    1252.3118    -18488.43    1.7257171    236.55668 
     400    89.847794   -494.78986     73361.11   -17252.165    1214.8279   -18466.993    1.9306053    229.47612 
     450    90.381776   -682.27523    73381.193   -17257.972    1222.0479    -18480.02    2.1432237    230.83994 
     500    93.309576   -1109.4114    73396.232   -17230.626    1261.6345    -18492.26    2.3068531     238.3177 
     550    92.123401   -750.89173     73423.22   -17238.433    1245.5963   -18484.029     2.399875    235.28814 
     600     94.35066   -939.39392     73458.63   -17239.415     1275.711   -18515.126    2.5819861    240.97668 
     650    94.007971   -823.27452    73458.823   -17228.007    1271.0775   -18499.084    2.7917563    240.10144 
     700    91.779539   -949.21324    73466.199    -17257.22     1240.947   -18498.167    2.9249895     234.4099 
     750    92.992571   -685.14887    73527.746   -17244.378    1257.3483   -18501.727    3.1266357    237.50805 
     800    94.989899   -1028.9176    73528.017   -17270.637    1284.3541   -18554.991    3.2582251    242.60934 
     850    94.854201   -956.65722    73545.605   -17286.544    1282.5193   -18569.063    3.4061645    242.26276 
     900    91.310243   -1122.0053    73533.161   -17313.137    1234.6016   -18547.739    3.5598155     233.2113 
     950    89.770115   -1259.4073    73416.671   -17291.565    1213.7776   -18505.343    3.7365106    229.27773 
    1000    93.503696   -653.75351    73404.345   -17273.737    1264.2592   -18537.996    3.9087124    238.81349 
    1050    96.879924   -773.47713    73414.128   -17201.129     1309.909   -18511.038    4.0475927    247.43656 
    1100    94.895837   -665.98746    73485.983   -17211.634    1283.0823   -18494.717    4.1808822     242.3691 
    1150    92.874455   -747.87294    73561.988   -17211.083    1255.7513   -18466.834    4.2960017    237.20638 
    1200    94.235357   -956.11083    73501.376   -17194.647     1274.152   -18468.799    4.4076042    240.68219 
    1250    93.744614   -503.78655    73575.182   -17185.916    1267.5166   -18453.433    4.6816318    239.42881 
    1300    92.989628   -304.29477    73619.364   -17210.114    1257.3085   -18467.423    4.8807541    237.50054 
    1350    95.037657   -666.31702    73694.261   -17160.104    1284.9998   -18445.103    5.1211205    242.73131 
    1400    96.156496   -700.30345    73688.222   -17197.703    1300.1276   -18497.831    5.3370654    245.58889 
    1450    93.546109   -1102.0975     73705.66   -17197.344    1264.8327   -18462.177    5.5525481    238.92182 
    1500    94.305735   -548.59113    73717.471    -17184.13    1275.1035   -18459.233    5.7703629    240.86194 
    1550     93.80002   -608.89962     73771.99   -17212.445    1268.2658   -18480.711    6.0110276    239.57032 
    1600    96.647015   -1007.3235    73739.625   -17218.341    1306.7599   -18525.101    6.0728574     246.8417 
    1650    93.773686   -566.00608    73755.016   -17207.591    1267.9097   -18475.501    6.2353309    239.50306 
    1700    95.654739   -777.55105    73770.433   -17222.675    1293.3434   -18516.018    6.4859609    244.30737 
    1750    92.806949   -1038.4832    73753.223   -17259.088    1254.8385   -18513.927    6.6881785    237.03396 
    1800    94.232735   -1296.3605    73722.303     -17253.2    1274.1165   -18527.317    6.9430038     240.6755 
    1850    93.402215   -1129.6822    73703.844   -17218.879    1262.8871   -18481.766    7.0843799    238.55431 
    1900    92.675623   -912.57657    73756.036   -17235.257    1253.0629   -18488.319    7.2776267    236.69855 
    1950    94.897445   -1029.1171    73710.154   -17229.018     1283.104   -18512.122     7.458332     242.3732 
    2000    90.092182   -912.26054    73634.912   -17254.933    1218.1323   -18473.065    7.5745145     230.1003 
    2050    92.682335   -826.23139    73630.399   -17232.406    1253.1536   -18485.559    7.7372974    236.71569 
    2100    95.202907   -1142.4337    73605.015   -17177.951    1287.2342   -18465.185    7.8517409    243.15337 
    2150    94.033302   -1099.2447    73518.333   -17174.207      1271.42   -18445.627    7.9865998    240.16614 
    2200    97.617461   -839.00419    73492.333   -17167.013    1319.8812   -18486.895    8.0461719    249.32027 
    2250    94.667566   -896.77545    73554.918   -17157.263    1279.9958   -18437.259    8.1232259    241.78608 
    2300    94.683789   -527.73511    73621.897   -17196.189    1280.2152   -18476.405    8.3027359    241.82752 
    2350    94.800788   -783.66154    73661.073    -17205.54    1281.7971   -18487.337    8.6425414    242.12634 
    2400    94.941479   -736.12467    73716.747   -17203.578    1283.6994   -18487.277    8.7458766    242.48567 
    2450    94.695119   -1039.8043    73751.595   -17236.811    1280.3684   -18517.179     8.888242    241.85645 
    2500    93.868938   -1050.4552    73791.603   -17232.197    1269.1976   -18501.395     9.050894    239.74634 
    2550    93.100848   -1091.4534    73816.021   -17255.982    1258.8123   -18514.795    9.0852256     237.7846 
    2600    92.500501   -646.20223    73797.003   -17264.504    1250.6951   -18515.199    9.0819553    236.25128 
    2650    92.817672   -801.72852    73877.385   -17228.772    1254.9835   -18483.755    9.2369412    237.06135 
    2700     91.02486   -949.60575    73846.618   -17218.682     1230.743   -18449.425    9.3811142    232.48241 
    2750    93.146929    -1102.991    73850.174   -17213.281    1259.4354   -18472.717    9.5007298    237.90229 
    2800    93.047183    -1194.101    73785.428    -17252.55    1258.0867   -18510.637    9.7451828    237.64753 
    2850    92.015401   -997.51568    73708.665   -17301.092     1244.136   -18545.228    9.9856455    235.01231 
    2900    90.673594   -1132.3123    73607.868   -17306.277    1225.9935   -18532.271    10.170583    231.58526 
    2950    93.011891   -854.42844    73608.352   -17263.754    1257.6095   -18521.363    10.298852     237.5574 
    3000    89.857329   -989.24792    73605.283   -17288.322    1214.9568   -18503.279    10.343002    229.50048 
    3050    92.606332    -964.4879    73597.446   -17281.437     1252.126   -18533.563    10.242787    236.52158 
    3100    91.566872    -1000.166    73611.383   -17276.901    1238.0715   -18514.973    10.394216    233.86674 
    3150    88.502179    -985.7106    73643.692    -17273.34    1196.6339   -18469.974    10.672043    226.03935 
    3200    91.380505   -643.58541    73654.219   -17272.506    1235.5516   -18508.058    10.791055    233.39075 
    3250    92.084889   -1170.3121    73664.939    -17257.09    1245.0756   -18502.165    10.916553    235.18978 
    3300    88.630323   -1136.5495    73668.956   -17263.433    1198.3666     -18461.8    10.944899    226.36664 
    3350    94.345373   -703.99787    73658.118   -17249.821    1275.6395   -18525.461    11.011918    240.96318 
    3400    94.369546   -1184.5984    73627.723   -17276.401    1275.9663   -18552.367    11.274391    241.02492 
    3450    93.236966   -832.09104    73645.641   -17305.292    1260.6528   -18565.945    11.434383    238.13225 
    3500    90.570401   -758.14918    73681.884   -17336.356    1224.5983   -18560.954     11.51872     231.3217 
    3550    93.123326   -899.42454    73732.752   -17298.485    1259.1162   -18557.601     11.77115    237.84201 
    3600    92.213435   -781.36996    73763.123   -17290.194    1246.8136   -18537.007    11.925745     235.5181 
    3650    93.856804   -983.65505    73779.575   -17252.841    1269.0336   -18521.874    12.072957    239.71535 
    3700    95.243778   -893.18109    73801.722   -17240.237    1287.7868   -18528.024     12.15574    243.25776 
    3750    93.952709   -745.47908     73805.65   -17268.583    1270.3303   -18538.913     12.19953     239.9603 
    3800    90.647263   -1108.0934    73813.876   -17269.878    1225.6375   -18495.516    12.466946    231.51801 
    3850    93.735788    -923.7979    73823.255   -17302.591    1267.3973   -18569.988    12.539949    239.40627 
    3900    91.388337   -818.17221    73820.616   -17304.912    1235.6575   -18540.569    12.633836    233.41075 
    3950     90.65287   -800.35101    73804.441   -17313.531    1225.7133   -18539.245     12.68846    231.53233 
    4000    91.777379   -846.98626    73790.927   -17291.161    1240.9178   -18532.079    12.995863    234.40439 
    4050    93.251396   -1155.3796    73748.278   -17223.359    1260.8479   -18484.207    13.293311    238.16911 
    4100    91.804795   -978.94664    73723.395   -17228.203    1241.2884   -18469.491      13.5327    234.47441 
    4150    93.870125   -1112.1872    73669.704   -17214.626    1269.2137    -18483.84     13.66656    239.74937 
    4200    94.873111   -1066.7377    73584.665   -17205.051     1282.775   -18487.826    13.827296    242.31105 
    4250    94.066419   -952.54705    73563.725   -17168.247    1271.8678   -18440.115    13.974295    240.25072 
    4300    92.755631   -1311.1395    73506.487   -17187.148    1254.1446   -18441.292    14.153164    236.90289 
    4350    95.979139   -1179.7411      73419.4   -17136.779    1297.7296   -18434.509    14.233688    245.13591 
    4400    96.945017   -909.33878    73334.661   -17159.367    1310.7892   -18470.156    14.383205    247.60281 
    4450    99.419817   -798.25526    73279.235   -17164.126    1344.2508   -18508.377    14.430389    253.92359 
    4500    94.155587   -1041.6776    73268.416   -17161.678    1273.0734   -18434.752     14.70515    240.47846 
    4550    96.080849   -867.27984    73283.389   -17189.635    1299.1048    -18488.74    14.898965    245.39568 
    4600    94.556688   -953.40431    73307.393   -17183.925    1278.4967   -18462.422    15.084224    241.50289 
    4650     94.61946   -531.53595    73345.705   -17182.735    1279.3454   -18462.081    15.023286    241.66321 
    4700    93.659517   -966.76773    73352.399    -17188.89    1266.3661   -18455.256    15.198266    239.21147 
    4750    92.921515    -563.4306    73436.442   -17182.132    1256.3876   -18438.519     15.52128    237.32657 
    4800    93.729126   -708.07503    73523.149   -17172.838    1267.3072   -18440.145    15.845395    239.38925 
    4850    94.733622   -800.37347    73584.101   -17156.101     1280.889    -18436.99    15.983753    241.95479 
    4900    93.674838   -431.63444    73662.326   -17208.605    1266.5732   -18475.179    16.201203     239.2506 
    4950    94.788565   -828.30338    73736.559    -17154.81    1281.6319   -18436.442    16.412066    242.09512 
    5000    96.231391   -787.78815    73833.928   -17143.256    1301.1402   -18444.396    16.580607    245.78017 
    5050    95.968961     -711.253    73855.707   -17134.369    1297.5919   -18431.961    16.728416    245.10991 
    5100    95.287386   -748.46191    73839.369   -17148.591    1288.3764   -18436.968    16.889357    243.36914 
    5150    97.298152   -1137.9548    73791.596   -17134.684    1315.5639   -18450.248    16.913808    248.50474 
    5200    95.384473   -825.77601    73780.029   -17148.561    1289.6891    -18438.25    17.137856     243.6171 
    5250    95.988386   -957.14283    73777.407   -17147.269    1297.8546   -18445.124    17.309703    245.15953 
    5300     95.74348   -1013.4322    73717.622   -17165.054    1294.5432   -18459.598    17.518369    244.53402 
    5350    94.164726   -860.27482    73725.132   -17175.941     1273.197   -18449.138    17.607351     240.5018 
    5400    95.290841   -826.65699    73719.621   -17205.384    1288.4231   -18493.807    17.986762    243.37796 
    5450     95.27897   -865.35495    73679.738   -17205.617    1288.2626    -18493.88    18.255274    243.34764 
    5500    94.094418   -863.53343    73659.982   -17163.936    1272.2463   -18436.182    18.492687    240.32223 
    5550    96.721972   -938.27897    73725.597   -17157.071    1307.7734   -18464.844    18.605518    247.03314 
    5600    94.746729   -829.28497    73777.426   -17136.981    1281.0662   -18418.048    18.674385    241.98827 
    5650     93.87515   -957.57474    73787.275   -17172.995    1269.2816   -18442.277    18.890465    239.76221 
    5700    94.075766   -748.51751    73825.224   -17165.903    1271.9941   -18437.897    19.095333    240.27459 
    5750       92.767   -911.28777      73787.5   -17186.704    1254.2984   -18441.002    19.315793    236.93193 
    5800    98.186123   -962.19719    73778.054   -17154.644    1327.5701   -18482.214    19.343699    250.77266 
    5850    97.147474   -879.42754    73738.763   -17164.504    1313.5266    -18478.03    19.482357     248.1199 
    5900    96.186491    -616.1169    73763.594   -17140.372    1300.5332   -18440.905    19.667769     245.6655 
    5950    96.484951   -646.76896    73815.655    -17173.94    1304.5686   -18478.509    20.000397    246.42778 
    6000    95.592827   -1155.7922    73781.378   -17127.063    1292.5063   -18419.569    20.166347    244.14925 
    6050    97.709498    -1031.988    73771.955   -17132.303    1321.1257   -18453.428    20.237608    249.55534 
    6100    93.921427   -992.78666    73746.563   -17138.917    1269.9073   -18408.825    20.564879     239.8804 
    6150    95.140927    -756.2313    73716.506   -17132.042    1286.3961   -18418.438    20.718777    242.99507 
    6200    95.477162   -1194.5421    73775.706   -17144.705    1290.9424   -18435.647    21.007474    243.85383 
    6250    95.838367   -728.08472    73793.053   -17119.267    1295.8262   -18415.093    21.261587    244.77637 
    6300    96.032748   -843.65395    73917.254   -17136.501    1298.4544   -18434.955    21.471904    245.27283 
    6350    96.444493   -885.28083    73993.476   -17149.617    1304.0216   -18453.638    21.779545    246.32445 
    6400    95.606613   -944.16705    74038.317   -17134.428    1292.6927   -18427.121    21.901848    244.18446 
    6450    96.611948   -591.16019    74079.071   -17146.432    1306.2857   -18452.718    22.193388    246.75214 
    6500     95.27486   -1184.1444    74123.953   -17151.214     1288.207   -18439.421    22.432096    243.33714 
    6550    95.440401   -655.73787     74073.12    -17131.34    1290.4453   -18421.786    22.665059    243.75994 
    6600    96.280022   -733.40394    74082.443   -17129.197    1301.7978   -18430.995    22.866691    245.90438 
    6650     92.90516   -1039.8819    74101.648   -17115.095    1256.1664   -18371.262    23.129367     237.2848 
    6700    97.353952   -932.22164    74134.043   -17132.359    1316.3183   -18448.678     23.03675    248.64726 
    6750    95.126582   -758.57458    74170.197   -17142.135    1286.2022   -18428.337    23.259192    242.95843 
    6800    93.789669   -1013.5392    74171.766   -17149.776    1268.1258   -18417.902    23.368529    239.54388 
    6850    93.886301   -1034.1968    74138.405   -17145.563    1269.4324   -18414.995    23.487317    239.79069 
    6900    97.261624    -1215.687    74060.497    -17125.82      1315.07    -18440.89    23.813721    248.41145 
    6950    93.874341   -1138.8639     73955.73   -17147.649    1269.2707   -18416.919    23.828283    239.76014 
    7000    93.690188   -1080.1356    73955.748   -17160.387    1266.7808   -18427.168    23.962488     239.2898 
    7050    97.127268   -261.16729    74051.528   -17138.979    1313.2534   -18452.232    24.034606    248.06829 
    7100    97.564452   -1016.0495    74046.569   -17121.319    1319.1645   -18440.483    24.235414    249.18488 
    7150    93.879404   -718.75275    74032.544   -17157.695    1269.3391   -18427.034    24.504433    239.77307 
    7200    94.397247   -644.92959    74073.128   -17173.785    1276.3409   -18450.126    24.735349    241.09567 
    7250    95.667356   -814.57341    74028.871    -17188.66     1293.514   -18482.174    24.955066     244.3396 
    7300    97.049562    -698.2425    74015.415   -17140.904    1312.2027   -18453.107    25.029696    247.86983 
    7350    98.388833   -1045.3243    73958.987   -17151.618    1330.3109   -18481.929    25.055943     251.2904 
    7400    97.067591   -643.06266    74016.451   -17142.624    1312.4465   -18455.071    24.950234    247.91587 
    7450    95.143876   -1003.2948    74040.645   -17107.627     1286.436   -18394.063    25.140918     243.0026 
    7500    94.586009   -977.47178    74022.993   -17138.747    1278.8931    -18417.64    25.628404    241.57778 
    7550    95.416093   -620.35889    74004.101   -17157.158    1290.1166   -18447.275    25.811757    243.69786 
    7600    96.072697   -1241.4182    73955.226   -17147.325    1298.9946    -18446.32    25.999011    245.37486 
    7650    94.940031   -1062.9406    73835.424   -17129.301    1283.6798   -18412.981    25.927948    242.48197 
    7700    96.369499   -923.73476    73733.829    -17110.07    1303.0076   -18413.078    26.098556    246.13291 
    7750    97.887601    -992.7549    73686.818   -17102.807    1323.5338    -18426.34    26.200094    250.01022 
    7800    94.825948   -751.29945    73745.971   -17094.923    1282.1373   -18377.061    26.457447     242.1906 
    7850    99.155462   -653.74174    73783.661   -17087.119    1340.6765   -18427.795    26.504429    253.24841 
    7900     97.01738   -1151.1422    73792.723   -17156.589    1311.7676   -18468.356    26.771071    247.78763 
    7950    93.933907   -1413.8639    73681.523   -17171.225    1270.0761   -18441.301    26.997102    239.91228 
    8000    92.606092   -556.88346    73619.892   -17187.082    1252.1227   -18439.204     27.11721    236.52097 
    8050    94.443322   -954.04529    73629.585   -17158.137    1276.9638   -18435.101    27.230615    241.21335 
    8100    92.707836   -1208.4451    73612.538   -17193.187    1253.4984   -18446.685    27.351145    236.78082 
    8150    91.859755   -1194.5272    73561.748   -17193.579    1242.0316    -18435.61    27.594215    234.61478 
    8200    94.675508   -1008.7905    73489.751   -17192.231    1280.1032   -18472.334    27.781386    241.80636 
    8250    94.058698   -987.02208    73462.644   -17216.344    1271.7634   -18488.107    27.957645      240.231 
    8300    92.877852   -766.82385    73428.341   -17199.569    1255.7972   -18455.367    28.185718    237.21506 
    8350      91.8623   -1232.3656     73432.53    -17183.03     1242.066   -18425.096    28.331317    234.62128 
    8400    95.063078   -1031.2733    73407.381   -17183.426    1285.3435    -18468.77    28.406918    242.79624 
    8450    95.554789   -974.01621    73418.294   -17205.325    1291.9919   -18497.317    28.505249     244.0521 
    8500      94.2039   -1004.9202    73464.141    -17191.43    1273.7266   -18465.157     28.58689    240.60185 
    8550    93.646745    -1105.371    73432.827   -17187.818    1266.1934   -18454.011    28.675713    239.17885 
    8600    92.654701   -1139.7127    73335.746   -17209.993      1252.78   -18462.773     28.77747    236.64511 
    8650    94.877628   -893.27342    73293.028   -17190.611    1282.8361   -18473.447    29.113287    242.32259 
    8700    94.524602   -722.12438    73338.148    -17209.54    1278.0628   -18487.602    29.272828    241.42094 
    8750    93.884744   -798.82608    73340.701   -17196.885    1269.4113   -18466.297    29.460554    239.78671 
    8800    92.056636   -862.63354    73354.192   -17189.065    1244.6936   -18433.758    29.700269    235.11763 
    8850    93.384292   -870.74367     73401.18   -17222.012    1262.6447   -18484.657    29.867973    238.50853 
    8900    93.068208   -518.17698     73405.36   -17217.209     1258.371    -18475.58    30.109214    237.70123 
    8950    94.137236   -662.72755    73483.143   -17195.882    1272.8253   -18468.707    30.095255    240.43159 
    9000     94.92769   -971.11215     73533.64   -17177.454     1283.513   -18460.967    30.475703    242.45045 
    9050    92.230416   -1200.4051    73569.777   -17202.228    1247.0432   -18449.272    30.789711    235.56147 
    9100    94.681833   -720.23717    73605.275   -17165.653    1280.1888   -18445.842    31.171245    241.82252 
    9150    93.055882   -817.82406     73594.06    -17197.65    1258.2043   -18455.854    31.212197    237.66975 
    9200    98.464488   -1092.7098    73597.824   -17188.473    1331.3339   -18519.807     31.19115    251.48363 
    9250    95.228026   -816.93625    73566.181   -17164.057    1287.5738   -18451.631    31.450212    243.21753 
    9300    95.111148   -1002.5082    73576.867   -17178.264    1285.9935   -18464.257    31.409599    242.91901 
    9350    94.202562    -1004.329    73589.441    -17208.54    1273.7085   -18482.249    31.857144    240.59844 
    9400    92.159115   -977.45441    73552.792   -17234.153    1246.0792   -18480.233    31.979518    235.37936 
    9450     91.47155    -901.9966    73579.525   -17224.449    1236.7827   -18461.232    32.183333    233.62328 
    9500    93.679319   -1187.1347    73508.612   -17210.727    1266.6338   -18477.361     32.31773    239.26204 
    9550    90.987839   -816.48694    73541.513   -17256.922    1230.2424   -18487.164    32.459563    232.38786 
    9600    91.315189   -824.73026    73540.491   -17283.477    1234.6685   -18518.146    32.625439    233.22393 
    9650    93.859783   -509.48396    73642.848   -17236.437    1269.0738    -18505.51    32.654722    239.72296 
    9700    96.794807   -629.85445    73629.599   -17190.368    1308.7582   -18499.126     32.79599    247.21917 
    9750    97.896355   -782.08055    73685.354   -17147.465    1323.6522   -18471.117    33.051048    250.03258 
    9800    98.532969   -378.07444    73718.653   -17127.764    1332.2598   -18460.024    33.089955    251.65853 
    9850    92.846996   -1067.9712    73781.649   -17183.005      1255.38   -18438.385    33.368921    237.13625 
    9900    92.993211   -903.16035    73727.224   -17196.724     1257.357   -18454.081    33.671836    237.50969 
    9950    92.164664   -855.73107    73758.333   -17202.205    1246.1542   -18448.359     33.74291    235.39353 
   10000    93.451617    -923.4168    73679.214   -17181.451    1263.5551   -18445.006    33.997036    238.68048 
   10050    94.214385   -486.74788    73625.449   -17190.258    1273.8684   -18464.126    34.104623    240.62863 
   10100    93.862169   -812.78016    73591.122   -17176.322    1269.1061   -18445.428    34.172346    239.72905 
   10150     91.57075   -977.56771    73551.244    -17214.15    1238.1239   -18452.274    34.342745    233.87665 
   10200    92.064456   -847.93362    73528.159   -17212.242    1244.7993   -18457.041    34.362547     235.1376 
   10250    94.167242   -672.44357    73504.061   -17185.757     1273.231   -18458.988    34.337511    240.50823 
   10300    92.090641   -805.02565    73595.122   -17164.451    1245.1534   -18409.605    34.611599    235.20447 
   10350    96.549871   -914.35201    73719.499     -17136.8    1305.4464   -18442.246    34.900126    246.59359 
   10400    94.163534   -901.77252    73678.083    -17147.54    1273.1808   -18420.721    35.267293    240.49876 
   10450     93.49202   -1202.2691    73614.017   -17124.277    1264.1013   -18388.378     35.50256    238.78367 
   10500    97.485206   -686.98306     73515.55   -17119.159     1318.093   -18437.252    35.779296    248.98249 
   10550    97.826303   -980.88323    73551.096   -17105.187     1322.705   -18427.892    36.150282    249.85367 
   10600    95.306044   -998.75009    73544.436   -17119.061    1288.6287    -18407.69    36.322015    243.41679 
   10650    96.652258   -728.43206    73566.474   -17139.125    1306.8308   -18445.956    36.422032    246.85509 
   10700    94.101513   -1009.3929    73549.982   -17156.757    1272.3423     -18429.1    36.690045    240.34035 
   10750    93.885541   -858.85188    73595.039   -17122.214    1269.4221   -18391.636    36.916125    239.78875 
   10800     93.70992   -1137.8127    73556.464   -17151.714    1267.0476   -18418.762    37.149867     239.3402 
   10850    95.016891   -974.26083    73542.417   -17175.335    1284.7191   -18460.054    37.377411    242.67828 
   10900    94.821797   -839.14977    73509.807   -17180.226    1282.0812   -18462.308    37.851727       242.18 
   10950    95.562556    -949.7278    73504.019   -17168.425     1292.097   -18460.522    38.184586    244.07193 
   11000    92.636419   -954.33414    73502.456   -17192.593    1252.5328   -18445.126    38.348596    236.59842 
   11050      92.8461   -767.16791     73496.49   -17193.455    1255.3679   -18448.823    38.628524    237.13396 
   11100    93.076493   -979.02307     73442.77   -17226.654     1258.483   -18485.137    38.770038    237.72239 
   11150    94.022707   -809.41873    73463.573   -17195.145    1271.2767   -18466.422    39.178745    240.13908 
   11200    95.013137   -872.91636    73507.881   -17162.481    1284.6683   -18447.149    39.657431    242.66869 
   11250    94.344144   -686.67937    73511.104   -17173.112    1275.6229   -18448.735     39.99868    240.96004 
   11300    91.606323   -695.98007    73558.276    -17217.89    1238.6049   -18456.495    40.214392     233.9675 
   11350    96.404175    -1079.093    73549.522   -17191.642    1303.4765   -18495.119    40.413132    246.22147 
   11400    94.203409   -984.08725    73514.129   -17169.525      1273.72   -18443.245    40.439686     240.6006 
   11450    96.623764   -766.13091    73470.578   -17141.672    1306.4455   -18448.118    40.478952    246.78232 
   11500    93.351125   -1252.6457    73488.409   -17153.991    1262.1963   -18416.187    40.624489    238.42382 
   11550    95.626801   -1039.4231    73449.938    -17155.68    1292.9656   -18448.645    40.792421    244.23602 
   11600    94.879233   -884.65585    73424.527   -17141.547    1282.8578   -18424.405    40.797503    242.32669 
   11650    96.750675   -914.40694    73419.653   -17126.481    1308.1615   -18434.642    41.027207    247.10645 
   11700    95.695913   -764.15996    73456.841   -17112.237    1293.9001   -18406.137    41.246243    244.41254 
   11750     94.17904   -752.75655    73460.114   -17136.567    1273.3905   -18409.957    41.464963    240.53836 
   11800    95.118215   -935.82684    73497.903   -17124.211     1286.089     -18410.3    41.665528    242.93706 
   11850    97.132829   -1049.7231    73530.312   -17148.193    1313.3285   -18461.521    41.870501    248.08249 
   11900    96.791563   -984.70975    73523.947   -17149.696    1308.7143    -18458.41    42.043249    247.21088 
   11950    96.744876   -751.43802     73518.66   -17126.277    1308.0831    -18434.36    42.257338    247.09164 
   12000    94.765756   -841.60521    73585.109   -17155.395    1281.3235   -18436.718    42.466481    242.03686 
   12050    96.457678    -771.9232    73518.642   -17169.925    1304.1999   -18474.125    42.487251    246.35812 
   12100    94.572773   -616.51125    73560.697   -17150.488    1278.7142   -18429.202     42.57552    241.54398 
   12150    96.373731   -1079.1063    73642.122   -17160.209    1303.0648   -18463.274    42.721478    246.14372 
   12200    93.564908   -743.52958    73679.476   -17150.366    1265.0869   -18415.452    42.912668    238.96983 
   12250    93.959697   -821.07795     73754.54   -17143.701    1270.4248   -18414.126    43.000466    239.97815 
   12300    95.085152   -951.55285    73755.297   -17166.573     1285.642   -18452.215     43.18366    242.85262 
   12350    93.844462   -1108.5092    73703.769   -17182.506    1268.8667   -18451.373    43.537584    239.68383 
   12400    94.604718   -784.20845    73727.657   -17208.658    1279.1461   -18487.804    43.562709    241.62556 
   12450    94.680983   -605.95579    73774.143   -17179.343    1280.1773    -18459.52    43.703143    241.82035 
   12500    93.794777   -881.62475    73808.845   -17174.824    1268.1949   -18443.019    43.959311    239.55693 
   12550    89.833348   -577.48006    73794.848   -17222.799    1214.6326   -18437.432     44.26701    229.43923 
   12600    91.603663   -1220.0348    73772.313   -17247.552    1238.5689   -18486.121    44.355725    233.96071 
   12650    91.762497   -1101.3217    73729.092   -17235.392    1240.7165   -18476.109    44.478182    234.36638 
   12700    90.357117     -1281.94    73704.687   -17243.086    1221.7145     -18464.8    44.408381    230.77696 
   12750    92.926669   -904.96388    73667.502   -17252.761    1256.4573   -18509.219    44.622358    237.33974 
   12800    91.408832   -834.39725    73658.087   -17258.906    1235.9346   -18494.841    44.927933     233.4631 
   12850    91.883881   -669.00515    73656.247   -17253.827    1242.3578   -18496.185    45.099777     234.6764 
   12900    90.288089   -979.73386    73648.998   -17269.206    1220.7811   -18489.987    45.283107    230.60066 
   12950    91.775789   -970.64139    73585.144    -17294.75    1240.8963   -18535.646    45.565986    234.40033 
   13000    91.498625   -816.40078    73628.669   -17291.032    1237.1487   -18528.181    45.774647    233.69243 
   13050    92.111891   -831.65898    73665.823   -17291.144    1245.4407   -18536.585     45.89727    235.25875 
   13100    92.748761   -1064.8955    73661.654   -17257.439    1254.0518    -18511.49    46.217652    236.88535 
   13150    94.195208   -794.74032    73615.379   -17201.649    1273.6091   -18475.258     46.54542    240.57965 
   13200    97.982409    -981.1699    73619.849   -17180.794    1324.8157    -18505.61    46.580824    250.25237 
   13250    96.651787    -812.8104    73668.897   -17179.462    1306.8244   -18486.286    46.766085    246.85389 
   13300    96.869553   -944.53338     73686.13   -17176.008    1309.7688   -18485.777    46.695423    247.41008 
   13350    94.792062   -833.63627    73704.384   -17201.813    1281.6791   -18483.492    46.742622    242.10405 
   13400    95.925433     -1035.96    73696.653   -17191.462    1297.0034   -18488.465    46.834297    244.99874 
   13450    96.255563   -646.49313    73689.067   -17167.434    1301.4671   -18468.902    46.924779    245.84191 
   13500     95.36734   -1176.2617    73757.352   -17186.201    1289.4575   -18475.659     47.27671    243.57334 
   13550    96.395193   -696.06307    73792.784   -17180.999     1303.355   -18484.354     47.54079    246.19853 
   13600    99.450012    -797.3386    73813.306   -17175.862    1344.6591   -18520.521    47.823596    254.00071 
   13650    98.558784   -444.22963    73947.662   -17140.485    1332.6088   -18473.094    47.916599    251.72446 
   13700    95.587173   -593.89861    74041.186   -17165.098    1292.4298   -18457.528    48.225081    244.13481 
   13750    97.834734   -810.68757    74098.173   -17160.383     1322.819   -18483.202    48.490145     249.8752 
   13800    95.767837   -955.15473     74136.53   -17151.143    1294.8726   -18446.015    48.705771    244.59623 
   13850    95.759739   -1191.1765    74081.266   -17139.348    1294.7631   -18434.111    48.715465    244.57555 
   13900      96.5572   -736.67276    74051.964   -17142.256    1305.5455   -18447.802    48.806351    246.61231 
   13950    96.763089   -766.52508    74127.225   -17135.146    1308.3293   -18443.475    49.018086    247.13816 
   14000    94.859298   -713.86508    74148.331   -17188.437    1282.5882   -18471.026    49.225123    242.27578 
   14050    99.196024   -1237.9744    74156.721   -17190.988    1341.2249   -18532.213    49.449905    253.35201 
   14100    93.880477    -1055.209    74155.212   -17193.279    1269.3537   -18462.632     49.73731    239.77581 
   14150    95.058534   -1009.9341    74198.672   -17205.396    1285.2821   -18490.678    49.600834    242.78463 
   14200    96.621336   -1069.5469    74130.172   -17229.756    1306.4127   -18536.168    49.706422    246.77611 
   14250    93.880418   -809.35089    74096.042   -17202.427    1269.3528    -18471.78    50.072716    239.77566 
   14300    93.430975   -1227.4284    74069.356   -17191.921     1263.276   -18455.197    50.013143    238.62776 
   14350    95.725511     -1153.05     74067.42   -17177.307    1294.3003   -18471.607    50.289092    244.48813 
   14400     93.43487   -945.81158    74024.737   -17196.651    1263.3286    -18459.98    50.300472    238.63771 
   14450    93.424824   -977.91855    74001.748   -17246.301    1263.1928   -18509.494    50.362628    238.61205 
   14500     92.95706   -1055.7278     73969.69     -17239.9    1256.8682   -18496.768    50.275922    237.41736 
   14550    91.844129   -911.52073    73971.901   -17237.379    1241.8203   -18479.199    50.554571    234.57487 
   14600    93.011717   -1038.3838    74004.027   -17240.163    1257.6072    -18497.77     50.70093    237.55695 
   14650    94.226866   -776.07952     74058.91   -17195.074    1274.0372   -18469.111    50.705209    240.66051 
   14700    96.826134   -944.34825    74115.246   -17164.865    1309.1817   -18474.046    51.073599    247.29918 
   14750    96.767661   -1021.5484    74100.805   -17174.946    1308.3911   -18483.338    51.227329    247.14984 
   14800    93.586876   -787.90702    74105.095   -17190.026    1265.3839    -18455.41    51.717358    239.02594 
   14850    94.024913   -866.36586    74092.888   -17190.388    1271.3066   -18461.694    51.844929    240.14471 
   14900    92.863041   -1041.7953    74106.549   -17208.963    1255.5969    -18464.56    51.923146    237.17723 
   14950    91.368273   -1051.9985    74087.827   -17233.519    1235.3862   -18468.906    52.200323    233.35951 
   15000    90.665167   -910.24483    74105.203   -17246.382    1225.8796   -18472.261    52.400569    231.56374 
   15050    91.153263   -810.67755    74098.266   -17268.518    1232.4791   -18500.997    52.450971    232.81036 
   15100    92.212994   -974.24356    74065.055   -17233.918    1246.8077   -18480.726    52.189548    235.51697 
   15150    93.130377   -625.55653    74070.447   -17252.077    1259.2116   -18511.289    52.215494    237.86002 
   15200    90.781302   -1295.9114    74113.309   -17290.337    1227.4498   -18517.786    52.199007    231.86035 
   15250    94.218384   -941.40406    74115.246   -17281.701    1273.9225   -18555.624    51.989481    240.63884 
   15300    92.475488   -968.69533    74119.389    -17284.23    1250.3568   -18534.587    51.848629    236.18739 
   15350    92.062828   -925.94766     74114.41   -17268.995    1244.7773   -18513.773    51.937182    235.13344 
   15400    92.717404   -729.72918    74119.004   -17269.897    1253.6278   -18523.524    52.224679    236.80526 
   15450    92.071506    -933.1212    74105.257   -17306.639    1244.8946   -18551.533    52.382933     235.1556 
   15500    90.263078   -1153.2597    74065.518   -17324.079     1220.443   -18544.521    52.433412    230.53678 
   15550    92.281285   -957.56319    74026.819   -17317.872     1247.731   -18565.603    52.522926    235.69139 
   15600     90.47611   -1014.9001    74007.531   -17327.543    1223.3234   -18550.866    52.797694    231.08087 
   15650    92.811245   -966.89546    74035.904   -17274.811    1254.8966   -18529.708    52.918852    237.04494 
   15700    95.933688   -789.94761    74006.773   -17223.911     1297.115   -18521.026    52.889478    245.01983 
   15750    95.939367    -957.1394     74032.51   -17225.795    1297.1918   -18522.987    53.136203    245.03433 
   15800    95.350934   -478.85971    74087.338   -17219.209    1289.2356   -18508.444    53.252451    243.53144 
   15850    98.909795   -996.10464    74222.934    -17191.42    1337.3548   -18528.775    53.325709    252.62096 
   15900    98.732802   -735.88563     74310.02   -17191.632    1334.9617   -18526.593    53.455926    252.16891 
   15950    96.754371    -1126.856     74252.35   -17201.273    1308.2114   -18509.484    53.855131    247.11589 
   16000    91.823846   -805.42901    74129.365   -17213.639     1241.546   -18455.185    54.052523    234.52307 
   16050    99.051425   -764.92282    74125.928   -17181.458    1339.2698   -18520.728    54.033985    252.98269 
   16100    94.834856    -839.2374    74141.146   -17188.692    1282.2578    -18470.95    53.982176    242.21335 
   16150    90.295997   -626.14463    74184.247   -17228.923    1220.8881   -18449.811    53.953165    230.62086 
   16200    97.815757   -1069.5226    74204.506   -17213.776    1322.5624   -18536.338    54.070165    249.82673 
   16250    95.030247   -1038.1565    74145.453   -17230.801    1284.8996   -18515.701    54.197537    242.71239 
   16300    93.975858   -1075.2989     74116.59   -17233.179    1270.6433   -18503.822    54.305962    240.01942 
   16350    95.713806   -1023.7193    74039.288   -17242.105     1294.142   -18536.247    54.303185    244.45823 
   16400    96.808142   -1068.0862    74005.513   -17209.103    1308.9385   -18518.041    54.525811    247.25323 
   16450     93.22781   -757.20117    73994.212   -17238.561     1260.529    -18499.09    54.655946    238.10887 
   16500    91.859433   -857.61299    74035.842    -17246.14    1242.0272   -18488.167    54.695742    234.61396 
   16550    93.725546   -821.80567    74047.486   -17277.995    1267.2588   -18545.254    54.673253    239.38011 
   16600    92.028506   -874.65342    74091.034   -17286.305    1244.3132   -18530.618     54.78161    235.04578 
   16650    93.988678   -989.99272    74118.388   -17279.904    1270.8166   -18550.721    54.667034    240.05217 
   16700    93.951907   -868.92152    74124.421   -17267.475    1270.3194   -18537.794     54.40272    239.95825 
   16750    94.000907   -1109.0585    74142.885    -17253.03     1270.982   -18524.012    54.753925     240.0834 
   16800    94.347724   -1000.8941    74173.633   -17277.381    1275.6713   -18553.053    55.006234    240.96919 
   16850    92.918791   -1038.2207    74132.029   -17260.721    1256.3507   -18517.071     54.88473    237.31961 
   16900    93.277769   -993.79096    74121.208   -17251.505    1261.2045    -18512.71    55.103625    238.23646 
   16950    94.464777   -1233.6478     74138.58   -17216.313    1277.2539   -18493.567    55.126611    241.26815 
   17000    93.289941   -1033.9621    74120.311   -17211.654     1261.369   -18473.023    55.358119    238.26755 
   17050    95.687059   -999.37296    74150.711   -17209.702    1293.7804   -18503.482    55.592292    244.38992 
   17100    95.211543    -1066.116    74212.325   -17223.865    1287.3509   -18511.216    55.602383    243.17543 
   17150    93.570952   -1065.4663    74212.633   -17228.202    1265.1686   -18493.371     55.70307    238.98527 
   17200    95.661987   -1293.6344    74157.547   -17216.682    1293.4414   -18510.123    56.057878    244.32589 
   17250    95.295469    -1009.946    74178.789   -17220.294    1288.4857   -18508.779    56.328968    243.38978 
   17300    93.170764   -968.49044    74240.821   -17216.583    1259.7576    -18476.34    56.498627    237.96317 
   17350    94.861608   -1120.2816    74305.795   -17221.647    1282.6195   -18504.267    56.749479    242.28167 
   17400    96.338742   -1088.1955    74332.352   -17204.237    1302.5917   -18506.829    56.816596    246.05435 
   17450     91.85417   -790.56331    74346.285   -17208.516     1241.956   -18450.472    56.914085    234.60052 
   17500    93.769102   -1059.9152    74402.962   -17203.824    1267.8477   -18471.672    57.274063    239.49135 
   17550     91.68868   -1115.4451    74462.945   -17185.885    1239.7185   -18425.604     57.29187    234.17784 
   17600    92.241174   -1077.2331    74441.399   -17200.476    1247.1887   -18447.665    57.506813    235.58895 
   17650    93.832873   -1031.9019    74356.027   -17213.243      1268.71   -18481.953    57.505181    239.65423 
   17700    94.026547   -891.83177    74400.282   -17231.538    1271.3287   -18502.866    57.533826    240.14888 
   17750    91.895922   -1011.7056     74307.96    -17264.16    1242.5206    -18506.68    57.443162    234.70715 
   17800     95.58807   -896.43504    74251.687   -17229.932    1292.4419   -18522.374    57.380812     244.1371 
   17850    93.039738   -1331.4122    74174.419   -17238.349     1257.986   -18496.335    57.752902    237.62852 
   17900     92.50324   -1132.9637    74134.334    -17210.84    1250.7321   -18461.572    57.926976    236.25827 
   17950    95.049125   -1162.4729    74113.857   -17219.979    1285.1549   -18505.133    58.072881     242.7606 
   18000    94.318628   -1328.9672    74073.057   -17211.175    1275.2779   -18486.452    58.172318    240.89487 
   18050    95.069234   -874.07321    74044.172   -17230.403    1285.4268   -18515.829    58.468346    242.81196 
   18100    94.747915   -1367.1366     73921.16   -17261.188    1281.0822    -18542.27    58.763656     241.9913 
   18150    94.435493   -764.59632    73876.481   -17253.998     1276.858   -18530.856    59.171155    241.19335 
   18200      93.2983   -861.53857    73882.487   -17244.931    1261.4821   -18506.413     59.45763     238.2889 
   18250    93.661751   -835.98458    73936.372   -17222.746    1266.3963   -18489.142    59.414695    239.21718 
   18300    96.403485   -924.01864    73956.179   -17235.028    1303.4671   -18538.495    59.725587    246.21971 
   18350    91.854951   -774.14853    74039.507   -17253.837    1241.9666   -18495.804    59.745715    234.60251 
   18400    94.072001   -984.88997     74049.17   -17256.797    1271.9432    -18528.74    59.981011    240.26498 
   18450    94.721828   -831.74599    74058.725   -17238.591    1280.7295    -18519.32    60.201961    241.92467 
   18500    94.191046   -810.41918    74059.658   -17238.613    1273.5528   -18512.166    59.987839    240.56902 
   18550    93.536364    -900.3366    74035.362   -17291.427    1264.7009   -18556.128    59.980136    238.89693 
   18600    92.339562   -1213.1155    73998.152   -17294.951     1248.519   -18543.471    60.179829    235.84023 
   18650    93.632119   -801.87656    74006.912   -17284.775    1265.9956    -18550.77    60.068584    239.14149 
   18700    94.936022   -1132.8488     74017.23   -17299.275    1283.6256     -18582.9     60.19248    242.47173 
   18750    93.222998   -629.22969    74085.504   -17313.721    1260.4639   -18574.185    60.578222    238.09658 
   18800    93.374173   -794.94941    74138.877    -17328.64    1262.5079   -18591.148    60.827867    238.48268 
   18850    92.149315   -788.78119    74147.682   -17305.168    1245.9467   -18551.114    61.003625    235.35433 
   18900    92.124391   -997.80811    74130.241   -17312.302    1245.6097   -18557.912    60.993873    235.29067 
   18950     95.11972   -813.37587    74196.567   -17345.474    1286.1094   -18631.584    61.289028    242.94091 
   19000    91.992792   -768.02683    74228.599   -17342.963    1243.8304   -18586.793    61.367056    234.95456 
   19050    91.064622    -808.6429    74303.992   -17325.391    1231.2806   -18556.672    61.880692    232.58397 
   19100    93.038935   -800.88108    74292.881   -17293.081    1257.9752   -18551.057    62.037951    237.62647 
   19150    91.434547   -1143.1835    74250.899   -17310.402    1236.2823   -18546.684    61.756457    233.52878 
   19200    94.609649   -886.04174     74234.46   -17259.943    1279.2127   -18539.155    61.907504    241.63816 
   19250    92.745334   -935.31905     74214.94   -17269.257    1254.0054   -18523.262    62.313098     236.8766 
   19300    93.869351   -1149.3211     74179.76   -17246.573    1269.2032   -18515.776    62.332122     239.7474 
   19350     93.76711   -763.19539    74255.295   -17272.723    1267.8208   -18540.544    62.613031    239.48627 
   19400    93.008104   -867.07556    74256.344   -17277.831    1257.5583    -18535.39    62.750111    237.54772 
   19450    91.857575   -658.31168    74314.942   -17277.529    1242.0021   -18519.531    62.600446    234.60921 
   19500    92.870883   -809.82509    74309.596   -17264.971     1255.703   -18520.674    62.628879    237.19726 
   19550      95.7614   -931.69114     74360.97   -17200.362    1294.7855   -18495.148    62.601015    244.57979 
   19600    96.316972   -756.28546    74336.187   -17234.794    1302.2974   -18537.091    62.580205    245.99875 
   19650    97.173074   -1002.5476    74283.888   -17188.543    1313.8727   -18502.415    62.783526    248.18528 
   19700    92.873114   -942.40089    74270.422   -17235.768    1255.7331   -18491.501    62.848203    237.20295 
   19750    91.077888   -1109.3434    74211.069   -17278.591      1231.46   -18510.051    62.847354    232.61785 
   19800    92.876022   -757.42669    74151.083   -17321.144    1255.7725   -18576.916    62.971927    237.21038 
   19850    90.302499   -809.60854    74106.512   -17330.762     1220.976   -18551.738    62.968212    230.63746 
   19900    90.767231   -728.36978    74118.661   -17309.539    1227.2596   -18536.798    63.547841    231.82441 
   19950    92.136291    -1044.793    74161.969   -17297.441    1245.7706   -18543.211     63.77425    235.32107 
   20000    89.502151   -1153.0323    74184.564   -17279.716    1210.1545    -18489.87     64.01362    228.59333 
   20050     92.85803   -868.70024    74204.037   -17277.548    1255.5292   -18533.077    64.176091    237.16443 
   20100    90.610989   -1045.6198    74182.064   -17298.352    1225.1471   -18523.499    64.510604    231.42536 
   20150    94.179732   -773.79549    74123.019   -17242.361    1273.3999   -18515.761     64.95814    240.54013 
   20200    96.358137   -884.14578     74111.82   -17246.789     1302.854   -18549.642    65.043354    246.10389 
   20250    90.261101   -1223.4318    74048.336   -17289.922    1220.4162   -18510.339    65.282604    230.53173 
   20300    92.254594   -1143.1567    73988.451   -17277.848    1247.3702   -18525.219    65.586914    235.62322 
   20350    92.538487   -984.35566     73936.14    -17264.16    1251.2087   -18515.369    65.772461     236.3483 
   20400    92.686081   -1120.6645     73877.81   -17276.576    1253.2043    -18529.78    66.162769    236.72526 
   20450    94.463728   -1093.7322    73853.728   -17270.896    1277.2398   -18548.136    66.289374    241.26547 
   20500    95.436675   -1142.8171    73850.852    -17244.44    1290.3949   -18534.835    66.134121    243.75043 
   20550    92.713674   -811.71824    73905.621   -17219.489    1253.5774   -18473.067    65.868641    236.79574 
   20600    93.997274   -837.23953     73934.31   -17214.324    1270.9329   -18485.257    66.304655    240.07412 
   20650    92.260082   -914.50277    73967.453   -17250.393    1247.4444   -18497.837    66.465351    235.63724 
   20700    93.077906   -1048.3471    73983.979   -17255.811    1258.5021   -18514.313    66.437484      237.726 
   20750    93.616172   -1096.7834    73944.714   -17224.102      1265.78   -18489.882     66.28727    239.10076 
   20800    93.033939   -702.06092    73943.285   -17197.858    1257.9076   -18455.765    66.204788    237.61371 
   20850    95.349402   -929.58833    73861.427   -17200.541    1289.2149   -18489.756    65.800614    243.52753 
   20900    93.694857   -628.68887    73819.452   -17192.869    1266.8439   -18459.713    65.963634    239.30173 
   20950    94.223537   -761.57028    73821.925   -17149.781    1273.9921   -18423.773    66.124058    240.65201 
   21000    93.507699     -477.758    73834.615   -17189.198    1264.3133   -18453.512    66.200735    238.82372 
   21050    92.818189   -835.07559    73825.017   -17203.487    1254.9905   -18458.477    66.443076    237.06267 
   21100    96.242806   -621.53847    73849.741   -17187.243    1301.2946   -18488.537    66.353919    245.80933 
   21150    92.465483   -564.93046    73891.999   -17232.032    1250.2216   -18482.253     66.79079    236.16184 
   21200    92.535106   -1181.0132    73926.981   -17256.928     1251.163   -18508.091    66.868156    236.33966 
   21250    92.351961   -1234.4218    73929.279   -17218.243    1248.6867    -18466.93    66.880513     235.8719 
   21300    94.652498   -838.51121    73925.879   -17216.114    1279.7921   -18495.906     67.23741     241.7476 
   21350    94.555666   -1214.7172    73928.528   -17194.965    1278.4828   -18473.448    67.389428    241.50028 
   21400    93.823195   -941.27599    73964.115   -17216.296    1268.5791   -18484.875    67.628633    239.62951 
   21450    91.132754    -759.3044    73983.937    -17215.94    1232.2018   -18448.142    67.900677    232.75798 
   21500    93.516461   -1163.1938    73941.105   -17212.248    1264.4318    -18476.68    68.322614     238.8461 
   21550    91.152867   -763.13024    73930.331   -17201.171    1232.4738   -18433.645    68.681609    232.80935 
   21600    93.135219   -1150.9043    74004.952   -17234.151     1259.277   -18493.428    68.945884    237.87238 
   21650    95.603163   -676.70109    74039.171   -17206.844     1292.646    -18499.49     69.21553    244.17565 
   21700    95.899871   -949.79216    74082.374   -17177.488    1296.6578   -18474.146    69.010528    244.93345 
   21750    95.041315   -666.19813    74091.976   -17213.337    1285.0493   -18498.387    69.028445    242.74066 
   21800    95.422518   -988.33941    74158.063   -17201.794    1290.2035   -18491.998    69.028369    243.71427 
   21850    94.195793     -798.964    74110.164   -17215.397     1273.617   -18489.014    69.453555    240.58115 
   21900     96.85736   -824.29276    74115.041   -17174.922     1309.604   -18484.526     69.50919    247.37893 
   21950    95.975802   -996.04571    74124.327   -17207.394    1297.6844   -18505.078     69.83804    245.12739 
   22000    94.181928    -860.1324    74113.392   -17206.369    1273.4295   -18479.798     69.96794    240.54573 
   22050    95.835897   -1169.4244    74084.428   -17208.722    1295.7928   -18504.515     69.92412    244.77006 
   22100    95.898641   -1009.6671    74030.487   -17199.394    1296.6411   -18496.035    70.031796    244.93031 
   22150    95.197881   -995.28135    74016.689   -17174.553    1287.1662   -18461.719    70.223962    243.14053 
   22200    94.438192   -942.50027    74013.085   -17188.383    1276.8945   -18465.278    70.186522    241.20025 
   22250    94.012101   -668.71524    74011.004    -17153.19    1271.1333   -18424.323    70.082636    240.11199 
   22300    96.720052   -760.29217      74073.2   -17147.175    1307.7474   -18454.922    70.320513    247.02824 
   22350     95.29498   -660.43042     74069.03    -17142.93    1288.4791    -18431.41    70.393869    243.38853 
   22400    98.657596   -840.80314    74069.817   -17145.405    1333.9449    -18479.35    70.468725    251.97683 
   22450    95.012115   -917.16132    74076.839   -17173.333    1284.6545   -18457.987    70.836833    242.66608 
   22500    94.477205   -820.52885    74063.637   -17200.298     1277.422    -18477.72    70.944384    241.29989 
   22550    92.866348   -916.67162    74059.565   -17235.771    1255.6417   -18491.413    70.960795    237.18567 
   22600    93.351244   -973.49434    73996.986   -17210.476    1262.1979   -18472.674    71.070235    238.42412 
   22650    95.675423   -1015.9813    74001.699   -17168.249     1293.623   -18461.872    71.251395     244.3602 
   22700    97.096675   -1123.0478    73974.269   -17152.367    1312.8397   -18465.207    71.865928    247.99016 
   22750    92.292288   -1103.2983    73956.275   -17152.482    1247.8798   -18400.362    72.422354    235.71949 
   22800    93.464311    -716.9079    74000.473   -17173.157    1263.7267   -18436.883    72.563462     238.7129 
   22850    96.575424   -1213.5191    73994.336   -17139.607    1305.7919   -18445.399    73.113584    246.65885 
   22900    96.223513    -675.9873    74013.942   -17135.828    1301.0337   -18436.862    73.225487    245.76005 
   22950    96.453119   -643.36817    74060.256   -17115.628    1304.1382   -18419.766    73.529847    246.34648 
   23000    95.062969   -992.71489    74002.069   -17128.001    1285.3421   -18413.343    73.962737    242.79596 
   23050    93.155208   -950.78507    73995.989   -17199.341    1259.5473   -18458.888    74.296109    237.92344 
   23100    97.072717    -997.3051    73968.183   -17171.429    1312.5158   -18483.945    74.325063    247.92897 
   23150     94.66552   -901.51498    73948.721   -17173.909    1279.9682   -18453.877    74.301907    241.78085 
   23200    96.557376   -842.42626     73902.64   -17166.134    1305.5479   -18471.682     74.61685    246.61276 
   23250    93.570628   -1025.5792    73861.893   -17189.759    1265.1642   -18454.924    74.937223    238.98444 
   23300    95.690824    -810.7278     73911.21   -17166.094    1293.8313   -18459.926    75.267334    244.39954 
   23350    95.344179   -1013.9258    73908.837   -17192.473    1289.1443   -18481.617    75.690999    243.51419 
   23400    94.257283   -1116.7319    73899.386   -17208.868    1274.4484   -18483.317    75.885741     240.7382 
   23450    96.019696   -648.24048    73970.477    -17185.89    1298.2779   -18484.168    76.102822    245.23949 
   23500    91.875188   -1176.0778    73981.659   -17219.056    1242.2402   -18461.296    76.513666     234.6542 
   23550    93.255041   -772.99879    73959.643   -17252.095    1260.8972   -18512.993    76.926153    238.17841 
   23600     91.30172    -1137.208    73977.568   -17241.408    1234.4864   -18475.894    77.402207    233.18953 
   23650     90.56178   -869.07189    73902.586   -17240.061    1224.4817   -18464.542    77.410889    231.29968 
   23700    90.370497    -851.0308    73846.683    -17260.41    1221.8954   -18482.305    77.195113    230.81113 
   23750    89.433035   -1015.8296    73795.894   -17293.547      1209.22   -18502.767     77.20222    228.41681 
   23800    90.427093   -1061.3374    73678.497   -17283.599    1222.6606   -18506.259    77.718962    230.95568 
   23850    90.703596   -877.60651    73627.809   -17268.016    1226.3992   -18494.415     77.97435    231.66189 
   23900    90.923047   -980.55994    73657.166   -17266.007    1229.3664   -18495.374    78.163888    232.22238 
   23950    94.709455   -718.52008    73675.657   -17271.498    1280.5622   -18552.061    78.388465    241.89307 
   24000    93.278659   -909.16454    73684.149   -17233.125    1261.2165   -18494.342    78.702669    238.23874 
   24050    93.746297   -488.29703    73711.958   -17253.471    1267.5394   -18521.011    78.649382    239.43311 
   24100    93.140366   -1074.2654    73854.698   -17252.629    1259.3466   -18511.975    78.741182    237.88553 
   24150    95.585727   -372.81756    73950.408   -17262.923    1292.4103   -18555.334    78.606877    244.13111 
   24200    93.025912   -626.61766    73980.909   -17243.163    1257.7991   -18500.962     78.44474    237.59321 
   24250    92.006246   -623.33426    73989.838   -17236.703    1244.0123   -18480.715    78.768453    234.98893 
   24300    94.204831   -797.69609    74039.467   -17266.793    1273.7392   -18540.532     78.72545    240.60423 
   24350    91.775343   -822.00665    74067.631   -17265.589    1240.8902   -18506.479    78.865454    234.39919 
   24400    94.060181   -809.29309    74066.632   -17283.945    1271.7834   -18555.728    79.196055    240.23479 
   24450    90.397544   -777.08199    74093.962   -17305.481    1222.2611   -18527.742    79.430537    230.88021 
   24500    93.305127   -1013.5017    74059.182    -17280.69    1261.5744   -18542.265    79.103511    238.30634 
   24550    91.927858   -891.89456    74064.225    -17300.02    1242.9524   -18542.973    79.270001    234.78872 
   24600    92.505047   -776.17621    74087.982   -17292.378    1250.7565   -18543.134    79.275374    236.26289 
   24650    91.149052   -681.21179    74177.422   -17277.524    1232.4222   -18509.946    79.134669    232.79961 
   24700    93.827161   -921.65357     74219.19   -17310.069    1268.6328   -18578.702    79.171035    239.63964 
   24750    90.972575   -1272.8912    74185.264   -17283.051     1230.036   -18513.087    79.246774    232.34887 
   24800    90.585705   -799.21415    74133.939   -17287.776    1224.8052   -18512.581    79.379006    231.36079 
   24850    90.964239   -659.65311    74147.589   -17267.559    1229.9233   -18497.482    79.571044    232.32758 
   24900     91.40928   -896.63204    74163.043   -17303.937    1235.9407   -18539.878    79.582048    233.46424 
   24950    92.556949   -946.23956    74117.641   -17279.956    1251.4583   -18531.414    79.753572    236.39545 
   25000    94.517776   -717.04877    74035.368   -17300.089    1277.9705   -18578.059    79.523042    241.40351 
   25050    92.040302   -1366.6872    73975.184   -17286.419    1244.4727   -18530.892    79.548796    235.07591 
   25100    94.714512   -1034.4631    73948.338   -17298.894    1280.6306   -18579.525    79.581672    241.90598 
   25150    94.232789   -791.70897    73971.815   -17291.628    1274.1172   -18565.745    79.709772    240.67564 
   25200    94.962999   -791.63147    73965.516   -17284.425    1283.9904   -18568.415    79.996534    242.54063 
   25250    92.471694   -949.72512    73982.347   -17278.498    1250.3056   -18528.803    80.334294    236.17771 
   25300    94.593634   -842.89377      73948.5   -17220.468    1278.9962   -18499.464    80.653857    241.59725 
   25350    91.155923   -492.52317    73967.264   -17233.614    1232.5151   -18466.129    80.881307    232.81715 
   25400    95.026568   -844.93631     74004.11   -17239.137    1284.8499   -18523.987    80.615908    242.70299 
   25450    94.552332   -876.56881    73996.269   -17244.964    1278.4378   -18523.402    80.756013    241.49177 
   25500    96.220026   -795.81209    74026.743    -17251.48    1300.9866   -18552.467    80.946006    245.75115 
   25550    92.762871   -1066.9058    73964.938   -17254.319    1254.2425   -18508.562    80.908074    236.92139 
   25600    92.902865   -871.15102    73901.218     -17293.2    1256.1354   -18549.335    81.084752    237.27894 
   25650    94.772177   -818.82216    73877.811   -17244.534    1281.4103   -18525.945    81.244477    242.05326 
   25700    97.226568   -667.98045      73929.6   -17255.478     1314.596   -18570.074    81.553305    248.32191 
   25750    93.667388   -779.77288     73961.35   -17263.537    1266.4725   -18530.009    81.700187    239.23157 
   25800    94.474318   -1046.1691    73917.773   -17266.937     1277.383    -18544.32    81.767823    241.29252 
   25850    95.387515   -577.13314     73920.79   -17248.426    1289.7302   -18538.156    82.223836    243.62487 
   25900    93.259513   -1113.5118    73882.593   -17224.461    1260.9576   -18485.419    82.620789    238.18984 
   25950    91.296686   -789.27629    73934.291   -17248.127    1234.4183   -18482.545    82.441299    233.17667 
   26000    94.894919   -898.15975    73916.952    -17254.79    1283.0699    -18537.86    82.253566    242.36675 
   26050    93.553618   -798.31473    73930.861   -17237.678    1264.9342   -18502.613    82.544936      238.941 
   26100    93.963228   -787.98342     73949.34   -17246.163    1270.4725   -18516.636    82.320708    239.98716 
   26150    91.941439   -655.65663    73919.078   -17281.354     1243.136    -18524.49    82.591838    234.82341 
   26200    94.584456   -757.72078    73890.024    -17240.76    1278.8721   -18519.632    82.500963    241.57381 
   26250    94.316046   -1032.9374    73858.393   -17257.923    1275.2429   -18533.166    82.928234    240.88828 
   26300    92.212478   -903.77044    73866.517   -17261.794    1246.8007   -18508.595    82.886406    235.51565 
   26350    94.718009   -1078.3125     73821.02   -17248.459    1280.6779   -18529.137     82.88605    241.91491 
   26400    92.629066   -735.13838    73813.764   -17263.263    1252.4334   -18515.697    82.842134    236.57964 
   26450    94.377367   -708.33244    73834.926   -17257.417    1276.0721   -18533.489    83.026363     241.0449 
   26500    93.664555    -901.3151     73814.99    -17258.16    1266.4342   -18524.595    83.152886    239.22434 
   26550    92.830797   -585.78003     73813.75   -17258.125     1255.161   -18513.286    83.086571    237.09487 
   26600    92.035598   -992.69095     73795.97    -17264.45    1244.4091   -18508.859    83.450074    235.06389 
   26650    93.797836    -1116.753    73754.265   -17261.092    1268.2363   -18529.329    83.483861    239.56474 
   26700    92.942067   -912.09391    73774.039   -17279.215    1256.6655    -18535.88    83.603934    237.37906 
   26750    95.400385   -1375.1685     73745.97   -17316.314    1289.9043   -18606.218    83.725617    243.65774 
   26800    94.867629   -606.72064     73775.22   -17274.697    1282.7009   -18557.397    83.690692    242.29705 
   26850    93.495798   -953.22197    73777.606   -17236.694    1264.1524   -18500.847    83.686112    238.79332 
   26900    93.140592   -1042.0157    73786.084   -17234.878    1259.3497   -18494.228    83.499416    237.88611 
   26950    95.107828   -648.28345    73784.243   -17254.207    1285.9486   -18540.156    83.270575    242.91053 
   27000    94.716369   -1001.1772    73768.665   -17271.193    1280.6557   -18551.848      83.6421    241.91073 
   27050    92.377487   -870.28277     73769.29    -17289.39    1249.0318   -18538.422    83.841725    235.93709 
   27100    92.139535   -919.89401    73829.302   -17266.718    1245.8144   -18512.532    84.141279    235.32935 
   27150    89.304266    -783.9151    73832.727   -17285.166    1207.4789   -18492.645    84.361178    228.08792 
   27200    94.993077   -1071.4466    73871.376   -17275.885    1284.3971   -18560.282    84.588746    242.61745 
   27250    93.435087   -610.10312    73909.455   -17280.805    1263.3315   -18544.137    84.800876    238.63826 
   27300     95.09057   -1014.3528    73959.754   -17278.608    1285.7153   -18564.323    84.868803    242.86646 
   27350    92.126072   -783.93943    73944.952   -17319.228    1245.6324   -18564.861    84.979559    235.29497 
   27400    94.254706   -705.53874    73937.022    -17261.44    1274.4136   -18535.853    85.131371    240.73161 
   27450    89.710769   -974.69919    73878.999   -17270.815    1212.9752    -18483.79    85.580611    229.12615 
   27500     93.28048   -1102.1555    73829.866    -17291.91    1261.2411   -18553.151    85.710465    238.24339 
   27550    95.090608   -944.38495    73783.871   -17268.559    1285.7158   -18554.274    85.945168    242.86655 
   27600    91.391605   -690.17921    73792.497   -17281.331    1235.7017   -18517.033    86.044846     233.4191 
   27650    92.085304   -1077.7087    73821.205   -17277.523    1245.0812   -18522.604    86.499462    235.19085 
   27700    92.689725   -934.84074    73789.548     -17280.2    1253.2535   -18533.454    86.547245    236.73457 
   27750    91.742605   -727.61495    73838.086   -17251.307    1240.4476   -18491.754     86.55685    234.31557 
   27800    94.924355   -993.92452    73877.071   -17256.868    1283.4679   -18540.336    87.006724    242.44193 
   27850    94.746274   -919.61486    73935.052   -17253.144    1281.0601   -18534.204    86.999479    241.98711 
   27900    90.297083   -860.93963    73945.067   -17267.284    1220.9027   -18488.187    87.000792    230.62363 
   27950    94.102407   -636.02054    73995.498    -17230.18    1272.3544   -18502.535    87.093657    240.34263 
   28000    94.262896   -814.08615    74071.585   -17205.757    1274.5243   -18480.281    86.815711    240.75253 
   28050    95.195794   -817.66809    74069.698   -17217.043     1287.138   -18504.181    87.160079     243.1352 
   28100     90.42759   -1082.1398    74006.636   -17250.669    1222.6673   -18473.337    87.229469    230.95695 
   28150    92.212902   -958.37573    73960.489   -17235.567    1246.8064   -18482.373    87.514393    235.51674 
   28200    92.694248   -766.45161    73943.687   -17211.861    1253.3147   -18465.176    87.395119    236.74612 
   28250    94.722643   -1068.8467    73910.513   -17227.216    1280.7405   -18507.957    87.562883    241.92675 
   28300    95.140092   -757.84531    73936.021   -17184.176    1286.3848   -18470.561    87.385449    242.99294 
   28350    95.479851   -832.59347    73970.206   -17213.415    1290.9787   -18504.394    87.939654     243.8607 
   28400    91.870459   -864.38821    73986.516   -17234.138    1242.1763   -18476.314    88.095758    234.64212 
   28450    92.195101   -841.20868    73997.922   -17229.838    1246.5658   -18476.404    88.035931    235.47127 
   28500    92.715407   -693.98034    73965.426   -17271.055    1253.6008   -18524.656    88.335283    236.80016 
   28550    95.790223   -1079.1177    73935.438    -17260.94    1295.1752   -18556.115     88.58664    244.65341 
   28600    92.383244   -579.89762    73934.537   -17252.351    1249.1096   -18501.461    88.665844     235.9518 
   28650    93.595726    -877.4202     73939.88   -17275.605    1265.5035   -18541.108    89.059175    239.04854 
   28700     93.20218   -852.55856    73878.911   -17265.689    1260.1824   -18525.871    89.363409     238.0434 
   28750    94.760365   -719.42422     73907.77   -17248.684    1281.2506   -18529.934    89.711518    242.02309 
   28800    93.934766    -801.3761    73906.957   -17225.506    1270.0877   -18495.594     89.59743    239.91447 
   28850    91.787949   -1045.7938    73891.273   -17236.189    1241.0607   -18477.249     89.82504    234.43138 
   28900    91.321535   -764.91132    73849.901   -17257.102    1234.7543   -18491.856    90.199646    233.24014 
   28950    91.773015   -523.39634    73827.907    -17242.78    1240.8587   -18483.638    90.212659    234.39324 
   29000    94.189011   -1179.6373    73824.414   -17224.453    1273.5253   -18497.978     90.42936    240.56383 
   29050    90.585132   -603.47169    73760.414   -17248.273    1224.7974    -18473.07    90.355758    231.35932 
   29100    93.752132   -1003.8262    73787.491   -17240.544    1267.6183   -18508.162    90.167311    239.44801 
   29150    95.463206   -878.20113    73817.345   -17203.477    1290.7537    -18494.23    89.808696    243.81819 
   29200    94.325771   -816.12022     73800.76   -17219.065    1275.3745    -18494.44     90.11793    240.91312 
   29250    95.282867   -658.68664    73869.733   -17222.354    1288.3153   -18510.669    90.015323    243.35759 
   29300    93.784528   -736.16108     73939.44   -17229.549    1268.0563   -18497.606    90.152456    239.53075 
   29350    95.216898   -801.00493    73979.694   -17212.822    1287.4233   -18500.245    90.547821     243.1891 
   29400    96.232972   -524.48143    74026.702   -17202.841    1301.1616   -18504.003    90.786949    245.78421 
   29450    93.906014   -1273.9712    74054.524   -17216.254    1269.6989   -18485.952    91.125439    239.84104 
   29500    95.149987   -1005.0373    73999.368    -17231.35    1286.5186   -18517.868    91.027508    243.01821 
   29550    92.007276   -868.27662    73999.558   -17246.058    1244.0262   -18490.084    91.160612    234.99156 
   29600    93.205624   -1134.3761    73966.709   -17240.036     1260.229   -18500.265     91.19656     238.0522 
   29650    94.629288   -783.12507    73997.524   -17219.959    1279.4783   -18499.438    91.327355    241.68832 
   29700    92.012736   -713.82389     74058.99   -17213.761       1244.1   -18457.861    91.371807     235.0055 
   29750    92.541962   -946.74427    74083.975   -17207.016    1251.2556   -18458.272    91.214132    236.35717 
   29800    94.503965   -774.47962    74094.581   -17206.352    1277.7838   -18484.135    91.361517    241.36823 
   29850    93.614043   -1039.8803    74081.215   -17207.931    1265.7512   -18473.682    91.667044    239.09532 
   29900    93.533493   -919.87727    74088.149   -17232.925    1264.6621   -18497.588    91.787027     238.8896 
   29950     92.92559   -604.57669    74105.496   -17270.304    1256.4427   -18526.747    91.876615    237.33698 
   30000    90.525823   -881.93155    74113.177   -17248.687    1223.9955   -18472.682    92.038097    231.20785 
   30050    95.070931   -960.26477     74134.31   -17208.934    1285.4497   -18494.384    92.442568     242.8163 
   30100    95.015213   -726.38043     74145.08    -17201.69    1284.6964   -18486.386    92.806006    242.67399 
   30150    94.504201   -741.11947    74063.873   -17197.362     1277.787   -18475.149    92.743681    241.36884 
   30200    96.649114   -1219.0891    74026.337    -17156.32    1306.7883   -18463.108    93.048367    246.84706 
   30250    93.949279   -1085.0061    74021.746   -17161.554    1270.2839   -18431.838    93.286133    239.95154 
   30300    95.939106   -873.86202    74010.229   -17158.158    1297.1883   -18455.347    93.260131    245.03366 
   30350    95.228486   -887.98978    74068.895   -17201.768      1287.58   -18489.348    93.702797     243.2187 
   30400    97.904966   -867.97095    74097.491   -17164.428    1323.7686   -18488.197    93.833043    250.05457 
   30450    95.960097   -723.97808    74169.784   -17173.597    1297.4721   -18471.069    94.210018    245.08727 
   30500    93.313315   -961.47364    74112.112   -17204.093    1261.6851   -18465.778    94.441481    238.32725 
   30550    95.796508   -630.34354    74078.855   -17184.545    1295.2602   -18479.805    94.817764    244.66946 
   30600     94.10622   -956.58583    74089.963   -17163.643    1272.4059   -18436.049    94.884292    240.35237 
   30650    96.026112   -693.47695     74108.85   -17196.025    1298.3647    -18494.39    95.139009    245.25588 
   30700    96.786245   -722.59864    74150.952   -17210.794    1308.6424   -18519.436    95.191219     247.1973 
   30750    96.030183   -804.19666    74126.566   -17214.532    1298.4197   -18512.951     95.35904    245.26628 
   30800    93.539063   -517.23575    74125.647   -17212.937    1264.7374   -18477.674    95.804346    238.90382 
   30850    94.338369    -738.6234    74119.208   -17203.349    1275.5448   -18478.894    96.054124    240.94529 
   30900    95.000961   -609.68857    74141.468   -17203.017    1284.5037   -18487.521    96.240697    242.63759 
   30950     96.29392   -1000.3966     74172.96   -17180.517    1301.9857   -18482.503    96.587514    245.93988 
   31000    99.184881   -864.18521    74178.209   -17173.104    1341.0743   -18514.178    96.772157    253.32355 
   31050    95.958122   -557.12779    74194.175   -17153.401    1297.4454   -18450.846    96.908672    245.08223 
   31100    95.421087   -872.98741    74240.457    -17186.52    1290.1842   -18476.704    97.175386    243.71062 
   31150    96.409833    -1146.168    74222.679   -17216.723     1303.553   -18520.276    97.404772    246.23592 
   31200    97.054986   -1197.6903    74231.534   -17202.459     1312.276   -18514.735    97.628264    247.88368 
   31250     94.26043   -1106.1638    74241.358   -17208.941     1274.491   -18483.432    97.557945    240.74623 
   31300    96.278421   -1160.0353    74213.739   -17226.303    1301.7761    -18528.08    97.614215    245.90029 
   31350    95.704034   -1046.0041    74173.448   -17238.195    1294.0099   -18532.205    97.977274    244.43328 
   31400    90.315676   -1123.6565    74167.091   -17265.081    1221.1541   -18486.236    98.280024    230.67112 
   31450    93.850194   -1248.6271    74164.587   -17271.827    1268.9442   -18540.771    98.520439    239.69847 
   31500     91.21392   -1165.0313    74165.284   -17249.625    1233.2993   -18482.924    98.768373    232.96528 
   31550    94.642994   -1197.3952    74183.579   -17191.461    1279.6636   -18471.125    99.105946    241.72332 
   31600    96.311052   -1079.6339      74176.5   -17196.148    1302.2173   -18498.365     99.18623    245.98363 
   31650     96.33015   -1058.3209    74205.393   -17214.563    1302.4756   -18517.039    99.189704    246.03241 
   31700    92.368756   -1311.8201    74211.452   -17236.934    1248.9137   -18485.847    99.191133     235.9148 
   31750    93.216193   -1186.9716    74188.511   -17247.148    1260.3719    -18507.52    99.829024     238.0792 
   31800    92.750257   -663.57708    74136.713   -17247.892     1254.072   -18501.964    99.887081    236.88917 
   31850    96.501892   -785.84268    74180.484   -17252.418    1304.7977   -18557.215    99.930066    246.47105 
   31900    92.106541   -1051.7095    74162.901   -17268.024    1245.3683   -18513.393    99.813334    235.24508 
   31950    91.215241    -1098.591    74110.933   -17278.934    1233.3171   -18512.251    99.659518    232.96866 
   32000    94.099095   -1255.2422    74060.647    -17324.34    1272.3096   -18596.649    100.01452    240.33418 
   32050    92.102121   -1211.9298    74096.838   -17314.621    1245.3086   -18559.929     100.2059     235.2338 
   32100    93.800518    -991.3598    74079.137    -17307.23    1268.2725   -18575.502    100.10931    239.57159 
   32150     92.02309   -725.65138     74108.99    -17276.22      1244.24    -18520.46    100.49133    235.03195 
   32200    92.179462   -1008.5219    74112.392   -17249.372    1246.3543   -18495.727    100.59906    235.43133 
   32250    92.455812   -1063.4434    74038.967    -17275.71    1250.0908   -18525.801    101.15732    236.13714 
   32300    91.970589   -1025.4693    74014.967   -17256.856    1243.5301   -18500.386    101.37384    234.89785 
   32350    92.581264   -958.10912    74101.686   -17245.141     1251.787   -18496.928    101.41545    236.45755 
   32400    93.823342   -895.77658     74068.32   -17244.281    1268.5811   -18512.862    101.23967    239.62989 
   32450     95.64712   -978.60195    74075.936   -17250.075    1293.2403   -18543.315    101.22708    244.28791 
   32500    96.940133   -963.60004    74098.929    -17163.59    1310.7231   -18474.313    101.26458    247.59034 
   32550    97.377795   -1017.2422    74135.543   -17174.351    1316.6407   -18490.992    101.61509    248.70815 
   32600    95.180317   -603.60134    74157.837   -17183.455    1286.9287   -18470.384    101.36626    243.09567 
   32650    93.521618   -836.81415    74178.592   -17198.744    1264.5015   -18463.246    101.47456    238.85927 
   32700    92.280521   -948.70549    74168.534   -17232.282    1247.7207   -18480.003    101.65098    235.68944 
   32750    95.042566    -838.8863    74135.955   -17210.945    1285.0662   -18496.011    101.62201    242.74385 
   32800    95.506205   -1243.6363    74082.352   -17186.109     1291.335   -18477.444    101.55982    243.92801 
   32850     92.18082   -1158.3511    74019.916   -17242.642    1246.3727   -18489.015    101.59425     235.4348 
   32900    94.270291   -884.89711    73983.591   -17223.423    1274.6243   -18498.047    101.58976    240.77142 
   32950    93.264865   -823.42492    73931.993   -17264.458      1261.03   -18525.488    101.79091    238.20351 
   33000    94.995626   -951.49585    73911.008   -17236.241    1284.4315   -18520.672    101.82224    242.62396 
   33050    96.745359   -937.91029    73851.174   -17262.752    1308.0896   -18570.842    102.08381    247.09288 
   33100    94.828293   -749.44052    73837.447   -17252.777     1282.169   -18534.946    102.39722    242.19659 
   33150    90.580515   -1030.7579    73893.569   -17245.291     1224.735   -18470.026    102.76212    231.34753 
   33200     91.94516   -779.32571    73875.208   -17275.246    1243.1863   -18518.433    103.21411    234.83291 
   33250    93.284356   -1014.0455    73911.638   -17295.445    1261.2935   -18556.738     103.5657    238.25329 
   33300    93.264035   -1176.1592    73893.902   -17295.944    1261.0188   -18556.963    103.45644    238.20139 
   33350    90.502147    -1036.745      73902.6   -17278.088    1223.6754   -18501.764    103.44969    231.14737 
   33400    92.416021     -1083.05    73812.537   -17266.452    1249.5528   -18516.004    103.74926    236.03551 
   33450    92.969352   -904.69415    73819.438   -17261.964    1257.0344   -18518.999      103.849    237.44875 
   33500    94.528163   -1173.9889    73810.246   -17262.405     1278.111   -18540.516     103.9543    241.43004 
   33550    91.033835   -904.57038     73762.39   -17279.072    1230.8643   -18509.936    104.26186    232.50534 
   33600    92.791018   -1093.2099    73666.693   -17273.501    1254.6231   -18528.124    103.97066    236.99328 
   33650     93.26641   -806.05837    73664.105   -17277.962    1261.0509   -18539.013     104.4557    238.20745 
   33700    93.499365   -868.68803    73670.686    -17314.29    1264.2006   -18578.491    104.78834    238.80243 
   33750    92.677854   -644.85522    73697.824   -17274.897     1253.093    -18527.99     104.9664    236.70425 
   33800     95.57835   -1173.8923    73703.494   -17238.771    1292.3105   -18531.081    105.25242    244.11227 
   33850    94.185163   -903.59454    73692.989   -17253.723    1273.4733   -18527.196    105.56036      240.554 
   33900    92.565764   -1123.6358    73620.565   -17252.023    1251.5775   -18503.601    105.76582    236.41796 
   33950     94.53136   -765.32101    73630.685   -17259.035    1278.1542   -18537.189    105.85517     241.4382 
[...]
   92000    90.680194   -837.07397    73911.521   -17310.155    1226.0828   -18536.238    267.01516    231.60212 
   92050    92.604068    -777.0693     73957.41    -17285.44    1252.0954   -18537.535    267.23108     236.5158 
   92100    93.289666   -766.12016    73968.709   -17243.478    1261.3653   -18504.843    267.57136    238.26685 
   92150    94.258249   -776.82884    73987.092     -17213.5    1274.4615   -18487.961    268.40981    240.74066 
   92200    96.298989    -728.6113    73977.889   -17210.573    1302.0542   -18512.627    267.85338    245.95282 
   92250      92.2336   -1009.5943    74007.553   -17183.082    1247.0863   -18430.168    267.82877     235.5696 
   92300    94.818431   -1065.8571    73998.055   -17173.508    1282.0357   -18455.544    267.99841     242.1714 
   92350    93.816093   -1202.8067    73999.428   -17133.119    1268.4831   -18401.602    268.14699    239.61137 
   92400    97.195434   -946.60971    73939.594    -17137.46     1314.175   -18451.635    268.23763    248.24239 
   92450    98.018577   -1005.3994      73940.9   -17124.841    1325.3047   -18450.146     268.2182    250.34474 
   92500    95.862514   -1150.5707    73904.194   -17170.444    1296.1527   -18466.596     268.2444    244.83804 
   92550    93.709467    -901.6136    73903.128   -17196.244    1267.0414   -18463.285    268.78518    239.33904 
   92600    93.288563   -1197.9438    73904.862   -17174.056    1261.3504   -18435.406    268.28976    238.26403 
   92650    95.178926   -1157.1702     73773.17   -17167.744    1286.9099   -18454.654      268.439    243.09212 
   92700    97.221245   -1018.8084    73677.213    -17139.35     1314.524   -18453.874    268.58153    248.30832 
   92750    95.624118   -1100.5159    73677.905   -17138.428    1292.9293   -18431.357    268.89426    244.22917 
   92800    96.863692    -791.1559    73739.308   -17123.779    1309.6896   -18433.468    268.93894    247.39511 
   92850    95.426687    -1069.343    73718.608   -17141.396    1290.2599   -18431.655     269.9963    243.72492 
   92900    96.156734   -960.38175    73673.797   -17168.127    1300.1308   -18468.257     269.4817     245.5895 
   92950    96.174077   -862.09161    73636.315   -17164.811    1300.3653   -18465.176    269.80778    245.63379 
   93000    93.865957   -771.16739    73612.515   -17170.627    1269.1573   -18439.784    269.66473    239.73873 
   93050    93.089504   -613.38395    73581.152   -17174.186    1258.6589   -18432.845    269.64274    237.75563 
   93100    92.913286    -1057.599    73571.964   -17165.524    1256.2763     -18421.8    270.19218    237.30556 
   93150    93.924332   -638.52565    73537.219   -17196.662    1269.9466   -18466.609    269.76779    239.88782 
   93200    95.333618   -922.54893    73531.658   -17189.638    1289.0015    -18478.64    270.46086    243.48721 
   93250    92.009727    -805.7314    73526.779    -17268.93    1244.0593    -18512.99    269.88238    234.99782 
   93300    91.471516   -695.10574    73512.219   -17262.693    1236.7822   -18499.475    269.81826     233.6232 
   93350    91.919318   -558.93947     73605.07   -17237.202    1242.8369   -18480.038    269.48434    234.76691 
   93400    94.480731   -924.84536    73692.631   -17202.149    1277.4697   -18479.619    269.55119     241.3089 
   93450    94.117165   -851.05505    73661.544   -17198.087    1272.5539   -18470.641    269.56062    240.38033 
   93500    96.482129   -899.26862    73680.128    -17197.28    1304.5305   -18501.811    270.02991    246.42057 
   93550    96.744403   -1089.3089    73645.011   -17167.799    1308.0767   -18475.876    270.21433    247.09044 
   93600    96.001021   -673.44553    73626.335   -17169.658    1298.0254   -18467.683    270.17208     245.1918 
   93650    94.573038   -1028.3013    73642.231   -17204.492    1278.7177    -18483.21    270.83296    241.54465 
   93700    94.734775   -1335.5049    73658.292   -17228.567    1280.9046   -18509.472    270.73469    241.95774 
   93750     96.14422    -942.4459    73645.103   -17235.904    1299.9616   -18535.866    270.15087    245.55754 
   93800    94.494842    -1007.118    73604.051   -17243.866    1277.6604   -18521.527    270.43301    241.34493 
   93850    93.350913   -1112.6992    73537.734   -17252.319    1262.1934   -18514.512    270.90004    238.42328 
   93900    92.961318   -605.30714    73584.615   -17226.443    1256.9257   -18483.369    271.63059    237.42823 
   93950    94.848726   -443.09739    73666.695    -17193.98    1282.4453   -18476.425     272.2081    242.24877 
   94000    96.178455   -1041.5275    73656.764   -17205.224    1300.4245   -18505.648    272.79026    245.64497 
   94050    94.555684   -774.70416    73631.648   -17223.746    1278.4831   -18502.229    272.77616    241.50033 
   94100    92.715281   -926.00612     73682.91   -17235.421    1253.5991    -18489.02    273.01345    236.79984 
   94150    94.026626   -1149.7347     73689.78   -17260.478    1271.3297   -18531.808    273.27907    240.14908 
   94200    93.429833   -948.24761    73638.812   -17265.803    1263.2605   -18529.063    273.41491    238.62484 
   94250    91.965816   -927.32128    73638.374   -17237.395    1243.4656   -18480.861    273.84324    234.88567 
   94300    93.781505   -808.53295    73627.921    -17239.19    1268.0155   -18507.206    273.64907    239.52303 
   94350    94.857588   -891.37856    73665.277    -17185.61    1282.5651   -18468.176    274.07433    242.27141 
   94400    96.683864    -915.7336    73605.244   -17169.331    1307.2581   -18476.589    274.14303    246.93581 
   94450    95.136079   -976.20386    73587.271   -17137.911    1286.3306   -18424.241     274.4184    242.98269 
   94500    94.361528   -1060.4882    73589.175   -17175.217    1275.8579   -18451.075    274.91734    241.00444 
   94550    94.278786   -855.85104    73586.438   -17172.878    1274.7392   -18447.617    274.59763    240.79311 
   94600    96.696656    -1358.756    73566.894   -17190.849    1307.4311   -18498.281    274.66649    246.96849 
   94650    93.738694   -1390.2516    73493.427   -17218.596    1267.4366   -18486.032    275.12365    239.41369 
   94700    92.281446   -840.55367    73462.255   -17215.315    1247.7332   -18463.048    274.75676     235.6918 
   94750    93.697987    -759.1215    73465.501   -17213.985    1266.8862   -18480.871     275.0632    239.30972 
   94800    93.138589   -1023.7645    73427.169   -17206.502    1259.3226   -18465.825    275.10809    237.88099 
   94850    95.925098   -697.55681    73434.349   -17150.722    1296.9989   -18447.721    275.78023    244.99789 
   94900    94.146365    -873.2184    73420.122   -17186.606    1272.9487   -18459.555    276.17707    240.45491 
   94950    94.502437   -938.31251    73457.231    -17194.37    1277.7631   -18472.133    276.11228    241.36433 
   95000    95.006924   -795.48343    73496.539   -17235.617    1284.5843   -18520.201    276.38073    242.65282 
   95050    91.856186   -915.21537    73517.911   -17249.091    1241.9833   -18491.074    276.92096    234.60566 
   95100    91.808082   -513.00278    73578.712   -17239.627    1241.3329    -18480.96    276.75808     234.4828 
   95150    91.397917   -995.60766    73605.204   -17233.567    1235.7871   -18469.354    276.76683    233.43522 
   95200    91.804663   -1364.9752    73588.058   -17240.822    1241.2867   -18482.109    276.09783    234.47407 
   95250    92.744161   -1129.1569    73582.098   -17214.175    1253.9896   -18468.165     275.7416     236.8736 
   95300    90.054993   -783.18502    73522.049   -17251.561    1217.6295   -18469.191    276.17458    230.00532 
   95350    91.443018   -764.74463    73545.175   -17266.769    1236.3969   -18503.165    276.40352    233.55041 
   95400    92.251335   -822.51904    73610.515   -17264.643    1247.3261   -18511.969     276.9276     235.6149 
   95450    90.749017   -798.60825    73615.731   -17291.305    1227.0133   -18518.318    276.87329     231.7779 
   95500    94.216981   -1150.4093    73595.885   -17259.013    1273.9035   -18532.917    276.99615    240.63526 
   95550    92.067251    -963.4074     73589.22   -17255.755    1244.8371   -18500.592    276.70836    235.14474 
   95600    95.410004    -1070.301    73617.033   -17220.277    1290.0343   -18510.311    277.52612    243.68231 
   95650    95.168605   -661.78669    73634.688   -17212.749    1286.7704   -18499.519     277.4653    243.06576 
   95700    96.163382   -1184.1902    73709.712   -17170.525    1300.2207   -18470.746    277.75022    245.60648 
   95750    95.348951   -788.27716    73761.076   -17207.378    1289.2088   -18496.586    277.81725    243.52637 
   95800    95.895152    -1084.736      73811.3   -17185.375     1296.594   -18481.969      277.896     244.9214 
   95850     94.92053   -1072.6422    73799.792    -17219.93    1283.4162   -18503.346    278.29969    242.43216 
   95900    96.359828   -694.79649    73839.954   -17242.732    1302.8768   -18545.609    278.26469    246.10821 
   95950    94.786352   -1160.4866    73841.215   -17204.185    1281.6019   -18485.787    278.54059    242.08947 
   96000     94.15317   -966.67492    73807.337   -17193.639    1273.0407    -18466.68    279.24242    240.47229 
   96050     95.52077   -756.98325      73839.7   -17188.829     1291.532    -18480.36    278.90725    243.96521 
   96100    98.758961   -900.07164    73826.871   -17170.117    1335.3154   -18505.432    279.32433    252.23572 
   96150    93.817593   -643.91723    73813.938   -17185.597    1268.5034   -18454.101    279.41283     239.6152 
   96200    94.628565    -1104.687    73801.051   -17173.023    1279.4685   -18452.491    279.79235    241.68647 
   96250    98.846295   -273.15838    73858.745   -17211.757    1336.4962   -18548.253    279.41584    252.45878 
   96300    96.722897    -667.6567    73966.107   -17187.055    1307.7859   -18494.841    279.98352    247.03551 
   96350    94.292674   -991.24186    74019.124   -17204.076    1274.9269   -18479.003     280.2607    240.82859 
   96400    93.829015   -727.74502    74050.688   -17212.417    1268.6578   -18481.075    280.22764    239.64438 
   96450    91.790637    -904.3193    74042.345   -17222.669     1241.097   -18463.766    280.49533    234.43825 
   96500    92.498254   -1192.5378    73987.462   -17234.976    1250.6647   -18485.641    280.39714    236.24554 
   96550    93.505249   -1119.4499    73927.167   -17241.961    1264.2802   -18506.241    280.67962    238.81746 
   96600    91.124393   -841.17089    73900.122   -17231.946    1232.0888   -18464.034    280.66008    232.73663 
   96650    93.724703   -1027.4704    73850.829   -17230.638    1267.2474   -18497.885    281.06529    239.37796 
   96700    93.499143   -919.29994    73866.764   -17252.343    1264.1977   -18516.541    281.39695    238.80187 
   96750    92.999894   -908.91366    73832.152   -17262.262    1257.4473   -18519.709    281.80857    237.52676 
   96800     96.06922   -879.65853     73832.22   -17197.146    1298.9475   -18496.093    281.78102    245.36598 
   96850    94.129633   -715.22058    73803.454   -17225.825    1272.7225   -18498.547    281.75108    240.41217 
   96900     93.58814   -962.61799    73755.048   -17223.791     1265.401   -18489.192    282.26711    239.02917 
   96950    91.321318    -764.1993    73714.952    -17214.79    1234.7514   -18449.542    282.00895    233.23958 
   97000     92.21899   -861.92234     73733.18   -17191.573    1246.8888   -18438.462    282.15988    235.53229 
   97050    91.922076   -1056.3835    73629.078   -17217.192    1242.8742   -18460.066    282.56501    234.77395 
   97100    95.473493   -921.52717     73583.51   -17200.412    1290.8927   -18491.305    282.15247    243.84446 
   97150    94.177494   -803.39508    73550.204   -17189.085    1273.3696   -18462.455    281.48248    240.53441 
   97200    93.168032   -926.54594    73465.997   -17156.815    1259.7207   -18416.536     282.4071    237.95619 
   97250    93.637706   -794.77236     73448.13   -17172.637    1266.0711   -18438.709    282.85034    239.15576 
   97300    93.034179   -1040.9603     73399.78   -17178.007    1257.9109   -18435.918    282.57884    237.61432 
   97350    93.602518   -1063.9413    73374.053   -17192.756    1265.5954   -18458.351    283.40275    239.06589 
   97400    95.647329   -886.12803    73344.601   -17171.072    1293.2432   -18464.315    283.18968    244.28845 
   97450    91.754592   -854.22668    73365.552    -17189.82    1240.6097    -18430.43    283.28138    234.34619 
   97500    94.389118   -915.02584    73357.199   -17212.283     1276.231   -18488.514    283.47794    241.07491 
   97550    91.002801   -946.42418    73338.778   -17284.482    1230.4447   -18514.927    283.50464    232.42607 
   97600    96.475312   -683.41252    73353.834   -17240.348    1304.4383   -18544.786    283.48287    246.40316 
   97650    92.259983   -616.57231    73384.966    -17228.68     1247.443   -18476.124    283.06014    235.63698 
   97700     95.59687   -507.61235    73437.027   -17186.532    1292.5609   -18479.092    282.78362    244.15957 
   97750    95.290517   -968.97937    73481.455   -17225.039    1288.4187   -18513.458    282.84086    243.37713 
   97800    91.945533   -738.42208    73566.463   -17259.668    1243.1914   -18502.859    283.23977    234.83386 
   97850    93.907073   -1018.0364    73589.992   -17238.731    1269.7133   -18508.444    284.38583    239.84374 
   97900    93.242405   -721.96011    73604.993    -17217.26    1260.7263   -18477.986    283.97407    238.14614 
   97950    95.865209   -1042.4928    73568.045   -17218.959    1296.1891   -18515.148    284.69661    244.84493 
   98000    93.059449   -1026.4627    73622.294   -17226.574    1258.2526   -18484.827     285.2383    237.67886 
   98050    93.471951   -703.22807        73603   -17213.053      1263.83   -18476.883    285.37575    238.73242 
   98100    93.775353   -779.46049    73569.831   -17209.708    1267.9323    -18477.64    285.67655    239.50732 
   98150    94.152555   -850.23748    73580.463   -17197.061    1273.0324   -18470.093    286.26241    240.47072 
   98200    94.614215   -1259.1413    73590.853   -17193.645    1279.2745   -18472.919    286.60616    241.64982 
   98250    95.381225   -951.83209    73558.048   -17176.161    1289.6452   -18465.806    286.87869    243.60881 
   98300    94.802863    -1294.665    73511.402   -17177.565    1281.8252    -18459.39    287.26357    242.13164 
   98350    92.307769   -1047.1461    73431.858   -17180.245    1248.0891   -18428.334     287.3683    235.75903 
   98400    94.608294   -978.90189    73439.345   -17172.011    1279.1944   -18451.206    287.69271     241.6347 
   98450    95.568946   -602.52804    73500.835   -17170.448    1292.1834   -18462.631    287.22677    244.08825 
   98500    93.094491   -801.67442    73540.566   -17165.995    1258.7264   -18424.721    287.11311    237.76836 
   98550     92.19801   -1580.9232    73488.934   -17195.632    1246.6051   -18442.237    287.61244     235.4787 
   98600    93.937988   -952.26289    73476.863   -17159.815    1270.1313   -18429.946    286.95567     239.9227 
   98650     95.63635   -956.82815    73423.748   -17177.141    1293.0947   -18470.236    286.59092    244.26041 
   98700    92.984902   -920.82252    73365.181   -17171.938    1257.2446   -18429.183    286.43526    237.48847 
   98750    95.422702   -1044.6473    73376.657   -17143.228     1290.206   -18433.434    287.33865    243.71474 
   98800    96.975345   -835.43816    73386.142   -17106.341    1311.1992    -18417.54    287.68392    247.68027 
   98850    94.646151   -1405.2528    73285.918   -17169.525    1279.7063   -18449.231    288.16192    241.73139 
   98900     93.76061   -1125.3279    73210.995   -17180.429    1267.7329   -18448.162    288.70971    239.46967 
   98950    94.561615   -1069.4259    73208.364   -17191.776    1278.5633   -18470.339    289.33059    241.51548 
   99000     94.04174   -602.26879    73247.959   -17200.876    1271.5341    -18472.41    289.30175    240.18769 
   99050    92.899582   -896.88099     73290.11   -17185.412     1256.091   -18441.503    289.04806    237.27055 
   99100    96.592497   -533.23373    73312.789   -17171.248    1306.0227    -18477.27    288.73694    246.70246 
   99150    92.818195   -581.23103    73375.301   -17199.803    1254.9906   -18454.793    289.50117    237.06269 
   99200    93.704791   -472.92534    73449.033   -17184.449    1266.9782   -18451.427    289.49175     239.3271 
   99250    93.397716    -1000.578    73454.148   -17177.815    1262.8263   -18440.641    288.96784    238.54282 
   99300    91.329728   -946.97654    73430.816    -17206.84    1234.8651   -18441.705    289.38133    233.26106 
   99350    94.373286   -732.09982    73457.804   -17194.096    1276.0169   -18470.112    289.10736    241.03447 
   99400    88.322914    -865.8596    73488.436   -17225.218    1194.2101   -18419.428    289.52964     225.5815 
   99450     93.66397   -547.76274    73527.412   -17219.017    1266.4263   -18485.443    290.16014    239.22284 
   99500    93.566384   -663.00466     73572.32   -17189.891    1265.1068   -18454.998    289.56577     238.9736 
   99550    94.638513   -736.01877    73572.951   -17156.019     1279.603   -18435.622    289.59663    241.71188 
   99600     94.51744   -1129.0572    73634.513   -17190.083     1277.966   -18468.049    288.90693    241.40265 
   99650    94.866962    -1037.379    73617.404   -17178.449    1282.6919   -18461.141    288.64127    242.29535 
   99700    95.198136   -1308.0893    73555.731   -17158.151    1287.1696    -18445.32    288.34839    243.14118 
   99750    93.902244   -728.15128    73520.232   -17196.363     1269.648   -18466.011    287.67136    239.83141 
   99800    93.001471   -1289.3532    73462.329   -17218.377    1257.4686   -18475.846    288.07461    237.53078 
   99850    93.314657   -988.39683    73456.395   -17205.947    1261.7032    -18467.65     288.3058    238.33068 
   99900    93.046228   -1039.4132    73428.457   -17182.123    1258.0738   -18440.197    288.65832     237.6451 
   99950    94.041891   -737.08083    73485.849   -17198.031    1271.5361   -18469.567     288.5774    240.18807 
  100000    93.321616   -713.62231     73511.07   -17184.673    1261.7973    -18446.47    288.34035    238.34845 
Loop time of 67.5151 on 64 procs for 100000 steps with 4537 atoms

Performance: 639.857 ns/day, 0.038 hours/ns, 1481.150 timesteps/s
100.0% CPU use with 64 MPI tasks x no OpenMP threads

MPI task timing breakdown:
Section |  min time  |  avg time  |  max time  |%varavg| %total
---------------------------------------------------------------
Pair    | 9.5629     | 30.377     | 44.58      | 249.0 | 44.99
Neigh   | 0.49956    | 1.4237     | 3.9453     | 112.5 |  2.11
Comm    | 14.866     | 27.98      | 48.595     | 256.2 | 41.44
Output  | 0.1213     | 0.12385    | 0.13446    |   0.4 |  0.18
Modify  | 4.542      | 6.7995     | 8.3548     |  49.1 | 10.07
Other   |            | 0.8109     |            |       |  1.20

Nlocal:    70.8906 ave 183 max 29 min
Histogram: 45 3 0 0 0 0 0 0 4 12
Nghost:    769.656 ave 1022 max 412 min
Histogram: 16 0 0 0 0 3 13 16 0 16
Neighs:    0 ave 0 max 0 min
Histogram: 64 0 0 0 0 0 0 0 0 0
FullNghs:  7254.06 ave 24257 max 1155 min
Histogram: 48 0 0 0 0 0 0 0 2 14

Total # of neighbors = 464260
Ave neighs/atom = 102.328
Neighbor list builds = 5643
Dangerous builds = 0

write_data		${DIR}/data.eq-${NAME}-${TEMP}
write_data		run_6/data.eq-${NAME}-${TEMP}
write_data		run_6/data.eq-het_freeze_6-${TEMP}
write_data		run_6/data.eq-het_freeze_6-240
undump          1

reset_timestep  0

unfix           2
unfix           3
unfix           4


################################################
#######         Run Simulation         #########
################################################

log				${DIR}/log.run_${NAME}
log				run_6/log.run_${NAME}
log				run_6/log.run_het_freeze_6
