LAMMPS data file via write_data, version 29 Sep 2021, timestep = 100000

4065 atoms
2 atom types

0 49.22 xlo xhi
0 49.019635930410494 ylo yhi
1.9359299161410437 25.904902330143024 zlo zhi

Masses

1 18.015
2 12.01

Atoms # atomic

83 2 0 2.8417180249513345 3.379707400330485 0 0 0
85 2 0 0 3.379707400330485 0 0 0
87 2 1.2305000000000001 0.7104295062378347 3.379707400330485 0 0 0
94 2 1.2305000000000001 2.1312885187135 3.379707400330485 0 0 0
96 2 2.4610000000000003 2.8417180249513345 3.379707400330485 0 0 0
98 2 2.4610000000000003 0 3.379707400330485 0 0 0
100 2 3.6915000000000004 0.7104295062378347 3.379707400330485 0 0 0
115 2 3.6914999999999996 2.1312885187135 3.379707400330485 0 0 0
117 2 4.922000000000001 2.841718024951333 3.379707400330485 0 0 0
119 2 4.922000000000001 0 3.379707400330485 0 0 0
90 2 0 4.262577037427 3.379707400330485 0 0 0
111 2 2.4610000000000003 4.262577037427 3.379707400330485 0 0 0
140 2 4.922000000000001 4.262577037426998 3.379707400330485 0 0 0
92 2 1.2305000000000001 4.973006543664834 3.379707400330485 0 0 0
107 2 1.2305000000000001 6.393865556140498 3.379707400330485 0 0 0
113 2 3.6914999999999996 4.973006543664834 3.379707400330485 0 0 0
136 2 3.6914999999999996 6.393865556140498 3.379707400330485 0 0 0
88 2 0 7.104295062378334 3.379707400330485 0 0 0
103 2 0 8.525154074854 3.379707400330485 0 0 0
105 2 1.2305000000000001 9.235583581091834 3.379707400330485 0 0 0
109 2 2.4610000000000003 7.104295062378334 3.379707400330485 0 0 0
132 2 2.4610000000000003 8.525154074854 3.379707400330485 0 0 0
134 2 3.6915000000000004 9.235583581091834 3.379707400330485 0 0 0
138 2 4.922000000000001 7.104295062378334 3.379707400330485 0 0 0
169 2 4.922000000000001 8.525154074854 3.379707400330485 0 0 0
84 2 0 1.420859012475665 6.267262368709398 0 0 0
86 2 0 0 6.267262368709398 0 0 0
95 2 1.2305000000000001 2.1312885187135 6.267262368709398 0 0 0
97 2 2.4610000000000003 1.420859012475665 6.267262368709398 0 0 0
99 2 2.4610000000000003 0 6.267262368709398 0 0 0
412 2 0 2.8417180249513345 9.1548173370875 0 0 0
413 2 0 0 9.1548173370875 0 0 0
414 2 1.2305000000000001 0.7104295062378347 9.1548173370875 0 0 0
418 2 1.2305000000000001 2.1312885187135 9.1548173370875 0 0 0
419 2 2.4610000000000003 2.8417180249513345 9.1548173370875 0 0 0
420 2 2.4610000000000003 0 9.1548173370875 0 0 0
116 2 3.6914999999999996 2.1312885187135 6.267262368709398 0 0 0
118 2 4.922000000000001 1.420859012475665 6.267262368709398 0 0 0
120 2 4.922000000000001 0 6.267262368709398 0 0 0
421 2 3.6915000000000004 0.7104295062378347 9.1548173370875 0 0 0
429 2 3.6914999999999996 2.1312885187135 9.1548173370875 0 0 0
430 2 4.922000000000001 2.841718024951333 9.1548173370875 0 0 0
431 2 4.922000000000001 0 9.1548173370875 0 0 0
91 2 0 4.262577037427 6.267262368709398 0 0 0
93 2 1.2305000000000001 3.5521475311891644 6.267262368709398 0 0 0
112 2 2.4610000000000003 4.262577037427 6.267262368709398 0 0 0
416 2 0 4.262577037427 9.1548173370875 0 0 0
427 2 2.4610000000000003 4.262577037427 9.1548173370875 0 0 0
114 2 3.6914999999999996 3.5521475311891644 6.267262368709398 0 0 0
141 2 4.922000000000001 4.262577037426998 6.267262368709398 0 0 0
442 2 4.922000000000001 4.262577037426998 9.1548173370875 0 0 0
89 2 0 5.683436049902664 6.267262368709398 0 0 0
108 2 1.2305000000000001 6.393865556140498 6.267262368709398 0 0 0
110 2 2.4610000000000003 5.683436049902664 6.267262368709398 0 0 0
417 2 1.2305000000000001 4.973006543664834 9.1548173370875 0 0 0
425 2 1.2305000000000001 6.393865556140498 9.1548173370875 0 0 0
137 2 3.6914999999999996 6.393865556140498 6.267262368709398 0 0 0
139 2 4.922000000000001 5.683436049902664 6.267262368709398 0 0 0
428 2 3.6914999999999996 4.973006543664834 9.1548173370875 0 0 0
440 2 3.6914999999999996 6.393865556140498 9.1548173370875 0 0 0
104 2 0 8.525154074854 6.267262368709398 0 0 0
106 2 1.2305000000000001 7.814724568616164 6.267262368709398 0 0 0
133 2 2.4610000000000003 8.525154074854 6.267262368709398 0 0 0
415 2 0 7.104295062378334 9.1548173370875 0 0 0
423 2 0 8.525154074854 9.1548173370875 0 0 0
424 2 1.2305000000000001 9.235583581091834 9.1548173370875 0 0 0
426 2 2.4610000000000003 7.104295062378334 9.1548173370875 0 0 0
438 2 2.4610000000000003 8.525154074854 9.1548173370875 0 0 0
135 2 3.6914999999999996 7.814724568616164 6.267262368709398 0 0 0
170 2 4.922000000000001 8.525154074854 6.267262368709398 0 0 0
439 2 3.6915000000000004 9.235583581091834 9.1548173370875 0 0 0
441 2 4.922000000000001 7.104295062378334 9.1548173370875 0 0 0
457 2 4.922000000000001 8.525154074854 9.1548173370875 0 0 0
2820 1 2.0419495232932516 6.412445681167674 12.208941974240519 1 0 1
811 1 4.918464535648348 1.2150631298405261 11.608621494561115 1 1 0
3016 1 2.8141444674752982 3.4205700059466917 12.039637541511743 0 0 -1
790 1 4.428018896099525 8.230807510915026 11.929816624113418 1 0 0
828 1 5.2061003597296605 5.2014176456081325 12.033243506007365 0 1 -1
2054 1 0.0967660305457299 2.4372113947635343 11.751916190437868 0 1 1
3938 1 4.175416719854683 0.024305730568203014 17.007909298118037 1 0 -1
929 1 0.963470575822105 4.531723960702703 16.155223064630544 1 -1 0
3811 1 4.635073372572522 3.7735220845231456 19.99026826909696 0 0 0
9 1 0.17812803243266012 3.593142539374126 24.674279290880847 1 1 1
931 1 2.531428566879088 1.9877629764255484 17.877396372449432 1 1 -1
949 1 6.0364136354207325 1.9261388012719691 14.657572504718146 1 0 0
1833 1 1.3940239863307342 7.131724888089132 15.061148207565761 0 2 0
1059 1 4.415971986566396 8.112802197917897 14.63747622536277 0 1 0
2845 1 3.7235441785848438 7.426590503541398 17.74993544107481 1 1 0
1958 1 0.10366118689394997 1.023923170726748 20.361131184763032 0 0 0
977 1 3.0213352228225077 2.748030085037198 14.778210100068927 0 0 -1
816 1 0.7128780639015295 4.342942141658386 20.689615303943988 0 0 0
2978 1 5.414151616009759 8.755641544017752 24.632536196955385 1 0 0
3101 1 3.579226089390442 7.81575680526017 20.523011299452094 1 0 0
1903 1 1.3992796317290659 6.772484177024155 21.888816796201162 1 -1 -2
31 1 2.94259512349854 2.298719934911381 21.140533157709257 1 0 0
3908 1 5.533665866611755 5.0029796533754185 14.802889531530571 1 1 1
888 1 3.7050047195986697 4.943699225212154 17.077408302201462 0 2 0
926 1 4.227592862869734 5.554099377917004 24.551479478918864 0 -1 -1
1971 1 2.328689974937927 7.658861485664841 24.372234493205298 0 -1 0
947 1 3.7241718048872223 0.46382007569596817 24.951520792327017 1 0 -1
3143 1 2.908881428661513 3.022635852379382 24.202985793360675 1 1 1
857 1 4.951425216371234 5.687072704882959 22.059649761271324 0 1 0
3859 1 5.067984100578398 0.44294313018213416 22.21107035312454 0 0 1
1923 1 6.151015215941504 7.6245400445833456 17.589632698153714 0 -1 0
101 2 0 11.366872099805333 3.379707400330485 0 0 0
124 2 0 12.787731112280996 3.379707400330485 0 0 0
126 2 1.2305000000000001 13.49816061851883 3.379707400330485 0 0 0
128 2 1.2305000000000001 10.656442593567498 3.379707400330485 0 0 0
130 2 2.4610000000000003 11.366872099805333 3.379707400330485 0 0 0
161 2 2.4610000000000003 12.787731112280996 3.379707400330485 0 0 0
163 2 3.6915000000000004 13.49816061851883 3.379707400330485 0 0 0
165 2 3.6914999999999996 10.6564425935675 3.379707400330485 0 0 0
167 2 4.922000000000001 11.366872099805333 3.379707400330485 0 0 0
206 2 4.922000000000001 12.787731112280996 3.379707400330485 0 0 0
208 2 6.152499999999999 13.49816061851883 3.379707400330485 0 0 0
122 2 0 15.629449137232333 3.379707400330485 0 0 0
153 2 0 17.050308149708 3.379707400330485 0 0 0
157 2 1.2305000000000001 14.919019630994494 3.379707400330485 0 0 0
159 2 2.4610000000000003 15.629449137232328 3.379707400330485 0 0 0
198 2 2.4610000000000003 17.050308149708 3.379707400330485 0 0 0
202 2 3.6915000000000004 14.919019630994494 3.379707400330485 0 0 0
204 2 4.922000000000001 15.629449137232333 3.379707400330485 0 0 0
245 2 4.922000000000001 17.050308149708 3.379707400330485 0 0 0
249 2 6.152499999999999 14.919019630994494 3.379707400330485 0 0 0
155 2 1.2305000000000001 17.76073765594583 3.379707400330485 0 0 0
194 2 1.2305000000000001 19.181596668421495 3.379707400330485 0 0 0
200 2 3.6914999999999996 17.76073765594583 3.379707400330485 0 0 0
241 2 3.6914999999999996 19.181596668421495 3.379707400330485 0 0 0
102 2 0 9.946013087329664 6.267262368709398 0 0 0
131 2 2.4610000000000003 9.946013087329664 6.267262368709398 0 0 0
168 2 4.922000000000001 9.946013087329664 6.267262368709398 0 0 0
125 2 0 12.787731112280996 6.267262368709398 0 0 0
127 2 1.2305000000000001 12.077301606043163 6.267262368709398 0 0 0
129 2 1.2305000000000001 10.656442593567498 6.267262368709398 0 0 0
162 2 2.4610000000000003 12.787731112280996 6.267262368709398 0 0 0
422 2 0 11.366872099805333 9.1548173370875 0 0 0
434 2 0 12.787731112280996 9.1548173370875 0 0 0
435 2 1.2305000000000001 13.49816061851883 9.1548173370875 0 0 0
436 2 1.2305000000000001 10.656442593567498 9.1548173370875 0 0 0
437 2 2.4610000000000003 11.366872099805333 9.1548173370875 0 0 0
453 2 2.4610000000000003 12.787731112280996 9.1548173370875 0 0 0
164 2 3.6914999999999996 12.077301606043163 6.267262368709398 0 0 0
166 2 3.6914999999999996 10.6564425935675 6.267262368709398 0 0 0
207 2 4.922000000000001 12.787731112280996 6.267262368709398 0 0 0
454 2 3.6915000000000004 13.49816061851883 9.1548173370875 0 0 0
455 2 3.6914999999999996 10.6564425935675 9.1548173370875 0 0 0
456 2 4.922000000000001 11.366872099805333 9.1548173370875 0 0 0
476 2 4.922000000000001 12.787731112280996 9.1548173370875 0 0 0
477 2 6.152499999999999 13.49816061851883 9.1548173370875 0 0 0
123 2 0 14.208590124756663 6.267262368709398 0 0 0
160 2 2.4610000000000003 14.208590124756663 6.267262368709398 0 0 0
205 2 4.922000000000001 14.208590124756663 6.267262368709398 0 0 0
154 2 0 17.050308149708 6.267262368709398 0 0 0
156 2 1.2305000000000001 16.339878643470165 6.267262368709398 0 0 0
158 2 1.2305000000000001 14.919019630994494 6.267262368709398 0 0 0
199 2 2.4610000000000003 17.050308149708 6.267262368709398 0 0 0
433 2 0 15.629449137232333 9.1548173370875 0 0 0
449 2 0 17.050308149708 9.1548173370875 0 0 0
451 2 1.2305000000000001 14.919019630994494 9.1548173370875 0 0 0
452 2 2.4610000000000003 15.629449137232328 9.1548173370875 0 0 0
472 2 2.4610000000000003 17.050308149708 9.1548173370875 0 0 0
201 2 3.6915000000000004 16.339878643470165 6.267262368709398 0 0 0
203 2 3.6915000000000004 14.919019630994494 6.267262368709398 0 0 0
246 2 4.922000000000001 17.050308149708 6.267262368709398 0 0 0
250 2 6.152499999999999 14.919019630994494 6.267262368709398 0 0 0
474 2 3.6915000000000004 14.919019630994494 9.1548173370875 0 0 0
475 2 4.922000000000001 15.629449137232333 9.1548173370875 0 0 0
496 2 4.922000000000001 17.050308149708 9.1548173370875 0 0 0
498 2 6.152499999999999 14.919019630994494 9.1548173370875 0 0 0
152 2 0 18.471167162183658 6.267262368709398 0 0 0
195 2 1.2305000000000001 19.181596668421495 6.267262368709398 0 0 0
197 2 2.4610000000000003 18.471167162183658 6.267262368709398 0 0 0
450 2 1.2305000000000001 17.76073765594583 9.1548173370875 0 0 0
470 2 1.2305000000000001 19.181596668421495 9.1548173370875 0 0 0
242 2 3.6914999999999996 19.181596668421495 6.267262368709398 0 0 0
244 2 4.922000000000001 18.471167162183658 6.267262368709398 0 0 0
473 2 3.6914999999999996 17.76073765594583 9.1548173370875 0 0 0
494 2 3.6914999999999996 19.181596668421495 9.1548173370875 0 0 0
1962 1 4.213968018230883 15.523216206294464 11.5926650431211 -1 -1 0
2953 1 1.4875081769692544 13.341445641286654 12.538834567276549 0 -1 0
2848 1 1.4271227373729607 15.895101714891144 11.318587551955277 0 -1 2
3893 1 1.3697085837128182 18.52104420078898 12.232699627674675 1 0 -1
3867 1 4.7618422010811114 18.271301974906578 11.878719182657523 1 -1 -1
1028 1 3.705183374536425 11.14594814143024 11.973803685900561 0 1 0
1870 1 0.7810375209351533 10.450723708181926 12.168060750038284 1 1 0
956 1 5.889350819516978 13.140294427294306 11.96053831689571 -1 0 0
809 1 4.681559750916041 13.200727191223567 24.697890952836538 1 0 1
907 1 5.584702425128143 15.031403206108722 14.41441076897761 0 2 0
4033 1 1.0031407459473132 16.150211273505622 21.900119233558634 1 0 0
4056 1 3.1440849644367255 14.12247642054331 15.488455783700157 0 1 -1
2891 1 4.254512192561231 9.896357928740938 22.460827707861625 1 0 0
1910 1 2.0644577717807393 16.185499463017166 16.80976342505525 0 -1 0
2028 1 1.5018454930560492 18.228694904668732 14.950227138945086 1 0 1
4053 1 0.5395409420465487 9.965711926573046 18.86027417991835 1 0 0
855 1 3.9919249164756576 12.388636247556745 17.739699353160567 0 0 0
2060 1 2.6027751231392457 10.000116712756434 16.482479896114533 0 0 1
3894 1 1.7802972807309345 13.547054110096905 21.891799012135102 0 0 -1
3056 1 5.090310818837309 10.989461162288627 14.871316322811673 0 0 -1
3053 1 4.2463009810609655 17.59607428473875 14.409268148139958 2 1 -1
853 1 3.5391384942688706 16.486225382417633 20.40045356439503 0 1 0
2985 1 2.000266489548055 13.890553523760632 19.085346331533927 0 -1 0
950 1 5.657756629173095 14.7313370485995 20.700251805926086 1 0 0
3834 1 0.11591863187748054 11.434646255457682 21.852122308227614 1 0 0
1025 1 4.207494212427496 12.666280966101109 22.131883484533354 0 0 1
2035 1 1.9616293124384563 13.173492446548403 25.142192588330843 0 0 0
3079 1 1.6283610536511834 10.60628825884412 23.918015976862385 -1 1 0
864 1 4.162109435993002 17.90478436422608 18.10057314148618 0 1 -1
2022 1 5.25326231150598 15.920735345407936 24.400415305326682 1 1 0
2951 1 3.1340832555692577 17.595615207242005 24.974666624023854 0 0 0
3829 1 0.9247849218157618 16.052893377705995 24.696935395308344 0 1 0
1912 1 3.8414931265928316 18.48182678160266 22.53451631241679 0 0 -1
4029 1 0.5063431656093476 10.386653195244625 14.744825672312155 1 1 1
1930 1 0.2700187228270943 13.241567624551656 15.25179293696656 1 1 -1
1939 1 1.4610985323956802 19.46606407004771 18.616096180334957 2 -1 0
151 2 0 19.89202617465933 3.379707400330485 0 0 0
196 2 2.4610000000000003 19.89202617465933 3.379707400330485 0 0 0
243 2 4.922000000000001 19.89202617465933 3.379707400330485 0 0 0
188 2 0 24.154603212086325 3.379707400330485 0 0 0
190 2 0 21.312885187135 3.379707400330485 0 0 0
192 2 1.2304999999999993 22.023314693372832 3.379707400330485 0 0 0
233 2 1.2304999999999993 23.4441737058485 3.379707400330485 0 0 0
235 2 2.4610000000000003 24.154603212086325 3.379707400330485 0 0 0
237 2 2.4610000000000003 21.312885187134995 3.379707400330485 0 0 0
239 2 3.6914999999999996 22.023314693372832 3.379707400330485 0 0 0
280 2 3.6915000000000004 23.4441737058485 3.379707400330485 0 0 0
282 2 4.922000000000001 24.154603212086325 3.379707400330485 0 0 0
284 2 4.922000000000001 21.312885187134995 3.379707400330485 0 0 0
286 2 6.152499999999999 22.023314693372832 3.379707400330485 0 0 0
1130 2 0 25.575462224561992 3.379707400330485 0 0 0
1132 2 1.2305000000000001 26.285891730799833 3.379707400330485 0 0 0
1140 2 1.230500000000001 27.706750743275496 3.379707400330485 0 0 0
1144 2 2.4610000000000003 25.575462224561992 3.379707400330485 0 0 0
1146 2 3.691499999999999 26.285891730799833 3.379707400330485 0 0 0
1162 2 3.6914999999999996 27.706750743275496 3.379707400330485 0 0 0
1166 2 4.922000000000001 25.575462224561992 3.379707400330485 0 0 0
1192 2 6.152499999999999 27.706750743275496 3.379707400330485 0 0 0
1128 2 0 28.417180249513333 3.379707400330485 0 0 0
1142 2 2.4610000000000003 28.417180249513326 3.379707400330485 0 0 0
1164 2 4.922000000000001 28.417180249513336 3.379707400330485 0 0 0
193 2 1.2305000000000001 20.60245568089716 6.267262368709398 0 0 0
448 2 0 19.89202617465933 9.1548173370875 0 0 0
471 2 2.4610000000000003 19.89202617465933 9.1548173370875 0 0 0
240 2 3.6915000000000004 20.60245568089716 6.267262368709398 0 0 0
495 2 4.922000000000001 19.89202617465933 9.1548173370875 0 0 0
189 2 0 22.733744199610655 6.267262368709398 0 0 0
191 2 0 21.312885187135 6.267262368709398 0 0 0
234 2 1.2304999999999993 23.4441737058485 6.267262368709398 0 0 0
236 2 2.4610000000000003 22.733744199610655 6.267262368709398 0 0 0
238 2 2.4610000000000003 21.312885187134995 6.267262368709398 0 0 0
467 2 0 24.154603212086325 9.1548173370875 0 0 0
468 2 0 21.312885187135 9.1548173370875 0 0 0
469 2 1.2304999999999993 22.023314693372832 9.1548173370875 0 0 0
490 2 1.2304999999999993 23.4441737058485 9.1548173370875 0 0 0
491 2 2.4610000000000003 24.154603212086325 9.1548173370875 0 0 0
492 2 2.4610000000000003 21.312885187134995 9.1548173370875 0 0 0
281 2 3.6915000000000004 23.4441737058485 6.267262368709398 0 0 0
283 2 4.922000000000001 22.733744199610655 6.267262368709398 0 0 0
285 2 4.922000000000001 21.312885187134995 6.267262368709398 0 0 0
493 2 3.6914999999999996 22.023314693372832 9.1548173370875 0 0 0
514 2 3.6915000000000004 23.4441737058485 9.1548173370875 0 0 0
515 2 4.922000000000001 24.154603212086325 9.1548173370875 0 0 0
516 2 4.922000000000001 21.312885187134995 9.1548173370875 0 0 0
517 2 6.152499999999999 22.023314693372832 9.1548173370875 0 0 0
1129 2 0 26.99632123703766 6.267262368709398 0 0 0
1131 2 0 25.575462224561992 6.267262368709398 0 0 0
1133 2 1.2305000000000001 24.865032718324155 6.267262368709398 0 0 0
1141 2 1.230500000000001 27.706750743275496 6.267262368709398 0 0 0
1143 2 2.4610000000000003 26.99632123703766 6.267262368709398 0 0 0
1145 2 2.4610000000000003 25.575462224561992 6.267262368709398 0 0 0
1444 2 0 25.575462224561992 9.1548173370875 0 0 0
1445 2 1.2305000000000001 26.285891730799833 9.1548173370875 0 0 0
1449 2 1.230500000000001 27.706750743275496 9.1548173370875 0 0 0
1451 2 2.4610000000000003 25.575462224561992 9.1548173370875 0 0 0
1147 2 3.6914999999999996 24.865032718324166 6.267262368709398 0 0 0
1163 2 3.6914999999999996 27.706750743275496 6.267262368709398 0 0 0
1165 2 4.922000000000001 26.99632123703766 6.267262368709398 0 0 0
1167 2 4.922000000000001 25.575462224561992 6.267262368709398 0 0 0
1169 2 6.152499999999999 24.865032718324155 6.267262368709398 0 0 0
1193 2 6.152499999999999 27.706750743275496 6.267262368709398 0 0 0
1452 2 3.691499999999999 26.285891730799833 9.1548173370875 0 0 0
1460 2 3.6914999999999996 27.706750743275496 9.1548173370875 0 0 0
1462 2 4.922000000000001 25.575462224561992 9.1548173370875 0 0 0
1475 2 6.152499999999999 27.706750743275496 9.1548173370875 0 0 0
1139 2 1.2304999999999993 29.127609755751163 6.267262368709398 0 0 0
1443 2 0 28.417180249513333 9.1548173370875 0 0 0
1450 2 2.4610000000000003 28.417180249513326 9.1548173370875 0 0 0
1161 2 3.691499999999999 29.127609755751152 6.267262368709398 0 0 0
1191 2 6.152499999999998 29.127609755751152 6.267262368709398 0 0 0
1461 2 4.922000000000001 28.417180249513336 9.1548173370875 0 0 0
946 1 3.213504982123668 20.723461047080303 11.45329638617102 0 0 -1
4027 1 3.9941067680136464 23.405450997981415 11.807428803111803 0 1 1
2036 1 0.14814801873762837 22.426796116346537 11.547699499717801 0 1 0
3121 1 0.7910992850102645 26.13636434875813 11.926147304432977 0 0 0
2883 1 2.060688575819647 28.814491293808338 11.554308510462079 1 0 0
4028 1 2.545367061917411 24.710685759402224 13.575978407241136 0 0 -1
2869 1 4.504860102595191 21.21324755661738 16.180984251716417 1 0 0
1088 1 2.9196378449983498 26.19493777330759 16.665254267713173 -1 0 0
81 1 1.6287066067638765 20.917371772330284 15.978840974795622 1 -1 0
12 1 1.076732951132215 27.91269832783471 21.837093254405367 1 0 0
984 1 3.599514976690551 29.309922367486614 14.700553408000708 1 -1 -1
80 1 1.3527398457493154 28.687779077285562 16.10444107492144 0 0 0
2111 1 5.360537909163234 27.096158586162186 14.548621452459237 0 0 0
3003 1 3.528492623273916 28.18496362800951 18.471383220885706 0 0 0
782 1 0.8129095683044512 25.479269155902315 18.81721777476612 0 -2 1
873 1 0.6646333699544442 22.9012965312851 18.338990562640973 2 1 -1
1021 1 2.5633498707448634 22.10913591714748 20.423394132777474 0 -1 1
2888 1 4.709291374099752 23.747903950625982 21.8752057633887 0 1 -1
837 1 1.6098489127684734 25.157415401104608 21.586412311346997 0 0 -1
2912 1 3.811981221249595 23.350546025680526 24.752208801840695 2 -1 0
3064 1 4.861914312012627 26.01512868199497 20.365306299720416 0 0 -1
2874 1 4.792804164548814 24.080841941759918 15.984713528936167 1 1 0
4003 1 1.5197436457031321 20.042789296488248 21.906073413101872 1 0 0
4052 1 3.8138788939822756 20.48181538698278 25.1631492114185 0 0 -1
2911 1 0.5978383546359771 20.224350168865968 24.55136225145101 0 1 -1
2949 1 5.869159878656132 29.29528151320814 17.905601490797686 0 2 0
2084 1 2.4520292621445137 25.67425805669025 24.377284201658057 0 -1 0
868 1 3.785356079547861 27.955135896303005 24.925885931801133 0 -1 -1
982 1 4.575031752656244 20.744965723353197 19.012533702691123 0 0 -1
3103 1 4.017997551097797 28.391972321714217 22.050293903235684 0 0 0
2926 1 0.46994124447021507 22.8132733930499 14.287602874422419 0 -1 0
1136 2 0 29.83803926198899 3.379707400330485 0 0 0
1138 2 1.2304999999999993 30.54846876822683 3.379707400330485 0 0 0
1158 2 2.4610000000000003 29.83803926198899 3.379707400330485 0 0 0
1160 2 3.6915000000000004 30.54846876822683 3.379707400330485 0 0 0
1188 2 4.922000000000001 29.83803926198899 3.379707400330485 0 0 0
1134 2 0 32.67975728694033 3.379707400330485 0 0 0
1150 2 0 34.100616299416 3.379707400330485 0 0 0
1154 2 1.2304999999999993 31.969327780702493 3.379707400330485 0 0 0
1156 2 2.4610000000000003 32.67975728694034 3.379707400330485 0 0 0
1180 2 2.4609999999999985 34.100616299416 3.379707400330485 0 0 0
1184 2 3.6914999999999996 31.969327780702493 3.379707400330485 0 0 0
1186 2 4.9220000000000015 32.67975728694034 3.379707400330485 0 0 0
1218 2 4.922000000000001 34.100616299416 3.379707400330485 0 0 0
1152 2 1.230500000000001 34.81104580565383 3.379707400330485 0 0 0
1182 2 3.691500000000002 34.81104580565383 3.379707400330485 0 0 0
1148 2 0 36.94233432436734 3.379707400330485 0 0 0
1172 2 0 38.36319333684299 3.379707400330485 0 0 0
1176 2 1.2304999999999993 36.231904818129486 3.379707400330485 0 0 0
1178 2 2.461000000000002 36.94233432436734 3.379707400330485 0 0 0
1210 2 2.4610000000000003 38.36319333684299 3.379707400330485 0 0 0
1214 2 3.6914999999999996 36.231904818129486 3.379707400330485 0 0 0
1216 2 4.922000000000001 36.942334324367316 3.379707400330485 0 0 0
1255 2 4.922000000000001 38.36319333684299 3.379707400330485 0 0 0
1174 2 1.230500000000001 39.07362284308084 3.379707400330485 0 0 0
1212 2 3.691500000000002 39.07362284308082 3.379707400330485 0 0 0
1135 2 0 31.258898274464656 6.267262368709398 0 0 0
1137 2 0 29.83803926198899 6.267262368709398 0 0 0
1157 2 2.4609999999999985 31.258898274464656 6.267262368709398 0 0 0
1159 2 2.4610000000000003 29.83803926198899 6.267262368709398 0 0 0
1447 2 0 29.83803926198899 9.1548173370875 0 0 0
1448 2 1.2304999999999993 30.54846876822683 9.1548173370875 0 0 0
1458 2 2.4610000000000003 29.83803926198899 9.1548173370875 0 0 0
1187 2 4.921999999999998 31.258898274464656 6.267262368709398 0 0 0
1189 2 4.922000000000001 29.83803926198899 6.267262368709398 0 0 0
1459 2 3.6915000000000004 30.54846876822683 9.1548173370875 0 0 0
1473 2 4.922000000000001 29.83803926198899 9.1548173370875 0 0 0
1151 2 0 34.100616299416 6.267262368709398 0 0 0
1153 2 1.2304999999999993 33.39018679317816 6.267262368709398 0 0 0
1155 2 1.2304999999999993 31.969327780702493 6.267262368709398 0 0 0
1181 2 2.4609999999999985 34.100616299416 6.267262368709398 0 0 0
1446 2 0 32.67975728694033 9.1548173370875 0 0 0
1454 2 0 34.100616299416 9.1548173370875 0 0 0
1456 2 1.2304999999999993 31.969327780702493 9.1548173370875 0 0 0
1457 2 2.4610000000000003 32.67975728694034 9.1548173370875 0 0 0
1469 2 2.4609999999999985 34.100616299416 9.1548173370875 0 0 0
1183 2 3.691499999999998 33.39018679317816 6.267262368709398 0 0 0
1185 2 3.6914999999999996 31.969327780702493 6.267262368709398 0 0 0
1219 2 4.922000000000001 34.100616299416 6.267262368709398 0 0 0
1221 2 6.152499999999999 33.39018679317816 6.267262368709398 0 0 0
1471 2 3.6914999999999996 31.969327780702493 9.1548173370875 0 0 0
1472 2 4.9220000000000015 32.67975728694034 9.1548173370875 0 0 0
1488 2 4.922000000000001 34.100616299416 9.1548173370875 0 0 0
1455 2 1.230500000000001 34.81104580565383 9.1548173370875 0 0 0
1470 2 3.691500000000002 34.81104580565383 9.1548173370875 0 0 0
1149 2 0 35.52147531189165 6.267262368709398 0 0 0
1173 2 0 38.36319333684299 6.267262368709398 0 0 0
1175 2 1.2304999999999993 37.65276383060515 6.267262368709398 0 0 0
1177 2 1.2304999999999993 36.231904818129486 6.267262368709398 0 0 0
1179 2 2.4609999999999985 35.52147531189166 6.267262368709398 0 0 0
1211 2 2.4610000000000003 38.36319333684299 6.267262368709398 0 0 0
1453 2 0 36.94233432436734 9.1548173370875 0 0 0
1465 2 0 38.36319333684299 9.1548173370875 0 0 0
1467 2 1.2304999999999993 36.231904818129486 9.1548173370875 0 0 0
1468 2 2.461000000000002 36.94233432436734 9.1548173370875 0 0 0
1484 2 2.4610000000000003 38.36319333684299 9.1548173370875 0 0 0
1213 2 3.6914999999999996 37.65276383060515 6.267262368709398 0 0 0
1215 2 3.6914999999999996 36.231904818129486 6.267262368709398 0 0 0
1217 2 4.922000000000001 35.52147531189166 6.267262368709398 0 0 0
1256 2 4.922000000000001 38.36319333684299 6.267262368709398 0 0 0
1258 2 6.152499999999998 37.65276383060515 6.267262368709398 0 0 0
1486 2 3.6914999999999996 36.231904818129486 9.1548173370875 0 0 0
1487 2 4.922000000000001 36.942334324367316 9.1548173370875 0 0 0
1506 2 4.922000000000001 38.36319333684299 9.1548173370875 0 0 0
1466 2 1.230500000000001 39.07362284308084 9.1548173370875 0 0 0
1485 2 3.691500000000002 39.07362284308082 9.1548173370875 0 0 0
2927 1 4.481399469264362 34.32918468773228 11.618783783890269 1 -1 0
1018 1 1.4872165292997848 33.54455517272992 11.709965814293549 2 1 1
3051 1 6.0474792527062 32.12527702208214 11.886960725683588 0 0 1
55 1 0.13322589751257044 37.894751105132066 11.821577323437278 1 -1 -1
1060 1 2.9756179924959176 38.23920173585638 12.05521172308422 0 0 0
3964 1 0.48318553028162814 30.950689268383815 11.91148491013882 1 -1 0
804 1 5.481651442370614 36.71110384803199 12.284014837195437 0 -1 -1
1854 1 4.849882817021945 29.472713851659044 11.705927269628793 0 0 -1
2032 1 1.6131448641276442 30.10819900842011 19.95479412170252 0 0 0
863 1 1.8772785744099791 32.87645122795203 17.946043672574554 2 -1 1
3843 1 3.750333792535957 33.46926127781378 14.231345343765035 0 0 0
2011 1 0.8937200532814644 32.90608959267632 14.988523783322641 2 0 0
987 1 0.4692676664530817 38.092800738991315 21.68523198589193 1 0 -1
822 1 3.2475924622407346 32.43348228371379 24.597629526603214 1 0 1
3864 1 4.510762506584072 36.27063674047972 24.232497469658348 2 0 0
1949 1 2.8934252284106337 38.059179343949445 15.076473897702137 1 0 0
3089 1 4.3492932300094544 35.31470067756011 16.908312310011752 -1 0 -1
1066 1 2.314403702469976 38.47573099776696 24.102974928439878 1 -2 0
2068 1 3.33056124955324 35.166077088125334 21.379126478797247 1 0 0
872 1 1.2034885280752468 35.067871895415216 19.351389571881114 1 -1 -1
2002 1 4.792229837625679 30.92632822481846 20.621999582925 0 -1 0
1991 1 3.0647289094223047 32.602305721623225 21.757774669991562 1 1 -1
3827 1 1.8721111249697244 30.036252814141857 24.646127318118403 0 -1 0
1925 1 4.663936590329398 32.25400258105986 17.837380408167483 1 0 0
68 1 4.66802345510012 38.613526708684674 19.702998094597312 1 0 0
16 1 5.437735271904844 31.566248981254795 15.066738660919945 0 0 1
3944 1 1.4578503424815004 36.12630795271909 16.345041887279216 1 -1 0
2080 1 1.7868659448599098 35.12961395077246 24.69942426874494 1 0 0
965 1 5.321646714606601 35.91185796127894 19.492281073514157 0 1 0
3874 1 0.35942787134760174 32.42372116339239 22.090539915524424 1 0 1
3106 1 5.8811430062324845 36.578897781051595 15.004122893815534 0 0 1
2947 1 6.1061038952640825 32.22667671872399 24.646224025958674 -1 0 0
1170 2 0 41.20491136179432 3.379707400330485 0 0 0
1206 2 1.230500000000001 40.494481855556494 3.379707400330485 0 0 0
1208 2 2.4610000000000003 41.20491136179432 3.379707400330485 0 0 0
1251 2 3.6914999999999996 40.494481855556494 3.379707400330485 0 0 0
1253 2 4.922000000000003 41.20491136179432 3.379707400330485 0 0 0
1296 2 6.152499999999998 40.494481855556494 3.379707400330485 0 0 0
1202 2 0 42.62577037427 3.379707400330485 0 0 0
1204 2 1.2304999999999993 43.33619988050783 3.379707400330485 0 0 0
1247 2 2.4610000000000003 42.62577037427 3.379707400330485 0 0 0
1249 2 3.691500000000002 43.33619988050783 3.379707400330485 0 0 0
1292 2 4.922000000000001 42.62577037426999 3.379707400330485 0 0 0
1200 2 0 45.46748839922133 3.379707400330485 0 0 0
1243 2 1.2304999999999993 44.757058892983494 3.379707400330485 0 0 0
1245 2 2.4610000000000003 45.46748839922133 3.379707400330485 0 0 0
1288 2 3.6914999999999996 44.757058892983494 3.379707400330485 0 0 0
1290 2 4.922000000000001 45.46748839922133 3.379707400330485 0 0 0
1239 2 0 46.888347411697 3.379707400330485 0 0 0
1241 2 1.230500000000001 47.59877691793481 3.379707400330485 0 0 0
1284 2 2.4609999999999985 46.888347411697 3.379707400330485 0 0 0
1286 2 3.6914999999999996 47.598776917934835 3.379707400330485 0 0 0
1329 2 4.922000000000001 46.888347411697 3.379707400330485 0 0 0
1171 2 0 39.78405234931866 6.267262368709398 0 0 0
1205 2 1.230500000000001 41.91534086803216 6.267262368709398 0 0 0
1207 2 1.230500000000001 40.494481855556494 6.267262368709398 0 0 0
1209 2 2.4610000000000003 39.78405234931866 6.267262368709398 0 0 0
1464 2 0 41.20491136179432 9.1548173370875 0 0 0
1482 2 1.230500000000001 40.494481855556494 9.1548173370875 0 0 0
1483 2 2.4610000000000003 41.20491136179432 9.1548173370875 0 0 0
1250 2 3.6914999999999996 41.91534086803216 6.267262368709398 0 0 0
1252 2 3.6914999999999996 40.494481855556494 6.267262368709398 0 0 0
1254 2 4.922000000000001 39.78405234931866 6.267262368709398 0 0 0
1295 2 6.152499999999998 41.91534086803216 6.267262368709398 0 0 0
1297 2 6.152499999999998 40.494481855556494 6.267262368709398 0 0 0