LAMMPS data file via write_data, version 29 Sep 2021, timestep = 8000000

4065 atoms
2 atom types

0 49.22 xlo xhi
0 49.019635930410494 ylo yhi
1.0863241551064338 26.7545080911718 zlo zhi

Masses

1 18.015
2 12.01

Atoms # atomic

83 2 0 2.8417180249513345 2.632454101223023 0 0 0
85 2 0 0 2.632454101223023 0 0 0
87 2 1.2305000000000001 0.7104295062378347 2.632454101223023 0 0 0
94 2 1.2305000000000001 2.1312885187135 2.632454101223023 0 0 0
96 2 2.4610000000000003 2.8417180249513345 2.632454101223023 0 0 0
98 2 2.4610000000000003 0 2.632454101223023 0 0 0
100 2 3.6915000000000004 0.7104295062378347 2.632454101223023 0 0 0
115 2 3.6914999999999996 2.1312885187135 2.632454101223023 0 0 0
117 2 4.922000000000001 2.841718024951333 2.632454101223023 0 0 0
119 2 4.922000000000001 0 2.632454101223023 0 0 0
90 2 0 4.262577037427 2.632454101223023 0 0 0
111 2 2.4610000000000003 4.262577037427 2.632454101223023 0 0 0
140 2 4.922000000000001 4.262577037426998 2.632454101223023 0 0 0
92 2 1.2305000000000001 4.973006543664834 2.632454101223023 0 0 0
107 2 1.2305000000000001 6.393865556140498 2.632454101223023 0 0 0
113 2 3.6914999999999996 4.973006543664834 2.632454101223023 0 0 0
136 2 3.6914999999999996 6.393865556140498 2.632454101223023 0 0 0
88 2 0 7.104295062378334 2.632454101223023 0 0 0
103 2 0 8.525154074854 2.632454101223023 0 0 0
105 2 1.2305000000000001 9.235583581091834 2.632454101223023 0 0 0
109 2 2.4610000000000003 7.104295062378334 2.632454101223023 0 0 0
132 2 2.4610000000000003 8.525154074854 2.632454101223023 0 0 0
134 2 3.6915000000000004 9.235583581091834 2.632454101223023 0 0 0
138 2 4.922000000000001 7.104295062378334 2.632454101223023 0 0 0
169 2 4.922000000000001 8.525154074854 2.632454101223023 0 0 0
84 2 0 1.420859012475665 5.724713993455702 0 0 0
86 2 0 0 5.724713993455702 0 0 0
95 2 1.2305000000000001 2.1312885187135 5.724713993455702 0 0 0
97 2 2.4610000000000003 1.420859012475665 5.724713993455702 0 0 0
99 2 2.4610000000000003 0 5.724713993455702 0 0 0
412 2 0 2.8417180249513345 8.816973885680465 0 0 0
413 2 0 0 8.816973885680465 0 0 0
414 2 1.2305000000000001 0.7104295062378347 8.816973885680465 0 0 0
418 2 1.2305000000000001 2.1312885187135 8.816973885680465 0 0 0
419 2 2.4610000000000003 2.8417180249513345 8.816973885680465 0 0 0
420 2 2.4610000000000003 0 8.816973885680465 0 0 0
116 2 3.6914999999999996 2.1312885187135 5.724713993455702 0 0 0
118 2 4.922000000000001 1.420859012475665 5.724713993455702 0 0 0
120 2 4.922000000000001 0 5.724713993455702 0 0 0
421 2 3.6915000000000004 0.7104295062378347 8.816973885680465 0 0 0
429 2 3.6914999999999996 2.1312885187135 8.816973885680465 0 0 0
430 2 4.922000000000001 2.841718024951333 8.816973885680465 0 0 0
431 2 4.922000000000001 0 8.816973885680465 0 0 0
91 2 0 4.262577037427 5.724713993455702 0 0 0
93 2 1.2305000000000001 3.5521475311891644 5.724713993455702 0 0 0
112 2 2.4610000000000003 4.262577037427 5.724713993455702 0 0 0
416 2 0 4.262577037427 8.816973885680465 0 0 0
427 2 2.4610000000000003 4.262577037427 8.816973885680465 0 0 0
114 2 3.6914999999999996 3.5521475311891644 5.724713993455702 0 0 0
141 2 4.922000000000001 4.262577037426998 5.724713993455702 0 0 0
442 2 4.922000000000001 4.262577037426998 8.816973885680465 0 0 0
89 2 0 5.683436049902664 5.724713993455702 0 0 0
108 2 1.2305000000000001 6.393865556140498 5.724713993455702 0 0 0
110 2 2.4610000000000003 5.683436049902664 5.724713993455702 0 0 0
417 2 1.2305000000000001 4.973006543664834 8.816973885680465 0 0 0
425 2 1.2305000000000001 6.393865556140498 8.816973885680465 0 0 0
137 2 3.6914999999999996 6.393865556140498 5.724713993455702 0 0 0
139 2 4.922000000000001 5.683436049902664 5.724713993455702 0 0 0
428 2 3.6914999999999996 4.973006543664834 8.816973885680465 0 0 0
440 2 3.6914999999999996 6.393865556140498 8.816973885680465 0 0 0
104 2 0 8.525154074854 5.724713993455702 0 0 0
106 2 1.2305000000000001 7.814724568616164 5.724713993455702 0 0 0
133 2 2.4610000000000003 8.525154074854 5.724713993455702 0 0 0
415 2 0 7.104295062378334 8.816973885680465 0 0 0
423 2 0 8.525154074854 8.816973885680465 0 0 0
424 2 1.2305000000000001 9.235583581091834 8.816973885680465 0 0 0
426 2 2.4610000000000003 7.104295062378334 8.816973885680465 0 0 0
438 2 2.4610000000000003 8.525154074854 8.816973885680465 0 0 0
135 2 3.6914999999999996 7.814724568616164 5.724713993455702 0 0 0
170 2 4.922000000000001 8.525154074854 5.724713993455702 0 0 0
439 2 3.6915000000000004 9.235583581091834 8.816973885680465 0 0 0
441 2 4.922000000000001 7.104295062378334 8.816973885680465 0 0 0
457 2 4.922000000000001 8.525154074854 8.816973885680465 0 0 0
4004 1 3.3896501830266734 1.763440741892693 11.209373423620958 -1 2 0
831 1 5.452788148677795 3.4146402139357144 11.86820218415074 2 0 0
4036 1 0.9494882405942604 3.291080195174083 11.900399361612555 2 1 0
3951 1 2.857103641005492 7.162759410113282 11.72156744294852 0 -3 -1
1791 1 5.301310113901282 6.0820842775636486 11.526390428073361 -1 0 0
1852 1 0.623040010373698 5.7732858445407995 11.00909542811682 -1 -2 0
3121 1 3.221672996507076 2.8363475199479877 15.459381314979865 1 1 0
2059 1 5.654908448692649 3.773301047258134 14.619111983682929 0 -3 0
968 1 0.6848529173318173 3.314488710662372 14.502472142114307 2 -1 -1
1010 1 4.797742730080583 6.913493954994584 22.519947442523275 -3 1 -1
1025 1 5.235181494372492 6.439048734462281 15.300509628886527 1 2 1
855 1 2.873276322757422 7.689876634184412 14.51860817843357 -3 -1 0
1792 1 5.280961544924611 6.698468570847773 18.117397031467554 2 1 -1
1985 1 0.4652212680077888 6.23248064146517 14.781827631565568 -2 3 0
1919 1 3.5210416585902418 0.1285927574044961 21.524576590203786 -1 8 1
1991 1 2.856648512630965 3.089141833785418 18.21861422403476 0 3 -1
8 1 5.336289168062994 4.206847210553507 19.225581946578096 2 0 0
71 1 5.015026393386692 4.237864622247821 22.08555457791948 2 2 0
1890 1 0.4381551967512885 4.100964477625996 18.954552731199293 2 3 1
1987 1 0.5596058830357838 3.9819640939281764 21.560670541473726 1 3 0
784 1 4.924833529951473 6.639028738687281 25.227966993990236 5 -2 -1
3016 1 3.404206704310377 0.47001230869867694 18.811335963877475 -3 -2 -1
3950 1 2.8651302283288693 7.927242880207803 18.81581994721752 1 -1 0
2863 1 2.0827513421129438 7.802166412175057 21.667165341829993 0 0 0
3015 1 2.859009260796474 2.87885373940107 22.741562310072815 -1 1 0
956 1 2.77192967681823 2.643688226059937 25.432589291772594 -3 1 0
68 1 5.164371409136177 3.8445948324788137 25.58463669109453 -1 3 0
1068 1 0.23003221428025283 3.6500911009512684 25.96726574739003 3 2 0
4051 1 2.479923956453315 7.543709005981931 25.841415380451977 -4 1 0
2026 1 0.4060697917923939 6.616308380892218 17.694309829373694 1 -3 0
2867 1 0.019789141684870108 6.239132477283102 25.413106212272616 1 4 0
3866 1 3.6921800339119955 0.1749840263696097 14.626749761864254 3 -1 0
101 2 0 11.366872099805333 2.632454101223023 0 0 0
124 2 0 12.787731112280996 2.632454101223023 0 0 0
126 2 1.2305000000000001 13.49816061851883 2.632454101223023 0 0 0
128 2 1.2305000000000001 10.656442593567498 2.632454101223023 0 0 0
130 2 2.4610000000000003 11.366872099805333 2.632454101223023 0 0 0
161 2 2.4610000000000003 12.787731112280996 2.632454101223023 0 0 0
163 2 3.6915000000000004 13.49816061851883 2.632454101223023 0 0 0
165 2 3.6914999999999996 10.6564425935675 2.632454101223023 0 0 0
167 2 4.922000000000001 11.366872099805333 2.632454101223023 0 0 0
206 2 4.922000000000001 12.787731112280996 2.632454101223023 0 0 0
208 2 6.152499999999999 13.49816061851883 2.632454101223023 0 0 0
122 2 0 15.629449137232333 2.632454101223023 0 0 0
153 2 0 17.050308149708 2.632454101223023 0 0 0
157 2 1.2305000000000001 14.919019630994494 2.632454101223023 0 0 0
159 2 2.4610000000000003 15.629449137232328 2.632454101223023 0 0 0
198 2 2.4610000000000003 17.050308149708 2.632454101223023 0 0 0
202 2 3.6915000000000004 14.919019630994494 2.632454101223023 0 0 0
204 2 4.922000000000001 15.629449137232333 2.632454101223023 0 0 0
245 2 4.922000000000001 17.050308149708 2.632454101223023 0 0 0
249 2 6.152499999999999 14.919019630994494 2.632454101223023 0 0 0
155 2 1.2305000000000001 17.76073765594583 2.632454101223023 0 0 0
194 2 1.2305000000000001 19.181596668421495 2.632454101223023 0 0 0
200 2 3.6914999999999996 17.76073765594583 2.632454101223023 0 0 0
241 2 3.6914999999999996 19.181596668421495 2.632454101223023 0 0 0
102 2 0 9.946013087329664 5.724713993455702 0 0 0
131 2 2.4610000000000003 9.946013087329664 5.724713993455702 0 0 0
168 2 4.922000000000001 9.946013087329664 5.724713993455702 0 0 0
125 2 0 12.787731112280996 5.724713993455702 0 0 0
127 2 1.2305000000000001 12.077301606043163 5.724713993455702 0 0 0
129 2 1.2305000000000001 10.656442593567498 5.724713993455702 0 0 0
162 2 2.4610000000000003 12.787731112280996 5.724713993455702 0 0 0
422 2 0 11.366872099805333 8.816973885680465 0 0 0
434 2 0 12.787731112280996 8.816973885680465 0 0 0
435 2 1.2305000000000001 13.49816061851883 8.816973885680465 0 0 0
436 2 1.2305000000000001 10.656442593567498 8.816973885680465 0 0 0
437 2 2.4610000000000003 11.366872099805333 8.816973885680465 0 0 0
453 2 2.4610000000000003 12.787731112280996 8.816973885680465 0 0 0
164 2 3.6914999999999996 12.077301606043163 5.724713993455702 0 0 0
166 2 3.6914999999999996 10.6564425935675 5.724713993455702 0 0 0
207 2 4.922000000000001 12.787731112280996 5.724713993455702 0 0 0
454 2 3.6915000000000004 13.49816061851883 8.816973885680465 0 0 0
455 2 3.6914999999999996 10.6564425935675 8.816973885680465 0 0 0
456 2 4.922000000000001 11.366872099805333 8.816973885680465 0 0 0
476 2 4.922000000000001 12.787731112280996 8.816973885680465 0 0 0
477 2 6.152499999999999 13.49816061851883 8.816973885680465 0 0 0
123 2 0 14.208590124756663 5.724713993455702 0 0 0
160 2 2.4610000000000003 14.208590124756663 5.724713993455702 0 0 0
205 2 4.922000000000001 14.208590124756663 5.724713993455702 0 0 0
154 2 0 17.050308149708 5.724713993455702 0 0 0
156 2 1.2305000000000001 16.339878643470165 5.724713993455702 0 0 0
158 2 1.2305000000000001 14.919019630994494 5.724713993455702 0 0 0
199 2 2.4610000000000003 17.050308149708 5.724713993455702 0 0 0
433 2 0 15.629449137232333 8.816973885680465 0 0 0
449 2 0 17.050308149708 8.816973885680465 0 0 0
451 2 1.2305000000000001 14.919019630994494 8.816973885680465 0 0 0
452 2 2.4610000000000003 15.629449137232328 8.816973885680465 0 0 0
472 2 2.4610000000000003 17.050308149708 8.816973885680465 0 0 0
201 2 3.6915000000000004 16.339878643470165 5.724713993455702 0 0 0
203 2 3.6915000000000004 14.919019630994494 5.724713993455702 0 0 0
246 2 4.922000000000001 17.050308149708 5.724713993455702 0 0 0
250 2 6.152499999999999 14.919019630994494 5.724713993455702 0 0 0
474 2 3.6915000000000004 14.919019630994494 8.816973885680465 0 0 0
475 2 4.922000000000001 15.629449137232333 8.816973885680465 0 0 0
496 2 4.922000000000001 17.050308149708 8.816973885680465 0 0 0
498 2 6.152499999999999 14.919019630994494 8.816973885680465 0 0 0
152 2 0 18.471167162183658 5.724713993455702 0 0 0
195 2 1.2305000000000001 19.181596668421495 5.724713993455702 0 0 0
197 2 2.4610000000000003 18.471167162183658 5.724713993455702 0 0 0
450 2 1.2305000000000001 17.76073765594583 8.816973885680465 0 0 0
470 2 1.2305000000000001 19.181596668421495 8.816973885680465 0 0 0
242 2 3.6914999999999996 19.181596668421495 5.724713993455702 0 0 0
244 2 4.922000000000001 18.471167162183658 5.724713993455702 0 0 0
473 2 3.6914999999999996 17.76073765594583 8.816973885680465 0 0 0
494 2 3.6914999999999996 19.181596668421495 8.816973885680465 0 0 0
2925 1 4.592470067455997 11.520042323909246 11.566134073485868 -1 3 1
2056 1 4.4589673773620895 14.272548205947873 11.183251392362257 5 -2 0
1870 1 2.474451636248482 10.026390262117257 11.72459276285418 3 4 0
961 1 2.0220612139064036 15.659102360504754 11.599244679598364 2 7 0
964 1 1.6891273547198595 18.136385035457785 11.220704741403782 3 -1 0
908 1 3.965262522270759 19.443075905948728 12.038774536800052 3 0 0
4063 1 0.1124559194735042 11.403131522717235 11.556457617994537 -1 0 -1
3058 1 4.899290403236476 11.597593277209164 14.156194129813086 3 1 0
800 1 2.4232410961758437 10.398649256807396 14.824969528677318 2 1 0
2012 1 4.449009926519777 14.41833639730113 17.74540233381274 4 0 0
2023 1 2.5660649219441147 10.487766844768096 17.808321640613237 -1 1 1
2020 1 3.8880159493436364 14.621602756548906 25.262999789094224 1 1 0
1984 1 4.609075324845813 14.18885072243791 15.122764069297071 -2 0 0
4061 1 1.8716407066951979 18.26667648511206 15.406663680299571 0 -3 -1
3986 1 2.249658763270137 15.609238249944926 14.38651311036499 -2 2 0
1844 1 2.0724787164739227 18.350689635945333 18.120532799621948 0 2 1
3067 1 4.9154560456855245 12.006335099778134 18.760993260933702 -4 -1 0
2060 1 4.4309971083569595 11.889131823825906 21.518692823743358 4 4 1
3041 1 2.295486183183482 10.658071214813578 22.42088148636295 0 1 -1
1885 1 2.228650786494396 15.520444728415356 18.685638175888073 2 3 0
3991 1 1.6499835564286545 15.70198606719958 21.348585779946603 1 0 -1
1838 1 1.1802302203167532 18.322266177142453 22.285098041850382 -1 0 1
888 1 1.3516262398794203 18.44679631632318 25.00953949085814 0 3 0
22 1 3.835685490408182 14.309624537979824 22.466792725832363 2 1 -1
3006 1 4.229826730112849 11.897329069669112 26.063433990972698 1 0 -1
2017 1 2.2417645947552867 10.19602977124572 25.081716082141725 2 0 -1
2883 1 1.614443797351536 15.655519006245608 25.936755237816286 -1 2 0
4035 1 0.016900479311178405 11.742378370217786 21.256508789957074 2 2 0
2029 1 5.778841555520592 18.874040095750814 25.247394821281482 -2 0 0
806 1 5.756303090158241 18.256257732505073 22.459208739733505 0 -2 0
873 1 0.13443176370181506 11.629041712868496 14.271935956101954 2 -2 -1
869 1 6.108855503583428 15.536343390137361 21.64920075700121 -2 2 0
3802 1 0.19789449858187846 14.139760531444344 15.07207435658137 1 -2 1
2092 1 6.113845375467376 18.3089734372673 15.52234298616195 -1 -1 0
2929 1 6.095625076320398 16.084634466454304 25.6615445757728 6 -2 0
3097 1 4.125771536603256 19.451879286320477 14.61427193610906 -1 1 0
151 2 0 19.89202617465933 2.632454101223023 0 0 0
196 2 2.4610000000000003 19.89202617465933 2.632454101223023 0 0 0
243 2 4.922000000000001 19.89202617465933 2.632454101223023 0 0 0
188 2 0 24.154603212086325 2.632454101223023 0 0 0
190 2 0 21.312885187135 2.632454101223023 0 0 0
192 2 1.2304999999999993 22.023314693372832 2.632454101223023 0 0 0
233 2 1.2304999999999993 23.4441737058485 2.632454101223023 0 0 0
235 2 2.4610000000000003 24.154603212086325 2.632454101223023 0 0 0
237 2 2.4610000000000003 21.312885187134995 2.632454101223023 0 0 0
239 2 3.6914999999999996 22.023314693372832 2.632454101223023 0 0 0
280 2 3.6915000000000004 23.4441737058485 2.632454101223023 0 0 0
282 2 4.922000000000001 24.154603212086325 2.632454101223023 0 0 0
284 2 4.922000000000001 21.312885187134995 2.632454101223023 0 0 0
286 2 6.152499999999999 22.023314693372832 2.632454101223023 0 0 0
1130 2 0 25.575462224561992 2.632454101223023 0 0 0
1132 2 1.2305000000000001 26.285891730799833 2.632454101223023 0 0 0
1140 2 1.230500000000001 27.706750743275496 2.632454101223023 0 0 0
1144 2 2.4610000000000003 25.575462224561992 2.632454101223023 0 0 0
1146 2 3.691499999999999 26.285891730799833 2.632454101223023 0 0 0
1162 2 3.6914999999999996 27.706750743275496 2.632454101223023 0 0 0
1166 2 4.922000000000001 25.575462224561992 2.632454101223023 0 0 0
1192 2 6.152499999999999 27.706750743275496 2.632454101223023 0 0 0
1128 2 0 28.417180249513333 2.632454101223023 0 0 0
1142 2 2.4610000000000003 28.417180249513326 2.632454101223023 0 0 0
1164 2 4.922000000000001 28.417180249513336 2.632454101223023 0 0 0
193 2 1.2305000000000001 20.60245568089716 5.724713993455702 0 0 0
448 2 0 19.89202617465933 8.816973885680465 0 0 0
471 2 2.4610000000000003 19.89202617465933 8.816973885680465 0 0 0
240 2 3.6915000000000004 20.60245568089716 5.724713993455702 0 0 0
495 2 4.922000000000001 19.89202617465933 8.816973885680465 0 0 0
189 2 0 22.733744199610655 5.724713993455702 0 0 0
191 2 0 21.312885187135 5.724713993455702 0 0 0
234 2 1.2304999999999993 23.4441737058485 5.724713993455702 0 0 0
236 2 2.4610000000000003 22.733744199610655 5.724713993455702 0 0 0
238 2 2.4610000000000003 21.312885187134995 5.724713993455702 0 0 0
467 2 0 24.154603212086325 8.816973885680465 0 0 0
468 2 0 21.312885187135 8.816973885680465 0 0 0
469 2 1.2304999999999993 22.023314693372832 8.816973885680465 0 0 0
490 2 1.2304999999999993 23.4441737058485 8.816973885680465 0 0 0
491 2 2.4610000000000003 24.154603212086325 8.816973885680465 0 0 0
492 2 2.4610000000000003 21.312885187134995 8.816973885680465 0 0 0
281 2 3.6915000000000004 23.4441737058485 5.724713993455702 0 0 0
283 2 4.922000000000001 22.733744199610655 5.724713993455702 0 0 0
285 2 4.922000000000001 21.312885187134995 5.724713993455702 0 0 0
493 2 3.6914999999999996 22.023314693372832 8.816973885680465 0 0 0
514 2 3.6915000000000004 23.4441737058485 8.816973885680465 0 0 0
515 2 4.922000000000001 24.154603212086325 8.816973885680465 0 0 0
516 2 4.922000000000001 21.312885187134995 8.816973885680465 0 0 0
517 2 6.152499999999999 22.023314693372832 8.816973885680465 0 0 0
1129 2 0 26.99632123703766 5.724713993455702 0 0 0
1131 2 0 25.575462224561992 5.724713993455702 0 0 0
1133 2 1.2305000000000001 24.865032718324155 5.724713993455702 0 0 0
1141 2 1.230500000000001 27.706750743275496 5.724713993455702 0 0 0
1143 2 2.4610000000000003 26.99632123703766 5.724713993455702 0 0 0
1145 2 2.4610000000000003 25.575462224561992 5.724713993455702 0 0 0
1444 2 0 25.575462224561992 8.816973885680465 0 0 0
1445 2 1.2305000000000001 26.285891730799833 8.816973885680465 0 0 0
1449 2 1.230500000000001 27.706750743275496 8.816973885680465 0 0 0
1451 2 2.4610000000000003 25.575462224561992 8.816973885680465 0 0 0
1147 2 3.6914999999999996 24.865032718324166 5.724713993455702 0 0 0
1163 2 3.6914999999999996 27.706750743275496 5.724713993455702 0 0 0
1165 2 4.922000000000001 26.99632123703766 5.724713993455702 0 0 0
1167 2 4.922000000000001 25.575462224561992 5.724713993455702 0 0 0
1169 2 6.152499999999999 24.865032718324155 5.724713993455702 0 0 0
1193 2 6.152499999999999 27.706750743275496 5.724713993455702 0 0 0
1452 2 3.691499999999999 26.285891730799833 8.816973885680465 0 0 0
1460 2 3.6914999999999996 27.706750743275496 8.816973885680465 0 0 0
1462 2 4.922000000000001 25.575462224561992 8.816973885680465 0 0 0
1475 2 6.152499999999999 27.706750743275496 8.816973885680465 0 0 0
1139 2 1.2304999999999993 29.127609755751163 5.724713993455702 0 0 0
1443 2 0 28.417180249513333 8.816973885680465 0 0 0
1450 2 2.4610000000000003 28.417180249513326 8.816973885680465 0 0 0
1161 2 3.691499999999999 29.127609755751152 5.724713993455702 0 0 0
1191 2 6.152499999999998 29.127609755751152 5.724713993455702 0 0 0
1461 2 4.922000000000001 28.417180249513336 8.816973885680465 0 0 0
901 1 3.3581910928701197 21.909741949899757 11.038053247214934 0 0 0
39 1 1.2078163768943808 23.347460720612837 11.912213620326492 1 -1 0
1871 1 5.413203838001933 26.402203779168964 11.19751600748078 0 0 0
2005 1 0.7010483570294989 26.089512597783134 11.05816007403731 1 1 0
1893 1 2.9902357143772873 27.799552615788212 11.43824598201702 2 1 0
3122 1 5.614737739780926 23.491861115619958 11.69683109559573 -2 2 0
897 1 3.841807458947216 22.2152383862914 15.463381907986614 2 -1 0
1089 1 1.1935626690841985 23.26419090381197 14.715283704139328 -2 2 0
3819 1 3.8404215517086944 22.474507490048737 18.177778134422397 1 0 0
856 1 5.763399611355077 23.952257452557664 25.89761395956871 1 -1 1
3054 1 5.735287985066807 23.814796248709925 14.337939628019368 0 2 0
3844 1 5.35981088405717 26.589506432248886 14.999492229474324 6 1 0
4043 1 1.071548732226863 25.95046399739596 15.115866936325894 2 1 0
882 1 0.6645472995532579 26.083101217351263 18.191361510031804 -1 -2 0
895 1 2.916874494609231 27.6969347879484 14.194958197481396 1 -3 0
3848 1 5.838247101535953 24.013432029407102 18.971950822559442 -4 2 0
1029 1 1.2001896374992485 23.527988677512194 19.095866611040222 -2 0 0
3831 1 0.8773483801846698 23.603683667897748 21.786025592097666 0 0 -2
2039 1 3.4212329621523354 22.375516493544488 22.309603048743647 -1 1 -1
3892 1 0.8477692403003935 26.13284859448127 25.229622485530136 0 1 1
2988 1 5.726227921789117 23.91636393709606 21.67907658296641 -3 2 0
3050 1 5.4345292396350935 26.658786847633817 17.91805739867538 1 -1 0
838 1 2.847514375646823 27.66405880434214 18.58965187236018 -1 -2 1
1835 1 2.9357385897685964 27.386154998804788 21.354213756332356 1 4 -1
2990 1 5.591186191269771 26.734433768271675 22.47839968441862 2 0 0
2873 1 0.8819470738064207 26.134729847338757 22.452077136339504 -1 -4 0
2844 1 3.4964373778960383 22.560250107496238 24.906647989974914 -1 0 0
2975 1 1.4376905548747252 23.657067129858753 26.128838594904636 -4 0 -1
880 1 5.620421969255723 26.65015293366483 25.04787223555735 1 0 0
948 1 3.1081322227733086 27.63068267833309 26.023198460220733 2 1 0
1903 1 3.5547730297468534 19.657219716199773 21.452722363087425 1 -3 -2
941 1 4.045862459244533 19.838553158745725 18.848969431981843 0 1 1
1070 1 3.3279260857981807 19.96786353184061 25.85819778281185 -1 0 0
1136 2 0 29.83803926198899 2.632454101223023 0 0 0
1138 2 1.2304999999999993 30.54846876822683 2.632454101223023 0 0 0
1158 2 2.4610000000000003 29.83803926198899 2.632454101223023 0 0 0
1160 2 3.6915000000000004 30.54846876822683 2.632454101223023 0 0 0
1188 2 4.922000000000001 29.83803926198899 2.632454101223023 0 0 0
1134 2 0 32.67975728694033 2.632454101223023 0 0 0
1150 2 0 34.100616299416 2.632454101223023 0 0 0
1154 2 1.2304999999999993 31.969327780702493 2.632454101223023 0 0 0
1156 2 2.4610000000000003 32.67975728694034 2.632454101223023 0 0 0
1180 2 2.4609999999999985 34.100616299416 2.632454101223023 0 0 0
1184 2 3.6914999999999996 31.969327780702493 2.632454101223023 0 0 0
1186 2 4.9220000000000015 32.67975728694034 2.632454101223023 0 0 0
1218 2 4.922000000000001 34.100616299416 2.632454101223023 0 0 0
1152 2 1.230500000000001 34.81104580565383 2.632454101223023 0 0 0
1182 2 3.691500000000002 34.81104580565383 2.632454101223023 0 0 0
1148 2 0 36.94233432436734 2.632454101223023 0 0 0
1172 2 0 38.36319333684299 2.632454101223023 0 0 0
1176 2 1.2304999999999993 36.231904818129486 2.632454101223023 0 0 0
1178 2 2.461000000000002 36.94233432436734 2.632454101223023 0 0 0
1210 2 2.4610000000000003 38.36319333684299 2.632454101223023 0 0 0
1214 2 3.6914999999999996 36.231904818129486 2.632454101223023 0 0 0
1216 2 4.922000000000001 36.942334324367316 2.632454101223023 0 0 0
1255 2 4.922000000000001 38.36319333684299 2.632454101223023 0 0 0
1174 2 1.230500000000001 39.07362284308084 2.632454101223023 0 0 0
1212 2 3.691500000000002 39.07362284308082 2.632454101223023 0 0 0
1135 2 0 31.258898274464656 5.724713993455702 0 0 0
1137 2 0 29.83803926198899 5.724713993455702 0 0 0
1157 2 2.4609999999999985 31.258898274464656 5.724713993455702 0 0 0
1159 2 2.4610000000000003 29.83803926198899 5.724713993455702 0 0 0
1447 2 0 29.83803926198899 8.816973885680465 0 0 0
1448 2 1.2304999999999993 30.54846876822683 8.816973885680465 0 0 0
1458 2 2.4610000000000003 29.83803926198899 8.816973885680465 0 0 0
1187 2 4.921999999999998 31.258898274464656 5.724713993455702 0 0 0
1189 2 4.922000000000001 29.83803926198899 5.724713993455702 0 0 0
1459 2 3.6915000000000004 30.54846876822683 8.816973885680465 0 0 0
1473 2 4.922000000000001 29.83803926198899 8.816973885680465 0 0 0
1151 2 0 34.100616299416 5.724713993455702 0 0 0
1153 2 1.2304999999999993 33.39018679317816 5.724713993455702 0 0 0
1155 2 1.2304999999999993 31.969327780702493 5.724713993455702 0 0 0
1181 2 2.4609999999999985 34.100616299416 5.724713993455702 0 0 0
1446 2 0 32.67975728694033 8.816973885680465 0 0 0
1454 2 0 34.100616299416 8.816973885680465 0 0 0
1456 2 1.2304999999999993 31.969327780702493 8.816973885680465 0 0 0
1457 2 2.4610000000000003 32.67975728694034 8.816973885680465 0 0 0
1469 2 2.4609999999999985 34.100616299416 8.816973885680465 0 0 0
1183 2 3.691499999999998 33.39018679317816 5.724713993455702 0 0 0
1185 2 3.6914999999999996 31.969327780702493 5.724713993455702 0 0 0
1219 2 4.922000000000001 34.100616299416 5.724713993455702 0 0 0
1221 2 6.152499999999999 33.39018679317816 5.724713993455702 0 0 0
1471 2 3.6914999999999996 31.969327780702493 8.816973885680465 0 0 0
1472 2 4.9220000000000015 32.67975728694034 8.816973885680465 0 0 0
1488 2 4.922000000000001 34.100616299416 8.816973885680465 0 0 0
1455 2 1.230500000000001 34.81104580565383 8.816973885680465 0 0 0
1470 2 3.691500000000002 34.81104580565383 8.816973885680465 0 0 0
1149 2 0 35.52147531189165 5.724713993455702 0 0 0
1173 2 0 38.36319333684299 5.724713993455702 0 0 0
1175 2 1.2304999999999993 37.65276383060515 5.724713993455702 0 0 0
1177 2 1.2304999999999993 36.231904818129486 5.724713993455702 0 0 0
1179 2 2.4609999999999985 35.52147531189166 5.724713993455702 0 0 0
1211 2 2.4610000000000003 38.36319333684299 5.724713993455702 0 0 0
1453 2 0 36.94233432436734 8.816973885680465 0 0 0
1465 2 0 38.36319333684299 8.816973885680465 0 0 0
1467 2 1.2304999999999993 36.231904818129486 8.816973885680465 0 0 0
1468 2 2.461000000000002 36.94233432436734 8.816973885680465 0 0 0
1484 2 2.4610000000000003 38.36319333684299 8.816973885680465 0 0 0
1213 2 3.6914999999999996 37.65276383060515 5.724713993455702 0 0 0
1215 2 3.6914999999999996 36.231904818129486 5.724713993455702 0 0 0
1217 2 4.922000000000001 35.52147531189166 5.724713993455702 0 0 0
1256 2 4.922000000000001 38.36319333684299 5.724713993455702 0 0 0
1258 2 6.152499999999998 37.65276383060515 5.724713993455702 0 0 0
1486 2 3.6914999999999996 36.231904818129486 8.816973885680465 0 0 0
1487 2 4.922000000000001 36.942334324367316 8.816973885680465 0 0 0
1506 2 4.922000000000001 38.36319333684299 8.816973885680465 0 0 0
1466 2 1.230500000000001 39.07362284308084 8.816973885680465 0 0 0
1485 2 3.691500000000002 39.07362284308082 8.816973885680465 0 0 0
3102 1 5.100478089499301 31.764561906380713 11.56630697577904 2 2 -1
815 1 2.9166137005458688 30.481002918551397 10.971421045598388 1 1 0
1088 1 2.3067199753578667 35.684880876668906 11.835321690789486 -2 0 0
2057 1 4.799948861139154 34.57842291107208 11.491771267862344 -1 -1 0
3959 1 1.9962246345663202 38.38268251994706 11.51997816852849 2 1 -1
3113 1 0.3881322102174353 31.425156319718212 11.611976307901037 -2 -2 1
2082 1 2.657347983977459 30.239788931309914 15.088219793344608 1 0 1
963 1 4.981105820904506 31.656638432946856 14.272732419384646 2 2 0
2054 1 4.605342160839162 34.366234359919424 15.14625829349334 0 -4 1
3900 1 2.54858647400926 30.210041833067383 17.761498216697667 2 1 0
3014 1 0.20519537554566572 31.35919696594225 14.429075422892074 5 1 1
925 1 2.1093637570135058 35.5796284772791 14.574389534274632 0 0 -1
3975 1 1.8009358877003687 38.05940833401605 15.458047791038778 0 -1 -1
2978 1 4.744999584236998 31.455936347291633 18.95207515611728 3 -2 0
3091 1 4.940842762704079 31.573600038410923 21.91027426906183 2 3 1
4 1 4.636078598071772 34.07939516994624 17.80774256562369 0 -1 1
3801 1 0.3548217051161013 30.98742750189799 21.45271083892343 -4 1 0
2853 1 2.6927674625924483 29.987449623342776 22.64820042315896 -1 -4 1
816 1 0.26631654995985343 33.63614679001285 22.103115941838496 1 -2 0
1026 1 0.28274700137871983 31.716115278283702 25.857992135595566 1 -1 0
1004 1 1.9623041325765838 38.03397386539571 18.14290080439128 1 -1 0
3093 1 2.262207803960518 35.21011756362725 21.41352942239876 0 2 0
4028 1 2.0956419759697877 35.389895027261694 18.66463669010161 2 1 -1
1018 1 2.50397452839914 35.76726732055106 25.919909607708952 0 2 1
2111 1 4.887175187092128 34.37068708762337 22.130114091854317 -5 1 0
1949 1 5.168466589259167 31.619355765726397 25.504573871306036 -2 0 0
3071 1 2.6760856333712812 30.312550918087744 25.328268662694136 -3 1 -1
3047 1 0.20863634198518405 31.39728280716447 18.680977186693724 -2 3 0
3911 1 2.063178289763905 38.51787815726886 25.32920901294733 2 2 0
2058 1 4.877438225580151 34.40619280215447 25.107857847003807 3 -1 1
2837 1 2.249293261368134 37.722900542776465 22.55152287587886 -4 1 0
829 1 4.449610594653813 39.06768446026895 21.810119103498522 -2 4 -1
2028 1 0.2949946254509229 34.377760560190005 24.89707002546192 0 -1 1
1170 2 0 41.20491136179432 2.632454101223023 0 0 0
1206 2 1.230500000000001 40.494481855556494 2.632454101223023 0 0 0
1208 2 2.4610000000000003 41.20491136179432 2.632454101223023 0 0 0
1251 2 3.6914999999999996 40.494481855556494 2.632454101223023 0 0 0
1253 2 4.922000000000003 41.20491136179432 2.632454101223023 0 0 0
1296 2 6.152499999999998 40.494481855556494 2.632454101223023 0 0 0
1202 2 0 42.62577037427 2.632454101223023 0 0 0
1204 2 1.2304999999999993 43.33619988050783 2.632454101223023 0 0 0
1247 2 2.4610000000000003 42.62577037427 2.632454101223023 0 0 0
1249 2 3.691500000000002 43.33619988050783 2.632454101223023 0 0 0
1292 2 4.922000000000001 42.62577037426999 2.632454101223023 0 0 0
1200 2 0 45.46748839922133 2.632454101223023 0 0 0
1243 2 1.2304999999999993 44.757058892983494 2.632454101223023 0 0 0
1245 2 2.4610000000000003 45.46748839922133 2.632454101223023 0 0 0
1288 2 3.6914999999999996 44.757058892983494 2.632454101223023 0 0 0
1290 2 4.922000000000001 45.46748839922133 2.632454101223023 0 0 0
1239 2 0 46.888347411697 2.632454101223023 0 0 0
1241 2 1.230500000000001 47.59877691793481 2.632454101223023 0 0 0
1284 2 2.4609999999999985 46.888347411697 2.632454101223023 0 0 0
1286 2 3.6914999999999996 47.598776917934835 2.632454101223023 0 0 0
1329 2 4.922000000000001 46.888347411697 2.632454101223023 0 0 0
1171 2 0 39.78405234931866 5.724713993455702 0 0 0
1205 2 1.230500000000001 41.91534086803216 5.724713993455702 0 0 0
1207 2 1.230500000000001 40.494481855556494 5.724713993455702 0 0 0
1209 2 2.4610000000000003 39.78405234931866 5.724713993455702 0 0 0
1464 2 0 41.20491136179432 8.816973885680465 0 0 0