LAMMPS data file via write_data, version 16 Mar 2018, timestep = 100000

4078 atoms
2 atom types

0.0000000000000000e+00 4.9219999999999999e+01 xlo xhi
0.0000000000000000e+00 4.9019635930410494e+01 ylo yhi
1.4036718144676215e+00 2.6536328185532863e+01 zlo zhi

Masses

1 18.015
2 12.01

Atoms # atomic

52 2 0.0000000000000000e+00 2.8417180249513345e+00 3.1458805173813245e+00 0 0 0
54 2 0.0000000000000000e+00 0.0000000000000000e+00 3.1458805173813245e+00 0 0 0
56 2 1.2305000000000001e+00 7.1042950623783474e-01 3.1458805173813245e+00 0 0 0
63 2 1.2305000000000001e+00 2.1312885187134998e+00 3.1458805173813245e+00 0 0 0
65 2 2.4610000000000003e+00 2.8417180249513345e+00 3.1458805173813245e+00 0 0 0
67 2 2.4610000000000003e+00 0.0000000000000000e+00 3.1458805173813245e+00 0 0 0
69 2 3.6915000000000004e+00 7.1042950623783474e-01 3.1458805173813245e+00 0 0 0
84 2 3.6914999999999996e+00 2.1312885187134998e+00 3.1458805173813245e+00 0 0 0
86 2 4.9220000000000006e+00 2.8417180249513332e+00 3.1458805173813245e+00 0 0 0
88 2 4.9220000000000006e+00 0.0000000000000000e+00 3.1458805173813245e+00 0 0 0
90 2 6.1524999999999999e+00 7.1042950623783407e-01 3.1458805173813245e+00 0 0 0
113 2 6.1524999999999999e+00 2.1312885187134989e+00 3.1458805173813245e+00 0 0 0
115 2 7.3829999999999991e+00 2.8417180249513345e+00 3.1458805173813245e+00 0 0 0
117 2 7.3829999999999991e+00 0.0000000000000000e+00 3.1458805173813245e+00 0 0 0
119 2 8.6134999999999984e+00 7.1042950623783407e-01 3.1458805173813245e+00 0 0 0
150 2 8.6134999999999984e+00 2.1312885187135002e+00 3.1458805173813245e+00 0 0 0
152 2 9.8440000000000012e+00 2.8417180249513332e+00 3.1458805173813245e+00 0 0 0
154 2 9.8440000000000012e+00 0.0000000000000000e+00 3.1458805173813245e+00 0 0 0
156 2 1.1074500000000002e+01 7.1042950623783330e-01 3.1458805173813245e+00 0 0 0
195 2 1.1074500000000002e+01 2.1312885187135002e+00 3.1458805173813245e+00 0 0 0
59 2 0.0000000000000000e+00 4.2625770374269996e+00 3.1458805173813245e+00 0 0 0
61 2 1.2305000000000001e+00 4.9730065436648339e+00 3.1458805173813245e+00 0 0 0
76 2 1.2305000000000001e+00 6.3938655561404980e+00 3.1458805173813245e+00 0 0 0
80 2 2.4610000000000003e+00 4.2625770374269996e+00 3.1458805173813245e+00 0 0 0
82 2 3.6914999999999996e+00 4.9730065436648339e+00 3.1458805173813245e+00 0 0 0
105 2 3.6914999999999996e+00 6.3938655561404980e+00 3.1458805173813245e+00 0 0 0
57 2 0.0000000000000000e+00 7.1042950623783341e+00 3.1458805173813245e+00 0 0 0
78 2 2.4610000000000003e+00 7.1042950623783341e+00 3.1458805173813245e+00 0 0 0
109 2 4.9220000000000006e+00 4.2625770374269978e+00 3.1458805173813245e+00 0 0 0
111 2 6.1524999999999999e+00 4.9730065436648339e+00 3.1458805173813245e+00 0 0 0
142 2 6.1524999999999999e+00 6.3938655561404980e+00 3.1458805173813245e+00 0 0 0
146 2 7.3829999999999991e+00 4.2625770374269996e+00 3.1458805173813245e+00 0 0 0
107 2 4.9220000000000006e+00 7.1042950623783341e+00 3.1458805173813245e+00 0 0 0
144 2 7.3830000000000009e+00 7.1042950623783341e+00 3.1458805173813245e+00 0 0 0
148 2 8.6135000000000002e+00 4.9730065436648339e+00 3.1458805173813245e+00 0 0 0
187 2 8.6135000000000002e+00 6.3938655561404980e+00 3.1458805173813245e+00 0 0 0
191 2 9.8440000000000012e+00 4.2625770374270004e+00 3.1458805173813245e+00 0 0 0
193 2 1.1074500000000002e+01 4.9730065436648339e+00 3.1458805173813245e+00 0 0 0
234 2 1.1074500000000002e+01 6.3938655561404980e+00 3.1458805173813245e+00 0 0 0
189 2 9.8440000000000012e+00 7.1042950623783341e+00 3.1458805173813245e+00 0 0 0
72 2 0.0000000000000000e+00 8.5251540748539991e+00 3.1458805173813245e+00 0 0 0
74 2 1.2305000000000001e+00 9.2355835810918343e+00 3.1458805173813245e+00 0 0 0
101 2 2.4610000000000003e+00 8.5251540748539991e+00 3.1458805173813245e+00 0 0 0
103 2 3.6915000000000004e+00 9.2355835810918343e+00 3.1458805173813245e+00 0 0 0
70 2 0.0000000000000000e+00 1.1366872099805333e+01 3.1458805173813245e+00 0 0 0
97 2 1.2305000000000001e+00 1.0656442593567498e+01 3.1458805173813245e+00 0 0 0
99 2 2.4610000000000003e+00 1.1366872099805333e+01 3.1458805173813245e+00 0 0 0
134 2 3.6914999999999996e+00 1.0656442593567499e+01 3.1458805173813245e+00 0 0 0
138 2 4.9220000000000006e+00 8.5251540748539991e+00 3.1458805173813245e+00 0 0 0
140 2 6.1524999999999999e+00 9.2355835810918343e+00 3.1458805173813245e+00 0 0 0
183 2 7.3830000000000009e+00 8.5251540748539991e+00 3.1458805173813245e+00 0 0 0
136 2 4.9220000000000006e+00 1.1366872099805333e+01 3.1458805173813245e+00 0 0 0
179 2 6.1524999999999999e+00 1.0656442593567499e+01 3.1458805173813245e+00 0 0 0
181 2 7.3829999999999991e+00 1.1366872099805333e+01 3.1458805173813245e+00 0 0 0
185 2 8.6134999999999984e+00 9.2355835810918343e+00 3.1458805173813245e+00 0 0 0
230 2 9.8440000000000012e+00 8.5251540748539956e+00 3.1458805173813245e+00 0 0 0
232 2 1.1074500000000002e+01 9.2355835810918343e+00 3.1458805173813245e+00 0 0 0
226 2 8.6134999999999984e+00 1.0656442593567498e+01 3.1458805173813245e+00 0 0 0
228 2 9.8440000000000012e+00 1.1366872099805333e+01 3.1458805173813245e+00 0 0 0
273 2 1.1074500000000002e+01 1.0656442593567498e+01 3.1458805173813245e+00 0 0 0
275 2 1.2304999999999998e+01 1.1366872099805333e+01 3.1458805173813245e+00 0 0 0
53 2 0.0000000000000000e+00 1.4208590124756650e+00 6.0991138001203815e+00 0 0 0
55 2 0.0000000000000000e+00 0.0000000000000000e+00 6.0991138001203815e+00 0 0 0
64 2 1.2305000000000001e+00 2.1312885187134998e+00 6.0991138001203815e+00 0 0 0
66 2 2.4610000000000003e+00 1.4208590124756650e+00 6.0991138001203815e+00 0 0 0
68 2 2.4610000000000003e+00 0.0000000000000000e+00 6.0991138001203815e+00 0 0 0
85 2 3.6914999999999996e+00 2.1312885187134998e+00 6.0991138001203815e+00 0 0 0
381 2 0.0000000000000000e+00 2.8417180249513345e+00 9.0523470828589492e+00 0 0 0
382 2 0.0000000000000000e+00 0.0000000000000000e+00 9.0523470828589492e+00 0 0 0
383 2 1.2305000000000001e+00 7.1042950623783474e-01 9.0523470828589492e+00 0 0 0
387 2 1.2305000000000001e+00 2.1312885187134998e+00 9.0523470828589492e+00 0 0 0
388 2 2.4610000000000003e+00 2.8417180249513345e+00 9.0523470828589492e+00 0 0 0
389 2 2.4610000000000003e+00 0.0000000000000000e+00 9.0523470828589492e+00 0 0 0
390 2 3.6915000000000004e+00 7.1042950623783474e-01 9.0523470828589492e+00 0 0 0
398 2 3.6914999999999996e+00 2.1312885187134998e+00 9.0523470828589492e+00 0 0 0
62 2 1.2305000000000001e+00 3.5521475311891644e+00 6.0991138001203815e+00 0 0 0
83 2 3.6914999999999996e+00 3.5521475311891644e+00 6.0991138001203815e+00 0 0 0
87 2 4.9220000000000006e+00 1.4208590124756650e+00 6.0991138001203815e+00 0 0 0
89 2 4.9220000000000006e+00 0.0000000000000000e+00 6.0991138001203815e+00 0 0 0
114 2 6.1524999999999999e+00 2.1312885187134989e+00 6.0991138001203815e+00 0 0 0
116 2 7.3829999999999991e+00 1.4208590124756659e+00 6.0991138001203815e+00 0 0 0
118 2 7.3829999999999991e+00 0.0000000000000000e+00 6.0991138001203815e+00 0 0 0
399 2 4.9220000000000006e+00 2.8417180249513332e+00 9.0523470828589492e+00 0 0 0
400 2 4.9220000000000006e+00 0.0000000000000000e+00 9.0523470828589492e+00 0 0 0
401 2 6.1524999999999999e+00 7.1042950623783407e-01 9.0523470828589492e+00 0 0 0
413 2 6.1524999999999999e+00 2.1312885187134989e+00 9.0523470828589492e+00 0 0 0
414 2 7.3829999999999991e+00 2.8417180249513345e+00 9.0523470828589492e+00 0 0 0
415 2 7.3829999999999991e+00 0.0000000000000000e+00 9.0523470828589492e+00 0 0 0
112 2 6.1524999999999999e+00 3.5521475311891644e+00 6.0991138001203815e+00 0 0 0
151 2 8.6134999999999984e+00 2.1312885187135002e+00 6.0991138001203815e+00 0 0 0
153 2 9.8440000000000012e+00 1.4208590124756659e+00 6.0991138001203815e+00 0 0 0
155 2 9.8440000000000012e+00 0.0000000000000000e+00 6.0991138001203815e+00 0 0 0
196 2 1.1074500000000002e+01 2.1312885187135002e+00 6.0991138001203815e+00 0 0 0
416 2 8.6134999999999984e+00 7.1042950623783407e-01 9.0523470828589492e+00 0 0 0
432 2 8.6134999999999984e+00 2.1312885187135002e+00 9.0523470828589492e+00 0 0 0
433 2 9.8440000000000012e+00 2.8417180249513332e+00 9.0523470828589492e+00 0 0 0
434 2 9.8440000000000012e+00 0.0000000000000000e+00 9.0523470828589492e+00 0 0 0
435 2 1.1074500000000002e+01 7.1042950623783330e-01 9.0523470828589492e+00 0 0 0
455 2 1.1074500000000002e+01 2.1312885187135002e+00 9.0523470828589492e+00 0 0 0
149 2 8.6134999999999984e+00 3.5521475311891657e+00 6.0991138001203815e+00 0 0 0
194 2 1.1074500000000002e+01 3.5521475311891644e+00 6.0991138001203815e+00 0 0 0
58 2 0.0000000000000000e+00 5.6834360499026637e+00 6.0991138001203815e+00 0 0 0
60 2 0.0000000000000000e+00 4.2625770374269996e+00 6.0991138001203815e+00 0 0 0
77 2 1.2305000000000001e+00 6.3938655561404980e+00 6.0991138001203815e+00 0 0 0
79 2 2.4610000000000003e+00 5.6834360499026637e+00 6.0991138001203815e+00 0 0 0
81 2 2.4610000000000003e+00 4.2625770374269996e+00 6.0991138001203815e+00 0 0 0
106 2 3.6914999999999996e+00 6.3938655561404980e+00 6.0991138001203815e+00 0 0 0
385 2 0.0000000000000000e+00 4.2625770374269996e+00 9.0523470828589492e+00 0 0 0
386 2 1.2305000000000001e+00 4.9730065436648339e+00 9.0523470828589492e+00 0 0 0
394 2 1.2305000000000001e+00 6.3938655561404980e+00 9.0523470828589492e+00 0 0 0
396 2 2.4610000000000003e+00 4.2625770374269996e+00 9.0523470828589492e+00 0 0 0
397 2 3.6914999999999996e+00 4.9730065436648339e+00 9.0523470828589492e+00 0 0 0
409 2 3.6914999999999996e+00 6.3938655561404980e+00 9.0523470828589492e+00 0 0 0
75 2 1.2305000000000001e+00 7.8147245686161639e+00 6.0991138001203815e+00 0 0 0
104 2 3.6914999999999996e+00 7.8147245686161639e+00 6.0991138001203815e+00 0 0 0
384 2 0.0000000000000000e+00 7.1042950623783341e+00 9.0523470828589492e+00 0 0 0
395 2 2.4610000000000003e+00 7.1042950623783341e+00 9.0523470828589492e+00 0 0 0
108 2 4.9220000000000006e+00 5.6834360499026637e+00 6.0991138001203815e+00 0 0 0
110 2 4.9220000000000006e+00 4.2625770374269978e+00 6.0991138001203815e+00 0 0 0
143 2 6.1524999999999999e+00 6.3938655561404980e+00 6.0991138001203815e+00 0 0 0
145 2 7.3829999999999991e+00 5.6834360499026637e+00 6.0991138001203815e+00 0 0 0
147 2 7.3829999999999991e+00 4.2625770374269996e+00 6.0991138001203815e+00 0 0 0
411 2 4.9220000000000006e+00 4.2625770374269978e+00 9.0523470828589492e+00 0 0 0
412 2 6.1524999999999999e+00 4.9730065436648339e+00 9.0523470828589492e+00 0 0 0
428 2 6.1524999999999999e+00 6.3938655561404980e+00 9.0523470828589492e+00 0 0 0
430 2 7.3829999999999991e+00 4.2625770374269996e+00 9.0523470828589492e+00 0 0 0
141 2 6.1524999999999999e+00 7.8147245686161639e+00 6.0991138001203815e+00 0 0 0
410 2 4.9220000000000006e+00 7.1042950623783341e+00 9.0523470828589492e+00 0 0 0
429 2 7.3830000000000009e+00 7.1042950623783341e+00 9.0523470828589492e+00 0 0 0
188 2 8.6135000000000002e+00 6.3938655561404980e+00 6.0991138001203815e+00 0 0 0
190 2 9.8440000000000012e+00 5.6834360499026637e+00 6.0991138001203815e+00 0 0 0
192 2 9.8440000000000012e+00 4.2625770374270004e+00 6.0991138001203815e+00 0 0 0
235 2 1.1074500000000002e+01 6.3938655561404980e+00 6.0991138001203815e+00 0 0 0
431 2 8.6135000000000002e+00 4.9730065436648339e+00 9.0523470828589492e+00 0 0 0
451 2 8.6135000000000002e+00 6.3938655561404980e+00 9.0523470828589492e+00 0 0 0
453 2 9.8440000000000012e+00 4.2625770374270004e+00 9.0523470828589492e+00 0 0 0
454 2 1.1074500000000002e+01 4.9730065436648339e+00 9.0523470828589492e+00 0 0 0
475 2 1.1074500000000002e+01 6.3938655561404980e+00 9.0523470828589492e+00 0 0 0
186 2 8.6135000000000002e+00 7.8147245686161639e+00 6.0991138001203815e+00 0 0 0
233 2 1.1074500000000002e+01 7.8147245686161639e+00 6.0991138001203815e+00 0 0 0
452 2 9.8440000000000012e+00 7.1042950623783341e+00 9.0523470828589492e+00 0 0 0
71 2 0.0000000000000000e+00 9.9460130873296642e+00 6.0991138001203815e+00 0 0 0
73 2 0.0000000000000000e+00 8.5251540748539991e+00 6.0991138001203815e+00 0 0 0
100 2 2.4610000000000003e+00 9.9460130873296642e+00 6.0991138001203815e+00 0 0 0
102 2 2.4610000000000003e+00 8.5251540748539991e+00 6.0991138001203815e+00 0 0 0
392 2 0.0000000000000000e+00 8.5251540748539991e+00 9.0523470828589492e+00 0 0 0
393 2 1.2305000000000001e+00 9.2355835810918343e+00 9.0523470828589492e+00 0 0 0
407 2 2.4610000000000003e+00 8.5251540748539991e+00 9.0523470828589492e+00 0 0 0
408 2 3.6915000000000004e+00 9.2355835810918343e+00 9.0523470828589492e+00 0 0 0
96 2 1.2305000000000001e+00 1.2077301606043163e+01 6.0991138001203815e+00 0 0 0
98 2 1.2305000000000001e+00 1.0656442593567498e+01 6.0991138001203815e+00 0 0 0
133 2 3.6914999999999996e+00 1.2077301606043163e+01 6.0991138001203815e+00 0 0 0
135 2 3.6914999999999996e+00 1.0656442593567499e+01 6.0991138001203815e+00 0 0 0
391 2 0.0000000000000000e+00 1.1366872099805333e+01 9.0523470828589492e+00 0 0 0
405 2 1.2305000000000001e+00 1.0656442593567498e+01 9.0523470828589492e+00 0 0 0
406 2 2.4610000000000003e+00 1.1366872099805333e+01 9.0523470828589492e+00 0 0 0
424 2 3.6914999999999996e+00 1.0656442593567499e+01 9.0523470828589492e+00 0 0 0
137 2 4.9220000000000006e+00 9.9460130873296642e+00 6.0991138001203815e+00 0 0 0
139 2 4.9220000000000006e+00 8.5251540748539991e+00 6.0991138001203815e+00 0 0 0
182 2 7.3830000000000009e+00 9.9460130873296642e+00 6.0991138001203815e+00 0 0 0
184 2 7.3830000000000009e+00 8.5251540748539991e+00 6.0991138001203815e+00 0 0 0
426 2 4.9220000000000006e+00 8.5251540748539991e+00 9.0523470828589492e+00 0 0 0
427 2 6.1524999999999999e+00 9.2355835810918343e+00 9.0523470828589492e+00 0 0 0
449 2 7.3830000000000009e+00 8.5251540748539991e+00 9.0523470828589492e+00 0 0 0
178 2 6.1524999999999999e+00 1.2077301606043163e+01 6.0991138001203815e+00 0 0 0
180 2 6.1524999999999999e+00 1.0656442593567499e+01 6.0991138001203815e+00 0 0 0
425 2 4.9220000000000006e+00 1.1366872099805333e+01 9.0523470828589492e+00 0 0 0
447 2 6.1524999999999999e+00 1.0656442593567499e+01 9.0523470828589492e+00 0 0 0
448 2 7.3829999999999991e+00 1.1366872099805333e+01 9.0523470828589492e+00 0 0 0
229 2 9.8440000000000012e+00 9.9460130873296642e+00 6.0991138001203815e+00 0 0 0
231 2 9.8440000000000012e+00 8.5251540748539956e+00 6.0991138001203815e+00 0 0 0
450 2 8.6134999999999984e+00 9.2355835810918343e+00 9.0523470828589492e+00 0 0 0
473 2 9.8440000000000012e+00 8.5251540748539956e+00 9.0523470828589492e+00 0 0 0
474 2 1.1074500000000002e+01 9.2355835810918343e+00 9.0523470828589492e+00 0 0 0
225 2 8.6135000000000002e+00 1.2077301606043163e+01 6.0991138001203815e+00 0 0 0
227 2 8.6134999999999984e+00 1.0656442593567498e+01 6.0991138001203815e+00 0 0 0
272 2 1.1074500000000002e+01 1.2077301606043163e+01 6.0991138001203815e+00 0 0 0
274 2 1.1074500000000002e+01 1.0656442593567498e+01 6.0991138001203815e+00 0 0 0
471 2 8.6134999999999984e+00 1.0656442593567498e+01 9.0523470828589492e+00 0 0 0
472 2 9.8440000000000012e+00 1.1366872099805333e+01 9.0523470828589492e+00 0 0 0
495 2 1.1074500000000002e+01 1.0656442593567498e+01 9.0523470828589492e+00 0 0 0
496 2 1.2304999999999998e+01 1.1366872099805333e+01 9.0523470828589492e+00 0 0 0
3912 1 1.5610030319025321e+00 4.6401619757258787e+00 1.1956461520816870e+01 1 1 -1
1278 1 9.5269330460515500e-01 1.8661697060917737e+00 1.2341072014101510e+01 2 1 0
1256 1 5.4364195873471868e+00 1.3845374684017000e+00 1.1824608615240443e+01 1 1 0
1966 1 6.8638458974008021e+00 4.1156095236752988e+00 1.1850725227347315e+01 1 1 0
2022 1 1.0030556955198220e+01 1.1815833082850082e+01 1.1584220360742330e+01 1 1 -1
1225 1 6.6823074679112224e+00 1.0371240075996354e+01 1.2409344267355307e+01 -1 1 0
3421 1 4.2481532830189188e+00 5.9181712667955448e+00 1.1885413419268389e+01 0 1 0
3996 1 1.1188317773368475e+01 7.5299261863883560e+00 1.2407502393494777e+01 -1 1 -1
2653 1 9.3612215613897085e+00 2.7301712458828140e+00 1.1682211750257109e+01 0 0 1
1945 1 9.0414408333737804e+00 9.0376648132941533e+00 1.1626633225212586e+01 0 0 0
1990 1 4.4053096952106854e+00 8.5599715325743979e+00 1.1540404559873611e+01 1 1 0
3279 1 2.8053927786006305e+00 1.0841705845208827e+01 1.1731079341519354e+01 2 -1 -1
1249 1 1.1385814102910144e+01 4.5530902117820773e+00 1.1967240017586809e+01 0 1 0
648 1 3.0197431637629535e+00 1.2385599667358503e-01 1.1537490483117955e+01 1 0 0
2778 1 3.0276359037419907e+00 3.3679153821674328e+00 1.6620162752016725e+01 0 2 0
1380 1 1.0915856350113253e+00 4.8699249808246083e+00 1.4611524621772633e+01 0 -1 -1
3285 1 6.1394616018432995e+00 1.1928318401546656e+01 1.9008792472250740e+01 1 1 1
1351 1 2.2739250522367188e-01 2.2472903591835118e+00 2.0817234078378490e+01 1 0 -1
48 1 7.2989320967613498e+00 9.6565785982984256e+00 2.2881928093273853e+01 0 0 1
3357 1 4.9379413356406792e+00 2.0869311538497950e+00 1.4789404174498259e+01 -1 0 -1
3339 1 8.1788799374641368e+00 4.9546070586808177e+00 1.8430738387109049e+01 0 0 0
3917 1 6.6118003109806853e+00 2.5816579750702204e+00 1.9175091148994063e+01 1 1 0
3282 1 1.0988023830368482e+01 9.1022042573537942e-01 1.4657589068461521e+01 0 1 -1
3970 1 1.9724954433784754e+00 6.8054987336369033e+00 1.7074255102710701e+01 1 1 0
3281 1 9.0030290856999695e+00 4.9483278757916480e+00 1.5805320393206753e+01 1 1 -1
3922 1 7.4688929894815868e+00 1.1762849084139882e+01 1.4771423135453350e+01 0 0 1
2628 1 6.3530169962106413e+00 8.9727946252100610e-01 1.7057646434848806e+01 0 1 0
4015 1 2.5921672651424905e+00 4.5275748125755394e-01 1.7349274094541300e+01 1 1 0
4047 1 2.8819065722191741e+00 9.4049556723536174e+00 1.5775542927304027e+01 1 1 -1
3977 1 3.7029608817375763e+00 1.1385395382861105e+01 1.7847116363110917e+01 0 0 -1
756 1 1.0770225908976533e+01 1.8448003009278888e+00 2.5746761098520434e+01 0 1 1
2007 1 4.8936861048505387e+00 8.5083642518956957e+00 1.4198525009180202e+01 0 0 -1
2725 1 6.4248699305040651e+00 4.5133527445626038e+00 1.4655947044185879e+01 0 0 -1
1244 1 5.8862938573686974e-01 6.1252092577800186e+00 2.5761722818003960e+01 0 1 0
2571 1 4.3734073239373084e+00 2.0334574370779288e+00 2.2765408606612194e+01 1 1 -1
2664 1 2.4733131184809105e+00 3.7775908049544031e+00 2.1497814889920729e+01 0 0 1
3305 1 4.0570653379393136e+00 3.6370773925587030e+00 1.9150675469705515e+01 1 1 0
2663 1 9.5049476860221738e+00 9.5953555829471915e-01 1.7223043606907851e+01 1 1 0
32 1 6.9202353585688074e+00 1.5342819657081495e+00 2.1625541190590901e+01 0 0 0
545 1 1.0651650016111091e+01 3.1027417306674718e+00 1.9316306482700391e+01 0 1 -1
1430 1 1.1062308170021199e+01 3.7683012956772313e+00 1.4587164543441958e+01 0 0 1
3349 1 2.7702825611254491e+00 7.7512205069596360e+00 2.2292766106126674e+01 1 0 0
1297 1 8.8486658408382668e-01 5.8306682750792174e+00 2.3030779182206075e+01 1 1 -1
2702 1 3.6590393159947228e+00 6.7813492860554296e+00 1.9526391721697902e+01 1 0 0
604 1 6.5677727166926632e+00 7.1759807567653615e+00 1.9293185829562958e+01 0 0 -1
1416 1 9.6990729802336801e+00 6.4501562588177093e+00 2.0093714360213788e+01 0 1 0
3325 1 7.2359069032458456e-01 1.8402867468941968e+00 1.5348265554242008e+01 1 0 0
1328 1 7.4721752796453265e+00 9.1426263972020596e+00 1.5561627266556542e+01 1 1 0
2023 1 7.3312341871270981e+00 9.5052656607293962e+00 1.8341768134645481e+01 0 -1 -2
1358 1 5.4860737483976463e+00 1.1555346012475448e+01 2.1743977748765207e+01 0 0 -1
576 1 9.9125948984533974e+00 8.8183164676353822e+00 1.9286551581547343e+01 1 1 0
4027 1 1.1496652431882291e+01 8.7465513595721092e+00 1.6882395173594304e+01 0 0 -1
4018 1 9.7136134238674536e+00 1.0157506546794814e+01 2.2002029155812256e+01 1 1 0
2668 1 2.6780259390483199e+00 1.8178884164383875e+00 2.5845286404784371e+01 1 1 -1
36 1 1.9968212769261384e-01 3.3122029040818957e+00 2.5646487324714382e+01 0 1 0
1325 1 8.9964633364576230e+00 2.4244514621549231e+00 2.3130564419580004e+01 0 1 -1
1953 1 5.3366185481799979e+00 2.8459297386850300e+00 2.5453960823884302e+01 1 1 0
1950 1 1.1524027908247840e+01 1.7890097135958010e+00 2.1802481421884551e+01 2 1 0
1965 1 8.3788123570313200e+00 9.3067575297743481e+00 2.5990397784278088e+01 -1 1 1
2681 1 9.7822591565533799e+00 7.2985662522686576e+00 1.5092460162720915e+01 -2 1 0
587 1 1.1847423309336683e+01 6.5592467440379583e+00 2.2834272778658853e+01 -1 1 -1
1267 1 3.2980875009869051e+00 7.1888447913521469e+00 2.5517079059790909e+01 0 0 0
3988 1 4.9735393308996771e+00 5.9947663109383811e+00 2.2932943311036752e+01 0 0 0
3272 1 5.7364134737879890e+00 5.4966179173597647e+00 2.5662784983483526e+01 1 0 0
2629 1 7.4798409912005486e+00 6.9915909872287401e+00 2.2137565250729839e+01 -1 0 0
2024 1 1.0932590424515970e+01 1.0355250332875835e+01 2.5160304645792969e+01 0 2 0
2036 1 8.2101172720191737e+00 6.4641318209720788e+00 2.5579102666676025e+01 1 1 -1
2718 1 9.3795893165314617e+00 5.3635297973012701e+00 2.3415531417997997e+01 0 1 0
2097 1 9.1223705711332481e-01 1.1819127875511990e+01 2.1693260548065073e+01 0 0 1
2651 1 2.9376838027454273e+00 1.0376676798168166e+01 2.2846264905483736e+01 -1 1 0
2618 1 3.8589997691819380e+00 9.9052731608548061e+00 2.5579572529228926e+01 1 0 -1
2588 1 1.3909036495835991e+00 1.1268053419929716e+01 2.5346801886759351e+01 0 0 0
1413 1 6.4039359240668094e+00 1.1142091663290048e+01 2.5266220900157695e+01 1 0 -1
1381 1 7.4616927540744815e-01 1.0222148628671624e+01 1.4351163090094802e+01 1 0 -1
2793 1 7.8159669357943145e+00 1.1524981369469296e+00 2.5494707310806827e+01 0 2 1
1993 1 4.1381059728677281e+00 5.9836486589147917e+00 1.4864258282386949e+01 1 0 0
627 1 1.0040830304406134e+01 1.2142517124308098e+01 1.4319598965586097e+01 0 1 0
93 2 0.0000000000000000e+00 1.2787731112280996e+01 3.1458805173813245e+00 0 0 0
95 2 1.2305000000000001e+00 1.3498160618518829e+01 3.1458805173813245e+00 0 0 0
130 2 2.4610000000000003e+00 1.2787731112280996e+01 3.1458805173813245e+00 0 0 0
132 2 3.6915000000000004e+00 1.3498160618518829e+01 3.1458805173813245e+00 0 0 0
91 2 0.0000000000000000e+00 1.5629449137232333e+01 3.1458805173813245e+00 0 0 0
126 2 1.2305000000000001e+00 1.4919019630994494e+01 3.1458805173813245e+00 0 0 0
128 2 2.4610000000000003e+00 1.5629449137232328e+01 3.1458805173813245e+00 0 0 0
171 2 3.6915000000000004e+00 1.4919019630994494e+01 3.1458805173813245e+00 0 0 0
175 2 4.9220000000000006e+00 1.2787731112280996e+01 3.1458805173813245e+00 0 0 0
177 2 6.1524999999999990e+00 1.3498160618518829e+01 3.1458805173813245e+00 0 0 0
222 2 7.3829999999999991e+00 1.2787731112280996e+01 3.1458805173813245e+00 0 0 0
173 2 4.9220000000000006e+00 1.5629449137232333e+01 3.1458805173813245e+00 0 0 0
218 2 6.1524999999999990e+00 1.4919019630994494e+01 3.1458805173813245e+00 0 0 0
220 2 7.3829999999999991e+00 1.5629449137232333e+01 3.1458805173813245e+00 0 0 0
224 2 8.6135000000000002e+00 1.3498160618518835e+01 3.1458805173813245e+00 0 0 0
269 2 9.8440000000000012e+00 1.2787731112280996e+01 3.1458805173813245e+00 0 0 0
271 2 1.1074500000000002e+01 1.3498160618518829e+01 3.1458805173813245e+00 0 0 0
265 2 8.6135000000000002e+00 1.4919019630994494e+01 3.1458805173813245e+00 0 0 0
267 2 9.8440000000000012e+00 1.5629449137232328e+01 3.1458805173813245e+00 0 0 0
307 2 1.1074500000000002e+01 1.4919019630994494e+01 3.1458805173813245e+00 0 0 0
122 2 0.0000000000000000e+00 1.7050308149707998e+01 3.1458805173813245e+00 0 0 0
167 2 2.4610000000000003e+00 1.7050308149707998e+01 3.1458805173813245e+00 0 0 0
120 2 0.0000000000000000e+00 1.9892026174659328e+01 3.1458805173813245e+00 0 0 0
124 2 1.2305000000000001e+00 1.7760737655945832e+01 3.1458805173813245e+00 0 0 0
163 2 1.2305000000000001e+00 1.9181596668421495e+01 3.1458805173813245e+00 0 0 0
165 2 2.4610000000000003e+00 1.9892026174659328e+01 3.1458805173813245e+00 0 0 0
169 2 3.6914999999999996e+00 1.7760737655945832e+01 3.1458805173813245e+00 0 0 0
210 2 3.6914999999999996e+00 1.9181596668421495e+01 3.1458805173813245e+00 0 0 0
214 2 4.9220000000000006e+00 1.7050308149707998e+01 3.1458805173813245e+00 0 0 0
261 2 7.3830000000000009e+00 1.7050308149707998e+01 3.1458805173813245e+00 0 0 0
212 2 4.9220000000000006e+00 1.9892026174659328e+01 3.1458805173813245e+00 0 0 0
216 2 6.1524999999999999e+00 1.7760737655945832e+01 3.1458805173813245e+00 0 0 0
257 2 6.1524999999999999e+00 1.9181596668421495e+01 3.1458805173813245e+00 0 0 0
259 2 7.3829999999999991e+00 1.9892026174659328e+01 3.1458805173813245e+00 0 0 0
303 2 9.8440000000000012e+00 1.7050308149707998e+01 3.1458805173813245e+00 0 0 0
337 2 1.2304999999999998e+01 1.7050308149707998e+01 3.1458805173813245e+00 0 0 0
263 2 8.6134999999999984e+00 1.7760737655945832e+01 3.1458805173813245e+00 0 0 0
299 2 8.6135000000000002e+00 1.9181596668421495e+01 3.1458805173813245e+00 0 0 0
301 2 9.8440000000000012e+00 1.9892026174659335e+01 3.1458805173813245e+00 0 0 0
305 2 1.1074500000000002e+01 1.7760737655945835e+01 3.1458805173813245e+00 0 0 0
333 2 1.1074500000000002e+01 1.9181596668421495e+01 3.1458805173813245e+00 0 0 0
157 2 0.0000000000000000e+00 2.4154603212086325e+01 3.1458805173813245e+00 0 0 0
159 2 0.0000000000000000e+00 2.1312885187134999e+01 3.1458805173813245e+00 0 0 0
161 2 1.2304999999999993e+00 2.2023314693372832e+01 3.1458805173813245e+00 0 0 0
202 2 1.2304999999999993e+00 2.3444173705848499e+01 3.1458805173813245e+00 0 0 0
204 2 2.4610000000000003e+00 2.4154603212086325e+01 3.1458805173813245e+00 0 0 0
206 2 2.4610000000000003e+00 2.1312885187134995e+01 3.1458805173813245e+00 0 0 0
208 2 3.6914999999999996e+00 2.2023314693372832e+01 3.1458805173813245e+00 0 0 0
249 2 3.6915000000000004e+00 2.3444173705848499e+01 3.1458805173813245e+00 0 0 0
251 2 4.9220000000000006e+00 2.4154603212086325e+01 3.1458805173813245e+00 0 0 0
253 2 4.9220000000000006e+00 2.1312885187134995e+01 3.1458805173813245e+00 0 0 0
255 2 6.1524999999999990e+00 2.2023314693372832e+01 3.1458805173813245e+00 0 0 0
291 2 6.1524999999999999e+00 2.3444173705848499e+01 3.1458805173813245e+00 0 0 0
293 2 7.3830000000000009e+00 2.4154603212086336e+01 3.1458805173813245e+00 0 0 0
295 2 7.3829999999999991e+00 2.1312885187134999e+01 3.1458805173813245e+00 0 0 0
297 2 8.6135000000000002e+00 2.2023314693372832e+01 3.1458805173813245e+00 0 0 0
325 2 8.6134999999999984e+00 2.3444173705848499e+01 3.1458805173813245e+00 0 0 0
327 2 9.8440000000000012e+00 2.4154603212086336e+01 3.1458805173813245e+00 0 0 0
329 2 9.8440000000000012e+00 2.1312885187134999e+01 3.1458805173813245e+00 0 0 0
331 2 1.1074500000000002e+01 2.2023314693372832e+01 3.1458805173813245e+00 0 0 0
351 2 1.1074500000000002e+01 2.3444173705848499e+01 3.1458805173813245e+00 0 0 0
94 2 0.0000000000000000e+00 1.2787731112280996e+01 6.0991138001203815e+00 0 0 0
131 2 2.4610000000000003e+00 1.2787731112280996e+01 6.0991138001203815e+00 0 0 0
403 2 0.0000000000000000e+00 1.2787731112280996e+01 9.0523470828589492e+00 0 0 0
404 2 1.2305000000000001e+00 1.3498160618518829e+01 9.0523470828589492e+00 0 0 0
422 2 2.4610000000000003e+00 1.2787731112280996e+01 9.0523470828589492e+00 0 0 0
423 2 3.6915000000000004e+00 1.3498160618518829e+01 9.0523470828589492e+00 0 0 0
92 2 0.0000000000000000e+00 1.4208590124756663e+01 6.0991138001203815e+00 0 0 0
127 2 1.2305000000000001e+00 1.4919019630994494e+01 6.0991138001203815e+00 0 0 0
129 2 2.4610000000000003e+00 1.4208590124756663e+01 6.0991138001203815e+00 0 0 0
172 2 3.6915000000000004e+00 1.4919019630994494e+01 6.0991138001203815e+00 0 0 0
402 2 0.0000000000000000e+00 1.5629449137232333e+01 9.0523470828589492e+00 0 0 0
420 2 1.2305000000000001e+00 1.4919019630994494e+01 9.0523470828589492e+00 0 0 0
421 2 2.4610000000000003e+00 1.5629449137232328e+01 9.0523470828589492e+00 0 0 0
443 2 3.6915000000000004e+00 1.4919019630994494e+01 9.0523470828589492e+00 0 0 0
176 2 4.9220000000000006e+00 1.2787731112280996e+01 6.0991138001203815e+00 0 0 0
223 2 7.3829999999999991e+00 1.2787731112280996e+01 6.0991138001203815e+00 0 0 0
445 2 4.9220000000000006e+00 1.2787731112280996e+01 9.0523470828589492e+00 0 0 0
446 2 6.1524999999999990e+00 1.3498160618518829e+01 9.0523470828589492e+00 0 0 0
469 2 7.3829999999999991e+00 1.2787731112280996e+01 9.0523470828589492e+00 0 0 0
174 2 4.9220000000000006e+00 1.4208590124756663e+01 6.0991138001203815e+00 0 0 0
219 2 6.1524999999999990e+00 1.4919019630994494e+01 6.0991138001203815e+00 0 0 0
221 2 7.3830000000000009e+00 1.4208590124756663e+01 6.0991138001203815e+00 0 0 0
444 2 4.9220000000000006e+00 1.5629449137232333e+01 9.0523470828589492e+00 0 0 0
467 2 6.1524999999999990e+00 1.4919019630994494e+01 9.0523470828589492e+00 0 0 0
468 2 7.3829999999999991e+00 1.5629449137232333e+01 9.0523470828589492e+00 0 0 0
270 2 9.8440000000000012e+00 1.2787731112280996e+01 6.0991138001203815e+00 0 0 0
470 2 8.6135000000000002e+00 1.3498160618518835e+01 9.0523470828589492e+00 0 0 0
493 2 9.8440000000000012e+00 1.2787731112280996e+01 9.0523470828589492e+00 0 0 0
494 2 1.1074500000000002e+01 1.3498160618518829e+01 9.0523470828589492e+00 0 0 0
266 2 8.6135000000000002e+00 1.4919019630994494e+01 6.0991138001203815e+00 0 0 0
268 2 9.8440000000000012e+00 1.4208590124756663e+01 6.0991138001203815e+00 0 0 0
306 2 1.1074500000000002e+01 1.6339878643470161e+01 6.0991138001203815e+00 0 0 0
308 2 1.1074500000000002e+01 1.4919019630994494e+01 6.0991138001203815e+00 0 0 0
310 2 1.2304999999999998e+01 1.4208590124756658e+01 6.0991138001203815e+00 0 0 0
491 2 8.6135000000000002e+00 1.4919019630994494e+01 9.0523470828589492e+00 0 0 0
492 2 9.8440000000000012e+00 1.5629449137232328e+01 9.0523470828589492e+00 0 0 0
512 2 1.1074500000000002e+01 1.4919019630994494e+01 9.0523470828589492e+00 0 0 0
123 2 0.0000000000000000e+00 1.7050308149707998e+01 6.0991138001203815e+00 0 0 0
125 2 1.2305000000000001e+00 1.6339878643470165e+01 6.0991138001203815e+00 0 0 0
168 2 2.4610000000000003e+00 1.7050308149707998e+01 6.0991138001203815e+00 0 0 0
170 2 3.6915000000000004e+00 1.6339878643470165e+01 6.0991138001203815e+00 0 0 0
418 2 0.0000000000000000e+00 1.7050308149707998e+01 9.0523470828589492e+00 0 0 0
441 2 2.4610000000000003e+00 1.7050308149707998e+01 9.0523470828589492e+00 0 0 0
121 2 0.0000000000000000e+00 1.8471167162183658e+01 6.0991138001203815e+00 0 0 0
164 2 1.2305000000000001e+00 1.9181596668421495e+01 6.0991138001203815e+00 0 0 0