LAMMPS data file via write_data, version 16 Mar 2018, timestep = 6000000

6589 atoms
2 atom types

0.0000000000000000e+00 4.9219999999999999e+01 xlo xhi
0.0000000000000000e+00 4.9019635930410494e+01 ylo yhi
-5.9036235063103959e-02 6.0121036235051960e+01 zlo zhi

Masses

1 18.015
2 12.01

Atoms # atomic

5092 1 2.1752865768505725e+00 2.3417642990974259e+00 2.6187558169997671e+00 2 1 0
6326 1 1.2530798160583848e-01 1.4820077089422277e+00 1.1496710420250451e+00 2 0 1
5248 1 4.5858077546748692e+00 1.2409595018897301e+00 1.4408766598071641e+00 2 2 0
5010 1 6.9277643103444380e+00 2.3530270564235680e+00 2.5119508404678137e+00 0 4 0
6370 1 9.1042869127327162e+00 1.1338600441524909e+00 1.3102173971092637e+00 1 -2 1
3313 1 1.1429994363341207e+01 1.8949539447336283e+00 2.4492385144550806e+00 2 -1 0
5251 1 2.6667998254449579e+00 4.7954160989935515e+00 1.7213217917331618e+00 -1 -2 0
3704 1 5.0742054647854584e-01 6.3615114174564900e+00 2.1497711290129859e+00 2 1 0
4590 1 6.9548714738836424e+00 4.8042391826378825e+00 1.4716306209361063e+00 2 -3 1
2164 1 4.8295029268807443e+00 6.0625442219550258e+00 2.6402549244973410e+00 -5 3 1
5470 1 1.1519258122029241e+01 4.3433516651448718e+00 1.3800863968323198e+00 4 0 1
1349 1 9.3443991481369348e+00 5.7436189115405947e+00 2.1334430258822028e+00 1 -1 1
1300 1 2.8554487141124172e+00 1.0041272717669059e+01 2.4302312857986568e+00 1 0 1
4976 1 1.0696997312683763e+00 8.6533696314824819e+00 7.8690621365418045e-01 -2 2 0
311 1 4.6493138205994526e+00 8.3659960036897232e+00 1.5488664563281924e+00 -1 1 0
3654 1 7.1994787618675273e+00 9.4945404819824102e+00 2.0444775421216663e+00 -1 -1 0
6235 1 7.4132811127981393e+00 1.1911198238286072e+01 1.1015704334861485e+00 1 0 1
1377 1 1.1855383308951643e+01 1.1886299874972771e+01 1.2969333819546316e+00 2 0 1
5162 1 9.6913734967330392e+00 8.2558271860502721e+00 1.0355816067057986e+00 0 1 0
2943 1 1.1795540350864187e+01 9.4154842848295193e+00 2.2590585121001694e+00 -1 0 1
2157 1 9.4842521735872731e-01 1.6154043742724884e+01 1.2662072124985397e+00 0 -1 1
4630 1 2.7590264714354635e+00 1.2585882288075789e+01 1.3406011096495258e+00 0 2 1
6299 1 5.3086374166169827e+00 1.3287369268713023e+01 2.0250749694166310e+00 3 2 1
1948 1 4.8063855898697652e+00 1.5867696131714837e+01 9.4601557556858795e-01 3 -2 0
494 1 9.5550989337943140e+00 1.5775446938972779e+01 8.0612004467307463e-01 -1 0 0
5342 1 9.6905111642566624e+00 1.3233483116593419e+01 1.9846714200455691e+00 -2 1 0
1370 1 2.0205086357256676e+00 2.4874663766935501e+00 5.4385926337417887e+00 4 -1 1
1725 1 4.6419696165251425e+00 3.2694508594493459e+00 6.1222721202302948e+00 2 3 0
3856 1 6.8716282524636894e+00 2.0639202538870873e+00 5.1163478125207886e+00 0 4 1
552 1 8.9911628195733950e+00 3.6017382959146222e+00 5.8971031709905821e+00 2 -1 1
2995 1 1.1140082344263533e+01 2.0445950569477978e+00 5.3238673652787112e+00 0 2 1
4994 1 2.4205224526329165e+00 7.2674397164450255e+00 5.9772145558807805e+00 2 2 0
3420 1 1.1055205370617216e-02 6.6092692528883958e+00 5.0407948243643856e+00 1 -2 0
3211 1 4.6337842778852849e+00 5.7756769050380106e+00 5.3522394628566463e+00 2 1 1
6484 1 6.7720449968303251e+00 7.1211330637515777e+00 6.1427225541302892e+00 1 5 1
3121 1 1.1407975649296922e+01 6.8742357678761952e+00 6.4461210622026206e+00 2 3 0
3374 1 9.0995126406945115e+00 6.1248638120263399e+00 4.9108472673555026e+00 -2 2 0
1439 1 2.4441478261006528e+00 9.9825042512176569e+00 5.1478628550637087e+00 1 2 1
4842 1 4.6971435781159681e+00 1.0997905866195683e+01 5.9105678167090154e+00 2 0 1
2911 1 6.8880348647606935e+00 9.6700552157469080e+00 4.9840672971460611e+00 5 3 1
4927 1 9.2553588452515392e+00 1.0588131928564673e+01 5.8409848418977734e+00 0 0 1
1467 1 1.1772873291247203e+01 9.3861779610170810e+00 5.1544755037835666e+00 -3 -3 1
3473 1 2.1178146015828023e+00 1.4467535244626450e+01 5.4388660140371421e+00 2 -2 0
1727 1 4.8147914671870309e+00 1.3494075635988525e+01 4.8865914639742947e+00 3 3 0
1659 1 7.0390335664412857e+00 1.4456862634750552e+01 5.7864827161807844e+00 0 0 1
70 1 1.1580928872587078e+01 1.4067847369038134e+01 5.7107367774146915e+00 -1 2 0
2219 1 9.2324705788657475e+00 1.3012438227974089e+01 4.7205714081324128e+00 1 2 0
4682 1 4.3414881760212518e+00 1.1421926036251480e+00 9.8708471251411805e+00 -1 -2 1
2039 1 4.4035736184952139e+00 3.5395479413172941e+00 8.8632450579465143e+00 -1 6 0
5000 1 9.0454928007177919e+00 1.0729895428472287e+00 9.2261454906973519e+00 1 2 0
3217 1 8.8419131446369903e+00 3.7553806240180094e+00 8.6760850690840137e+00 -1 2 0
3326 1 1.9262626672069942e+00 4.8555995469134698e+00 9.7204868134711120e+00 -1 0 0
3123 1 2.1072999117569169e+00 7.3517940025980106e+00 8.7740694361046181e+00 -3 4 0
5059 1 6.7025136334264053e+00 4.7813197621304457e+00 9.8731599980337439e+00 1 3 0
1807 1 6.6845516617292322e+00 7.1888391824292306e+00 8.7268638294859961e+00 1 2 0
2014 1 1.1273815815338232e+01 4.1278994701859473e+00 9.8613627869685203e+00 -3 0 0
1999 1 1.1150085258928087e+01 6.8985096175102987e+00 9.2144741114983137e+00 -2 2 0
306 1 4.2704025451905006e-02 1.1316819272809973e+01 8.5349873596851005e+00 0 -1 0
2142 1 4.7452487805781507e+00 1.1017752819155671e+01 8.6075022573926105e+00 -1 0 1
3028 1 4.2912312553866556e+00 8.4620490367152925e+00 9.5233463130648843e+00 -5 0 0
6432 1 7.0359326033775282e+00 1.2072915292835805e+01 9.6793164738539161e+00 0 2 0
91 1 9.0899399973084591e+00 8.4304616684037583e+00 9.6928497553352706e+00 1 5 1
4862 1 1.1858179734463032e+01 1.1709734781102135e+01 9.5054454495712548e+00 -1 -1 1
547 1 9.2962092996525190e+00 1.0984924924178125e+01 8.5814278566549085e+00 1 0 1
6313 1 2.5334694373087912e+00 1.4817252149151798e+01 8.3633189847665683e+00 2 -3 1
2260 1 3.1589660116811885e-01 1.6073652925141168e+01 9.5464079000666278e+00 1 1 1
2150 1 2.3785444451279267e+00 1.2275620485000417e+01 9.3809088956063231e+00 1 0 0
1322 1 7.4231610502704113e+00 1.4418269019160720e+01 8.4640743415935535e+00 0 -1 1
513 1 4.9894785729331996e+00 1.5719004327455448e+01 9.4859229707443156e+00 2 2 0
6271 1 1.2036635693464811e+01 1.4355428320411793e+01 8.6056949972608585e+00 1 -2 1
336 1 9.7137075010469349e+00 1.5625418105387411e+01 9.3935423683930885e+00 1 -1 0
437 1 2.1446164910500602e+00 2.5596848850678398e+00 1.3403562608795665e+01 0 1 1
5211 1 6.7264577225237066e+00 2.3814381038312180e+00 1.3268330907582284e+01 2 0 1
5306 1 4.4728589121380820e+00 1.2034128408843452e+00 1.2511093870137779e+01 0 0 0
3858 1 1.1393119339900213e+01 1.5056512212965218e+00 1.3315984483802392e+01 2 1 1
5522 1 8.6593417912831150e+00 7.7403556311914312e-01 1.2274206076018865e+01 -1 2 1
5405 1 1.7879702405780102e+00 5.1581186467325999e+00 1.2538630824082469e+01 -5 0 0
4817 1 4.0535543820810309e+00 6.0142398254042275e+00 1.3211102854917492e+01 2 -1 0
3279 1 6.8186624418068646e+00 5.0131496798519386e+00 1.2568154408372044e+01 0 0 1
5302 1 4.3099201715138555e+00 5.9009944279935178e+00 1.5807904149497931e+01 0 -3 0
4891 1 9.3131455359151545e+00 5.7314687014064489e+00 1.3553684378892928e+01 1 0 1
114 1 1.1193245110108210e+01 4.0992630202338738e+00 1.2757929131790258e+01 1 1 0
2961 1 9.5395931363294793e+00 8.1603931256334441e+00 1.2708985451186454e+01 -1 1 1
4781 1 2.2556105930210228e+00 1.0085157511854979e+01 1.2795855989726006e+01 1 2 1
6364 1 2.3293548993850832e+00 9.7280518970733088e+00 1.5614103581458442e+01 0 1 1
378 1 7.1412667335261757e+00 1.2165719823985755e+01 1.2476128852847740e+01 1 -2 0
3467 1 7.1455518696752760e+00 9.5031558710078681e+00 1.2880913969195936e+01 0 2 0
4973 1 4.6804031483679465e+00 8.5495965849704660e+00 1.2098611966034994e+01 3 1 1
4576 1 6.9433863976130086e+00 9.5367140125491812e+00 1.5802059932901244e+01 0 0 1
4587 1 1.2010271533359546e+01 9.1638370100510986e+00 1.3253327535369506e+01 -4 0 0
4662 1 1.1701860911983193e+01 9.1123707036925907e+00 1.5835537360080910e+01 -1 2 1
4861 1 1.1867204167483465e+01 1.1630871471862205e+01 1.2216693812184444e+01 0 -1 1
278 1 2.3317338535002978e+00 1.2562752361227570e+01 1.2316387399538945e+01 1 -1 0
6441 1 4.9931363782366933e+00 1.5787335032232978e+01 1.2392236581146163e+01 1 0 1
3119 1 4.8755719645393416e+00 1.3175395318116340e+01 1.3653628137100071e+01 -1 1 0
1294 1 9.5910297530534159e+00 1.5734117491408377e+01 1.2183565655014373e+01 4 -2 1
2937 1 9.6902125585905292e+00 1.3129334580646853e+01 1.2985725957687752e+01 2 0 1
1502 1 9.7913645905416509e+00 1.3233544416668927e+01 1.5577772137863674e+01 0 1 0
3424 1 2.0057285114911481e+00 2.4678205948043250e+00 1.6203450321274477e+01 0 -1 0
3578 1 2.3772904755222481e+00 2.4009336943851802e+00 1.9782344453125894e+01 0 0 1
5546 1 6.6947846327628850e+00 2.0585034624514247e+00 1.5999984315823564e+01 1 3 0
5485 1 4.7323642986022545e+00 9.4252387750997146e-01 1.9227629033202010e+01 1 3 1
3510 1 4.3568051264576795e+00 9.9138021107591134e-01 1.6605825728576367e+01 -2 0 1
4730 1 1.1361724333765965e+01 1.9434105037591234e+00 1.6104821169466643e+01 -1 0 1
6454 1 9.1852528940802127e+00 6.2799533059619062e-01 1.9309391881845027e+01 1 0 0
1728 1 8.9609555750028136e+00 6.0164006040042950e-01 1.6742525398186604e+01 0 2 1
3118 1 1.8114918851383932e+00 5.0889279037588322e+00 1.6811182148485450e+01 3 -2 0
4950 1 2.1990862836338247e+00 5.0011368708189563e+00 1.9406647239940209e+01 1 1 0
2086 1 6.7390542007129879e+00 4.6449920292859037e+00 1.6788536701795806e+01 -2 1 0
3402 1 6.9508277224037949e+00 4.4140926550780915e+00 1.9445802521879223e+01 3 0 0
6345 1 1.1881144072564233e+01 4.3785545583269867e+00 1.6800275729486657e+01 0 2 1
4906 1 1.1712658604621579e+01 4.4816355083958603e+00 1.9636855646619836e+01 0 2 1
1457 1 9.4900302506352627e+00 5.6112544806440896e+00 1.6315764991789194e+01 2 1 1
5121 1 2.4855724215951649e+00 1.2238692974269902e+01 1.9644883573879365e+01 1 2 0
1649 1 2.3659238293815226e+00 1.2161421053568320e+01 1.6720188541118517e+01 -2 -1 1
5235 1 7.0674281064146554e+00 1.1795961874894905e+01 1.9574497793657656e+01 0 -2 0
3185 1 4.3814072847962846e+00 8.4957564199116682e+00 1.6668190734701170e+01 1 2 1
216 1 4.5473434506075092e+00 8.2464133523004897e+00 1.9634319409585441e+01 0 0 0
4932 1 7.2843182845487640e+00 1.1862149346723918e+01 1.6875416780103116e+01 0 1 1
578 1 9.2599123647129851e+00 8.2665890070644501e+00 1.6714334108151235e+01 0 0 0
6391 1 9.3455422737878049e+00 8.2479478873250223e+00 1.9477386881231258e+01 2 0 1
479 1 1.1564128920476520e+01 1.1826035518337733e+01 1.9787437752820210e+01 2 -1 1
3229 1 1.1700453530299695e+01 1.1612305878335842e+01 1.6918508709718001e+01 0 2 0
3432 1 2.6773323528534948e-01 1.6171850508721345e+01 1.9586638652575175e+01 0 -1 1
1780 1 4.9347481787557363e+00 1.5701915235873718e+01 1.9731193220552463e+01 -2 0 0
6541 1 4.8542346655028377e+00 1.3164747910095606e+01 1.6313029295459927e+01 0 -1 0
5514 1 5.0572777879463722e+00 1.5706665522992655e+01 1.7165284263261345e+01 1 2 1
2080 1 9.2154269330538980e+00 1.5608554986022423e+01 1.9625427754396135e+01 -2 0 0
325 1 9.6687755578484680e+00 1.5996268561957708e+01 1.6927426401106089e+01 0 -1 0
5528 1 2.1352620558602622e+00 2.6486890098913709e+00 2.2554848664175339e+01 -1 0 1
3602 1 4.3198046223628221e+00 1.4155672124189935e+00 2.3936842910009130e+01 0 0 0
4798 1 6.6471689328661938e+00 2.2597508699950470e+00 2.3138860671244910e+01 0 0 1
5006 1 7.2029316127763225e+00 1.9848274035357780e+00 2.0323628336581649e+01 2 -1 1
6280 1 1.1277288110923820e+01 1.8865330749349518e+00 2.3171951754021819e+01 0 -3 1
6349 1 1.1526644620428362e+01 1.8387583115514936e+00 2.0519273816090418e+01 -2 -1 1
6388 1 2.6637633237648117e-02 6.4120003457893393e+00 2.0541780831599205e+01 1 2 1
1402 1 2.2420620712202677e+00 5.1175230255470430e+00 2.3995665778808707e+01 5 1 1
2922 1 4.6258536197536211e+00 5.6732323306915537e+00 2.0411523335537289e+01 2 -1 1
3527 1 4.5511581454322787e+00 6.1114575857905029e+00 2.3200865006089575e+01 2 -2 0
320 1 6.7719849387300206e+00 4.8494717905595133e+00 2.3733905698646549e+01 -3 -1 1
447 1 9.3456851645631271e+00 5.7596216689847406e+00 2.0350804365439444e+01 1 2 0
5478 1 9.4982788619680196e+00 6.1044866144539407e+00 2.3444022188074165e+01 0 3 1
1993 1 1.1688700941630444e+01 4.3986632279189344e+00 2.3670210834345049e+01 -3 3 0
5164 1 2.2133610261978540e+00 9.5574731367462178e+00 2.0784078720485347e+01 1 -1 0
5386 1 2.3904288267768781e+00 9.9297737682352345e+00 2.3431588160523308e+01 -3 5 0
5260 1 7.8062059299680020e-02 8.7384052564403678e+00 2.3981606129529780e+01 1 3 0
6579 1 7.0662658566914196e+00 9.5767636558217735e+00 2.3327895928074561e+01 1 1 0
1710 1 7.0050965765603985e+00 9.1660283608530406e+00 2.0687875621407418e+01 -2 0 0
43 1 4.6105539323992604e+00 8.5348290458068394e+00 2.3929992108895576e+01 1 -1 1
1849 1 1.1975036594506284e+01 9.2497217964791165e+00 2.3200466932473095e+01 -1 2 1
3080 1 1.1814485131010654e+01 9.1968149002180777e+00 2.0381668381143037e+01 0 0 1
3084 1 1.2092158110249155e+01 1.1985766995207234e+01 2.3797860745392377e+01 -3 -3 1
3324 1 2.9484400660616944e-01 1.3555273154743674e+01 2.0472604673050178e+01 2 -1 0
1594 1 2.8925067553446726e-01 1.3781302155213636e+01 2.3220239386333098e+01 2 0 1
4936 1 5.1475728041016033e+00 1.3531261337286354e+01 2.3014614606842162e+01 0 3 1
4739 1 4.9957466239935782e+00 1.3237466273076157e+01 2.0338844522053218e+01 2 2 0
1364 1 9.5361590440105015e+00 1.3235354427562511e+01 2.3554480169665737e+01 0 -2 1
5066 1 9.2346297100759820e+00 1.3184447967595386e+01 2.0618511995173556e+01 2 1 0
1503 1 9.7273537283159115e+00 1.5782944883893975e+01 2.4012219635368773e+01 0 -1 0
594 2 0.0000000000000000e+00 2.8417180249513345e+00 2.6653574888308558e+01 0 0 0
596 2 0.0000000000000000e+00 0.0000000000000000e+00 2.6653574888308558e+01 0 0 0
598 2 1.2305000000000001e+00 7.1042950623783474e-01 2.6653574888308558e+01 0 0 0
605 2 1.2305000000000001e+00 2.1312885187134998e+00 2.6653574888308558e+01 0 0 0
607 2 2.4610000000000003e+00 2.8417180249513345e+00 2.6653574888308558e+01 0 0 0
609 2 2.4610000000000003e+00 0.0000000000000000e+00 2.6653574888308558e+01 0 0 0
611 2 3.6915000000000004e+00 7.1042950623783474e-01 2.6653574888308558e+01 0 0 0
626 2 3.6914999999999996e+00 2.1312885187134998e+00 2.6653574888308558e+01 0 0 0
628 2 4.9220000000000006e+00 2.8417180249513332e+00 2.6653574888308558e+01 0 0 0
630 2 4.9220000000000006e+00 0.0000000000000000e+00 2.6653574888308558e+01 0 0 0
632 2 6.1524999999999999e+00 7.1042950623783407e-01 2.6653574888308558e+01 0 0 0
655 2 6.1524999999999999e+00 2.1312885187134989e+00 2.6653574888308558e+01 0 0 0
657 2 7.3829999999999991e+00 2.8417180249513345e+00 2.6653574888308558e+01 0 0 0
659 2 7.3829999999999991e+00 0.0000000000000000e+00 2.6653574888308558e+01 0 0 0
661 2 8.6134999999999984e+00 7.1042950623783407e-01 2.6653574888308558e+01 0 0 0
692 2 8.6134999999999984e+00 2.1312885187135002e+00 2.6653574888308558e+01 0 0 0
694 2 9.8440000000000012e+00 2.8417180249513332e+00 2.6653574888308558e+01 0 0 0
696 2 9.8440000000000012e+00 0.0000000000000000e+00 2.6653574888308558e+01 0 0 0
698 2 1.1074500000000002e+01 7.1042950623783330e-01 2.6653574888308558e+01 0 0 0
737 2 1.1074500000000002e+01 2.1312885187135002e+00 2.6653574888308558e+01 0 0 0
5247 1 9.0219924448043916e+00 9.3970397424635155e-01 2.4249513069596834e+01 1 0 0
599 2 0.0000000000000000e+00 7.1042950623783341e+00 2.6653574888308558e+01 0 0 0
601 2 0.0000000000000000e+00 4.2625770374269996e+00 2.6653574888308558e+01 0 0 0
603 2 1.2305000000000001e+00 4.9730065436648339e+00 2.6653574888308558e+01 0 0 0
618 2 1.2305000000000001e+00 6.3938655561404980e+00 2.6653574888308558e+01 0 0 0
620 2 2.4610000000000003e+00 7.1042950623783341e+00 2.6653574888308558e+01 0 0 0
622 2 2.4610000000000003e+00 4.2625770374269996e+00 2.6653574888308558e+01 0 0 0
624 2 3.6914999999999996e+00 4.9730065436648339e+00 2.6653574888308558e+01 0 0 0
647 2 3.6914999999999996e+00 6.3938655561404980e+00 2.6653574888308558e+01 0 0 0
649 2 4.9220000000000006e+00 7.1042950623783341e+00 2.6653574888308558e+01 0 0 0
651 2 4.9220000000000006e+00 4.2625770374269978e+00 2.6653574888308558e+01 0 0 0
653 2 6.1524999999999999e+00 4.9730065436648339e+00 2.6653574888308558e+01 0 0 0
684 2 6.1524999999999999e+00 6.3938655561404980e+00 2.6653574888308558e+01 0 0 0
686 2 7.3830000000000009e+00 7.1042950623783341e+00 2.6653574888308558e+01 0 0 0
688 2 7.3829999999999991e+00 4.2625770374269996e+00 2.6653574888308558e+01 0 0 0
690 2 8.6135000000000002e+00 4.9730065436648339e+00 2.6653574888308558e+01 0 0 0
729 2 8.6135000000000002e+00 6.3938655561404980e+00 2.6653574888308558e+01 0 0 0
731 2 9.8440000000000012e+00 7.1042950623783341e+00 2.6653574888308558e+01 0 0 0
733 2 9.8440000000000012e+00 4.2625770374270004e+00 2.6653574888308558e+01 0 0 0
735 2 1.1074500000000002e+01 4.9730065436648339e+00 2.6653574888308558e+01 0 0 0
776 2 1.1074500000000002e+01 6.3938655561404980e+00 2.6653574888308558e+01 0 0 0
612 2 0.0000000000000000e+00 1.1366872099805333e+01 2.6653574888308558e+01 0 0 0
614 2 0.0000000000000000e+00 8.5251540748539991e+00 2.6653574888308558e+01 0 0 0
616 2 1.2305000000000001e+00 9.2355835810918343e+00 2.6653574888308558e+01 0 0 0
639 2 1.2305000000000001e+00 1.0656442593567498e+01 2.6653574888308558e+01 0 0 0
641 2 2.4610000000000003e+00 1.1366872099805333e+01 2.6653574888308558e+01 0 0 0
643 2 2.4610000000000003e+00 8.5251540748539991e+00 2.6653574888308558e+01 0 0 0
645 2 3.6915000000000004e+00 9.2355835810918343e+00 2.6653574888308558e+01 0 0 0
676 2 3.6914999999999996e+00 1.0656442593567499e+01 2.6653574888308558e+01 0 0 0
678 2 4.9220000000000006e+00 1.1366872099805333e+01 2.6653574888308558e+01 0 0 0
680 2 4.9220000000000006e+00 8.5251540748539991e+00 2.6653574888308558e+01 0 0 0
682 2 6.1524999999999999e+00 9.2355835810918343e+00 2.6653574888308558e+01 0 0 0
721 2 6.1524999999999999e+00 1.0656442593567499e+01 2.6653574888308558e+01 0 0 0
723 2 7.3829999999999991e+00 1.1366872099805333e+01 2.6653574888308558e+01 0 0 0
725 2 7.3830000000000009e+00 8.5251540748539991e+00 2.6653574888308558e+01 0 0 0
3400 1 7.1606604648343808e+00 1.2022933957454851e+01 2.4382180298715497e+01 -2 0 0
727 2 8.6134999999999984e+00 9.2355835810918343e+00 2.6653574888308558e+01 0 0 0
768 2 8.6134999999999984e+00 1.0656442593567498e+01 2.6653574888308558e+01 0 0 0
770 2 9.8440000000000012e+00 1.1366872099805333e+01 2.6653574888308558e+01 0 0 0
772 2 9.8440000000000012e+00 8.5251540748539956e+00 2.6653574888308558e+01 0 0 0
774 2 1.1074500000000002e+01 9.2355835810918343e+00 2.6653574888308558e+01 0 0 0
815 2 1.1074500000000002e+01 1.0656442593567498e+01 2.6653574888308558e+01 0 0 0
817 2 1.2304999999999998e+01 1.1366872099805333e+01 2.6653574888308558e+01 0 0 0
1562 1 9.3029146701682013e+00 8.5033790072073216e+00 2.4466883733428226e+01 1 -2 1
293 1 4.1037190507477639e-01 1.6278243574520499e+01 2.4039419227810004e+01 0 -1 0
633 2 0.0000000000000000e+00 1.5629449137232333e+01 2.6653574888308558e+01 0 0 0
635 2 0.0000000000000000e+00 1.2787731112280996e+01 2.6653574888308558e+01 0 0 0
637 2 1.2305000000000001e+00 1.3498160618518829e+01 2.6653574888308558e+01 0 0 0
668 2 1.2305000000000001e+00 1.4919019630994494e+01 2.6653574888308558e+01 0 0 0
670 2 2.4610000000000003e+00 1.5629449137232328e+01 2.6653574888308558e+01 0 0 0
672 2 2.4610000000000003e+00 1.2787731112280996e+01 2.6653574888308558e+01 0 0 0
674 2 3.6915000000000004e+00 1.3498160618518829e+01 2.6653574888308558e+01 0 0 0
713 2 3.6915000000000004e+00 1.4919019630994494e+01 2.6653574888308558e+01 0 0 0
3056 1 2.6757405859888479e+00 1.2719382345270121e+01 2.4106470499406665e+01 3 -3 1
3348 1 4.9976031368758633e+00 1.6035915345554706e+01 2.4162639373985481e+01 4 -2 0
715 2 4.9220000000000006e+00 1.5629449137232333e+01 2.6653574888308558e+01 0 0 0
717 2 4.9220000000000006e+00 1.2787731112280996e+01 2.6653574888308558e+01 0 0 0
719 2 6.1524999999999990e+00 1.3498160618518829e+01 2.6653574888308558e+01 0 0 0
760 2 6.1524999999999990e+00 1.4919019630994494e+01 2.6653574888308558e+01 0 0 0
762 2 7.3829999999999991e+00 1.5629449137232333e+01 2.6653574888308558e+01 0 0 0
764 2 7.3829999999999991e+00 1.2787731112280996e+01 2.6653574888308558e+01 0 0 0
766 2 8.6135000000000002e+00 1.3498160618518835e+01 2.6653574888308558e+01 0 0 0
807 2 8.6135000000000002e+00 1.4919019630994494e+01 2.6653574888308558e+01 0 0 0
809 2 9.8440000000000012e+00 1.5629449137232328e+01 2.6653574888308558e+01 0 0 0
811 2 9.8440000000000012e+00 1.2787731112280996e+01 2.6653574888308558e+01 0 0 0
813 2 1.1074500000000002e+01 1.3498160618518829e+01 2.6653574888308558e+01 0 0 0
849 2 1.1074500000000002e+01 1.4919019630994494e+01 2.6653574888308558e+01 0 0 0
595 2 0.0000000000000000e+00 1.4208590124756650e+00 3.0030999999994457e+01 0 0 0
597 2 0.0000000000000000e+00 0.0000000000000000e+00 3.0030999999994457e+01 0 0 0
604 2 1.2305000000000001e+00 3.5521475311891644e+00 3.0030999999994457e+01 0 0 0
606 2 1.2305000000000001e+00 2.1312885187134998e+00 3.0030999999994457e+01 0 0 0
608 2 2.4610000000000003e+00 1.4208590124756650e+00 3.0030999999994457e+01 0 0 0
610 2 2.4610000000000003e+00 0.0000000000000000e+00 3.0030999999994457e+01 0 0 0
625 2 3.6914999999999996e+00 3.5521475311891644e+00 3.0030999999994457e+01 0 0 0
627 2 3.6914999999999996e+00 2.1312885187134998e+00 3.0030999999994457e+01 0 0 0
629 2 4.9220000000000006e+00 1.4208590124756650e+00 3.0030999999994457e+01 0 0 0
631 2 4.9220000000000006e+00 0.0000000000000000e+00 3.0030999999994457e+01 0 0 0
654 2 6.1524999999999999e+00 3.5521475311891644e+00 3.0030999999994457e+01 0 0 0
656 2 6.1524999999999999e+00 2.1312885187134989e+00 3.0030999999994457e+01 0 0 0
658 2 7.3829999999999991e+00 1.4208590124756659e+00 3.0030999999994457e+01 0 0 0
660 2 7.3829999999999991e+00 0.0000000000000000e+00 3.0030999999994457e+01 0 0 0
691 2 8.6134999999999984e+00 3.5521475311891657e+00 3.0030999999994457e+01 0 0 0
693 2 8.6134999999999984e+00 2.1312885187135002e+00 3.0030999999994457e+01 0 0 0
695 2 9.8440000000000012e+00 1.4208590124756659e+00 3.0030999999994457e+01 0 0 0
697 2 9.8440000000000012e+00 0.0000000000000000e+00 3.0030999999994457e+01 0 0 0
736 2 1.1074500000000002e+01 3.5521475311891644e+00 3.0030999999994457e+01 0 0 0
738 2 1.1074500000000002e+01 2.1312885187135002e+00 3.0030999999994457e+01 0 0 0
600 2 0.0000000000000000e+00 5.6834360499026637e+00 3.0030999999994457e+01 0 0 0
602 2 0.0000000000000000e+00 4.2625770374269996e+00 3.0030999999994457e+01 0 0 0
617 2 1.2305000000000001e+00 7.8147245686161639e+00 3.0030999999994457e+01 0 0 0
619 2 1.2305000000000001e+00 6.3938655561404980e+00 3.0030999999994457e+01 0 0 0
621 2 2.4610000000000003e+00 5.6834360499026637e+00 3.0030999999994457e+01 0 0 0
623 2 2.4610000000000003e+00 4.2625770374269996e+00 3.0030999999994457e+01 0 0 0
646 2 3.6914999999999996e+00 7.8147245686161639e+00 3.0030999999994457e+01 0 0 0
648 2 3.6914999999999996e+00 6.3938655561404980e+00 3.0030999999994457e+01 0 0 0
650 2 4.9220000000000006e+00 5.6834360499026637e+00 3.0030999999994457e+01 0 0 0
652 2 4.9220000000000006e+00 4.2625770374269978e+00 3.0030999999994457e+01 0 0 0
683 2 6.1524999999999999e+00 7.8147245686161639e+00 3.0030999999994457e+01 0 0 0
685 2 6.1524999999999999e+00 6.3938655561404980e+00 3.0030999999994457e+01 0 0 0
687 2 7.3829999999999991e+00 5.6834360499026637e+00 3.0030999999994457e+01 0 0 0
689 2 7.3829999999999991e+00 4.2625770374269996e+00 3.0030999999994457e+01 0 0 0
728 2 8.6135000000000002e+00 7.8147245686161639e+00 3.0030999999994457e+01 0 0 0
730 2 8.6135000000000002e+00 6.3938655561404980e+00 3.0030999999994457e+01 0 0 0
732 2 9.8440000000000012e+00 5.6834360499026637e+00 3.0030999999994457e+01 0 0 0
734 2 9.8440000000000012e+00 4.2625770374270004e+00 3.0030999999994457e+01 0 0 0
775 2 1.1074500000000002e+01 7.8147245686161639e+00 3.0030999999994457e+01 0 0 0
777 2 1.1074500000000002e+01 6.3938655561404980e+00 3.0030999999994457e+01 0 0 0
613 2 0.0000000000000000e+00 9.9460130873296642e+00 3.0030999999994457e+01 0 0 0
615 2 0.0000000000000000e+00 8.5251540748539991e+00 3.0030999999994457e+01 0 0 0
638 2 1.2305000000000001e+00 1.2077301606043163e+01 3.0030999999994457e+01 0 0 0
640 2 1.2305000000000001e+00 1.0656442593567498e+01 3.0030999999994457e+01 0 0 0
642 2 2.4610000000000003e+00 9.9460130873296642e+00 3.0030999999994457e+01 0 0 0
644 2 2.4610000000000003e+00 8.5251540748539991e+00 3.0030999999994457e+01 0 0 0
675 2 3.6914999999999996e+00 1.2077301606043163e+01 3.0030999999994457e+01 0 0 0
677 2 3.6914999999999996e+00 1.0656442593567499e+01 3.0030999999994457e+01 0 0 0
679 2 4.9220000000000006e+00 9.9460130873296642e+00 3.0030999999994457e+01 0 0 0
681 2 4.9220000000000006e+00 8.5251540748539991e+00 3.0030999999994457e+01 0 0 0
720 2 6.1524999999999999e+00 1.2077301606043163e+01 3.0030999999994457e+01 0 0 0
722 2 6.1524999999999999e+00 1.0656442593567499e+01 3.0030999999994457e+01 0 0 0
724 2 7.3830000000000009e+00 9.9460130873296642e+00 3.0030999999994457e+01 0 0 0
726 2 7.3830000000000009e+00 8.5251540748539991e+00 3.0030999999994457e+01 0 0 0
767 2 8.6135000000000002e+00 1.2077301606043163e+01 3.0030999999994457e+01 0 0 0
769 2 8.6134999999999984e+00 1.0656442593567498e+01 3.0030999999994457e+01 0 0 0
771 2 9.8440000000000012e+00 9.9460130873296642e+00 3.0030999999994457e+01 0 0 0
773 2 9.8440000000000012e+00 8.5251540748539956e+00 3.0030999999994457e+01 0 0 0
814 2 1.1074500000000002e+01 1.2077301606043163e+01 3.0030999999994457e+01 0 0 0
816 2 1.1074500000000002e+01 1.0656442593567498e+01 3.0030999999994457e+01 0 0 0
634 2 0.0000000000000000e+00 1.4208590124756663e+01 3.0030999999994457e+01 0 0 0
636 2 0.0000000000000000e+00 1.2787731112280996e+01 3.0030999999994457e+01 0 0 0
669 2 1.2305000000000001e+00 1.4919019630994494e+01 3.0030999999994457e+01 0 0 0
671 2 2.4610000000000003e+00 1.4208590124756663e+01 3.0030999999994457e+01 0 0 0
673 2 2.4610000000000003e+00 1.2787731112280996e+01 3.0030999999994457e+01 0 0 0
714 2 3.6915000000000004e+00 1.4919019630994494e+01 3.0030999999994457e+01 0 0 0
716 2 4.9220000000000006e+00 1.4208590124756663e+01 3.0030999999994457e+01 0 0 0
718 2 4.9220000000000006e+00 1.2787731112280996e+01 3.0030999999994457e+01 0 0 0
761 2 6.1524999999999990e+00 1.4919019630994494e+01 3.0030999999994457e+01 0 0 0
763 2 7.3830000000000009e+00 1.4208590124756663e+01 3.0030999999994457e+01 0 0 0
765 2 7.3829999999999991e+00 1.2787731112280996e+01 3.0030999999994457e+01 0 0 0
810 2 9.8440000000000012e+00 1.4208590124756663e+01 3.0030999999994457e+01 0 0 0
808 2 8.6135000000000002e+00 1.4919019630994494e+01 3.0030999999994457e+01 0 0 0
852 2 1.2304999999999998e+01 1.4208590124756658e+01 3.0030999999994457e+01 0 0 0
848 2 1.1074500000000002e+01 1.6339878643470161e+01 3.0030999999994457e+01 0 0 0
850 2 1.1074500000000002e+01 1.4919019630994494e+01 3.0030999999994457e+01 0 0 0
812 2 9.8440000000000012e+00 1.2787731112280996e+01 3.0030999999994457e+01 0 0 0
923 2 0.0000000000000000e+00 2.8417180249513345e+00 3.3408425111702741e+01 0 0 0
924 2 0.0000000000000000e+00 0.0000000000000000e+00 3.3408425111702741e+01 0 0 0
925 2 1.2305000000000001e+00 7.1042950623783474e-01 3.3408425111702741e+01 0 0 0
929 2 1.2305000000000001e+00 2.1312885187134998e+00 3.3408425111702741e+01 0 0 0
930 2 2.4610000000000003e+00 2.8417180249513345e+00 3.3408425111702741e+01 0 0 0
931 2 2.4610000000000003e+00 0.0000000000000000e+00 3.3408425111702741e+01 0 0 0
932 2 3.6915000000000004e+00 7.1042950623783474e-01 3.3408425111702741e+01 0 0 0
940 2 3.6914999999999996e+00 2.1312885187134998e+00 3.3408425111702741e+01 0 0 0
941 2 4.9220000000000006e+00 2.8417180249513332e+00 3.3408425111702741e+01 0 0 0
942 2 4.9220000000000006e+00 0.0000000000000000e+00 3.3408425111702741e+01 0 0 0
943 2 6.1524999999999999e+00 7.1042950623783407e-01 3.3408425111702741e+01 0 0 0
955 2 6.1524999999999999e+00 2.1312885187134989e+00 3.3408425111702741e+01 0 0 0
956 2 7.3829999999999991e+00 2.8417180249513345e+00 3.3408425111702741e+01 0 0 0
957 2 7.3829999999999991e+00 0.0000000000000000e+00 3.3408425111702741e+01 0 0 0
5058 1 1.1327611653710200e+01 3.8142881155257782e+00 3.5945576502226523e+01 -1 0 -1
958 2 8.6134999999999984e+00 7.1042950623783407e-01 3.3408425111702741e+01 0 0 0
974 2 8.6134999999999984e+00 2.1312885187135002e+00 3.3408425111702741e+01 0 0 0
975 2 9.8440000000000012e+00 2.8417180249513332e+00 3.3408425111702741e+01 0 0 0
976 2 9.8440000000000012e+00 0.0000000000000000e+00 3.3408425111702741e+01 0 0 0
977 2 1.1074500000000002e+01 7.1042950623783330e-01 3.3408425111702741e+01 0 0 0
997 2 1.1074500000000002e+01 2.1312885187135002e+00 3.3408425111702741e+01 0 0 0
3792 1 8.2505386292480960e+00 9.0226274223132963e-01 3.5928869855023152e+01 -1 0 0
926 2 0.0000000000000000e+00 7.1042950623783341e+00 3.3408425111702741e+01 0 0 0
927 2 0.0000000000000000e+00 4.2625770374269996e+00 3.3408425111702741e+01 0 0 0
928 2 1.2305000000000001e+00 4.9730065436648339e+00 3.3408425111702741e+01 0 0 0
936 2 1.2305000000000001e+00 6.3938655561404980e+00 3.3408425111702741e+01 0 0 0
937 2 2.4610000000000003e+00 7.1042950623783341e+00 3.3408425111702741e+01 0 0 0
938 2 2.4610000000000003e+00 4.2625770374269996e+00 3.3408425111702741e+01 0 0 0
939 2 3.6914999999999996e+00 4.9730065436648339e+00 3.3408425111702741e+01 0 0 0
951 2 3.6914999999999996e+00 6.3938655561404980e+00 3.3408425111702741e+01 0 0 0
952 2 4.9220000000000006e+00 7.1042950623783341e+00 3.3408425111702741e+01 0 0 0
953 2 4.9220000000000006e+00 4.2625770374269978e+00 3.3408425111702741e+01 0 0 0
954 2 6.1524999999999999e+00 4.9730065436648339e+00 3.3408425111702741e+01 0 0 0
970 2 6.1524999999999999e+00 6.3938655561404980e+00 3.3408425111702741e+01 0 0 0
971 2 7.3830000000000009e+00 7.1042950623783341e+00 3.3408425111702741e+01 0 0 0
972 2 7.3829999999999991e+00 4.2625770374269996e+00 3.3408425111702741e+01 0 0 0
1479 1 6.8093580817223094e+00 4.9667284590708478e+00 3.6039770380616204e+01 -3 2 0
973 2 8.6135000000000002e+00 4.9730065436648339e+00 3.3408425111702741e+01 0 0 0
993 2 8.6135000000000002e+00 6.3938655561404980e+00 3.3408425111702741e+01 0 0 0
994 2 9.8440000000000012e+00 7.1042950623783341e+00 3.3408425111702741e+01 0 0 0