LAMMPS data file via write_data, version 16 Mar 2018, timestep = 100000

6589 atoms
2 atom types

0.0000000000000000e+00 4.9219999999999999e+01 xlo xhi
0.0000000000000000e+00 4.9019635930410494e+01 ylo yhi
1.4676456802309765e+00 5.8594354319769536e+01 zlo zhi

Masses

1 18.015
2 12.01

Atoms # atomic

2925 1 2.3222214565730508e+00 3.4058180273164198e+00 4.4979318296252915e+00 0 0 1
36 1 7.4209727652593607e+00 1.3685158485367937e+01 1.8149566152998160e+00 0 0 1
264 1 4.9072621933299541e+00 1.2817312276224916e+01 1.7810305827049056e+00 0 -1 0
1575 1 3.7821189358687932e+00 1.5810282246536655e+01 7.1738012609607775e+00 0 -1 1
3430 1 7.5288566687254894e+00 4.0516037827738174e+00 6.7860870586611144e+00 1 0 0
101 1 6.1962940585335335e+00 2.2667939234261114e+00 3.0132619019261186e+00 1 1 0
3370 1 1.1712353265416514e+01 9.0567386487933916e+00 4.8712029887051500e+00 -1 -1 0
5390 1 8.4923750645912239e+00 1.6884317931014474e+00 4.5631240631131238e+00 0 2 0
3125 1 2.2298141014066424e+00 6.7928006393821923e+00 5.6153636509752411e+00 1 1 1
3284 1 1.7936235021555753e+00 6.0335834909858646e+00 2.9975117007654810e+00 0 0 1
4827 1 5.2988810757606570e+00 6.5518858874828441e+00 3.7382431131055727e+00 1 1 0
1901 1 5.4072316630961925e+00 4.1034455469492848e+00 5.1030712068093749e+00 0 1 0
5316 1 1.9521883114553873e-01 3.2134367013932632e+00 6.1176721021301965e+00 1 1 0
441 1 9.2594677823150207e+00 5.7665168839066672e+00 5.9234403620312728e+00 0 1 0
3074 1 8.1833846123656926e+00 6.9232633081896031e+00 3.6502172510468998e+00 -1 1 1
5014 1 1.5725074452254888e+00 1.4324670210281843e+01 1.0044655170612797e+01 1 0 0
3311 1 1.0063120485003754e+01 8.4838651429313572e+00 7.3895951005749128e+00 1 0 1
6587 1 3.4368780587015091e+00 1.1990599052209898e+01 1.2461626459754612e+01 1 0 1
6315 1 3.8597860538942559e+00 1.0396493081973720e+01 3.2247339899509671e+00 0 1 1
2051 1 2.2061038023440380e+00 1.3302123453920649e+01 7.0841088464057593e+00 0 1 0
3005 1 3.6332493947282121e+00 1.0350315264060197e+00 3.4865467954792502e+00 2 2 1
6415 1 4.4452476631894395e+00 8.1332986658371187e+00 6.6128469773475542e+00 1 1 1
420 1 5.7352623402473100e+00 9.2775772229364044e+00 4.5189897662962171e+00 1 -1 0
3292 1 8.3408860053538287e+00 1.1242237482422412e+01 5.0233857403162023e+00 1 1 1
4899 1 9.2986090972580193e+00 9.4195054257583948e+00 3.3327820746135384e+00 1 0 1
1604 1 2.2758292165839758e-01 8.0514714801072307e-01 1.2334422297070475e+01 1 0 0
3427 1 3.8136444523035853e+00 1.2699447545675161e+01 4.7682928679429750e+00 0 -2 0
124 1 3.0247424666464301e-01 1.3442388604602083e+01 4.8338072747389038e+00 0 1 0
5430 1 1.0336062904798652e+01 3.7922850779625983e+00 4.4876273923766163e+00 -1 1 1
431 1 3.7895397318964590e+00 1.5146557727472151e+01 3.3127083247351141e+00 0 0 1
168 1 5.9915880267324990e+00 1.2335823060435748e+01 6.1184623273522121e+00 0 -1 0
5218 1 9.0678100840694249e+00 1.3606104052395333e+01 3.9405795464545785e+00 0 1 0
2948 1 8.3438656944304643e+00 1.5992941687384659e+01 5.1246367006953495e+00 0 0 1
6428 1 1.6558013451371336e+00 1.6208493381030578e+01 5.1791306410868438e+00 1 0 1
5262 1 1.1006604909434760e+01 1.5369340918349160e+01 7.7311831316610125e+00 0 -1 0
1591 1 1.1783775107262215e+01 1.4017410713168621e+01 3.0598547947101795e+00 0 0 1
1371 1 3.3315960335096793e+00 7.3625486037607102e-01 1.2433795588885909e+01 0 1 1
1347 1 3.9533238093418417e+00 3.1140496509361624e+00 7.4769246089823582e+00 0 0 1
6208 1 1.1557078084781546e+01 5.0783327386862105e+00 1.2779628321073444e+01 0 1 1
5432 1 6.1484746746248558e+00 7.6964387762173769e-01 9.3695540355371705e+00 2 0 0
3320 1 6.5821998570059082e+00 1.4960882639715406e+01 7.1283737744976916e+00 0 0 0
1903 1 1.0672085582971453e+01 2.6215433200769316e+00 9.4584798006467778e+00 0 0 0
1938 1 8.5191047463276384e+00 1.6968849176835852e+00 7.9401350426814759e+00 2 0 0
3132 1 2.0799358274561950e+00 4.9873160374191503e+00 7.7492262941995671e+00 1 1 1
2076 1 2.7721834165541428e+00 8.4815363060104598e+00 1.0465671656408455e+01 1 1 0
78 1 3.3384989996096022e+00 3.9726558592453309e+00 1.2071000636397770e+01 1 1 0
1530 1 1.5216305331066866e+00 5.8684576349084203e+00 1.0307467387676921e+01 0 2 1
1349 1 5.0259403438388501e+00 3.4113106152865065e+00 9.9053081949360156e+00 0 0 1
580 1 7.1585667918795091e+00 5.4568444756389409e+00 9.2759818855301077e+00 0 0 0
4645 1 7.0289599407031638e+00 7.8492656564508279e+00 7.8502733599508385e+00 -1 0 1
3514 1 2.5634540426909869e-01 8.5943419595801789e+00 6.1392734808834817e+00 1 1 0
3391 1 9.4979831212557997e+00 4.7426683432903127e+00 1.0667998934009319e+01 1 -1 1
3720 1 1.0636384456690719e+01 7.2211644693637904e+00 1.0102933942455799e+01 0 -1 0
3807 1 1.9969491011757015e-01 3.7689283836135123e+00 1.2074864654823982e+01 1 -1 1
188 1 2.6864622703696504e+00 9.7555347311498402e+00 8.0157710791652512e+00 3 0 1
336 1 4.7977737732533594e+00 1.1464888797130131e+01 8.5470813733224595e+00 2 1 0
6517 1 1.3489946001107287e+00 1.0397761199475358e+01 1.2050735757301501e+01 1 1 0
1452 1 5.1479781846449937e+00 8.0160183139748664e+00 1.1979273523678312e+01 1 0 1
1343 1 6.3834306414441819e+00 9.6108742874317272e+00 9.6956616089513847e+00 0 0 0
1853 1 8.6404287383507317e+00 1.1478082220586717e+01 9.7143711019489523e+00 1 1 0
5302 1 1.0026538903058473e+01 1.1231825866534487e+01 7.3827125652967034e+00 0 0 0
3016 1 9.2854158760540972e+00 1.0368363341922247e+01 1.2324041931597513e+01 -1 1 1
7 1 4.1648500401619160e+00 1.3385359847131323e+01 1.0009409082403169e+01 0 1 1
1369 1 7.5617164000880370e+00 1.4026789562606581e+01 9.5647004735244625e+00 -1 1 1
3509 1 1.0832054179317495e+01 4.7236255034919168e+00 1.9908601527034679e+00 0 1 0
4754 1 4.8179038204131173e+00 1.6193283519756452e+01 1.0212616249947049e+01 -1 0 1
4965 1 1.7418717558519943e+00 9.0852931434632396e+00 1.9330009483707296e+00 0 0 0
5515 1 8.9936111909898031e+00 1.5425483915919189e+01 1.2751037089614940e+01 -1 1 1
2094 1 1.1431745257367254e+01 1.4827806949643307e+01 1.2077319341728462e+01 0 -1 0
3504 1 6.5923093789197118e+00 1.3740656417308992e+01 1.2292956934258255e+01 0 -1 0
3859 1 6.7812210388245289e+00 1.4204188796264157e+00 1.2120308708743030e+01 1 1 1
2008 1 1.0778036664392399e+01 8.0948886178609261e+00 1.2647323848983817e+01 0 1 0
3770 1 1.2141563366516809e+01 1.6073898237209207e+01 5.2361845813175592e+00 0 1 1
4785 1 1.0607497336886258e+01 8.0675711032860420e-02 1.1055534688943609e+01 1 1 1
2951 1 7.7420143148275793e+00 3.8971433848363941e+00 1.2777149083480486e+01 -1 0 1
3363 1 1.1445611215489656e+01 1.1852968982117673e+01 1.2687635521274800e+01 1 1 0
3772 1 2.8161750378917718e+00 2.7635185068842913e+00 1.4782830726911151e+01 2 0 1
343 1 1.1166811809383290e+01 4.3347332928375941e-02 1.7606321418531980e+01 0 0 0
91 1 5.1559301161940105e+00 3.3669291708590103e+00 1.6312552414289769e+01 1 1 1
1326 1 4.8531243302406191e+00 9.9289685668685106e+00 1.4006682446838871e+01 1 0 1
3375 1 2.5232171729685149e-01 1.4504778445938065e+01 2.0324580923325144e+01 0 1 0
6585 1 3.6523051675180196e+00 4.6775772158443081e+00 1.8147655440732482e+01 1 -1 0
6384 1 1.1118158349348549e+01 1.8406543692012998e+00 1.5339007506150439e+01 2 0 1
5280 1 8.2365197478594698e+00 1.5364564012635933e+01 1.9582543850573963e+01 1 0 1
4673 1 1.8634489720498297e+00 1.4569880344874173e+01 1.3148345314454113e+01 0 1 1
518 1 1.2100722861658181e+01 1.6135975857263055e+01 2.1743253801015605e+01 -1 0 0
1395 1 1.9802050139745058e+00 7.5389378276711927e+00 1.4735824848070118e+01 2 1 1
3458 1 5.1911348083503741e+00 1.1332195011049894e+01 2.4224414420988257e+01 1 1 1
1796 1 7.4748321218526730e+00 7.1571748222022054e+00 1.6883861364464671e+01 0 0 0
402 1 6.5458933195473765e+00 5.3783077341198240e+00 1.4819517960087577e+01 0 0 1
3652 1 2.7544716414722759e+00 7.2995664127247135e+00 1.7336234719859981e+01 2 0 0
3654 1 1.1901713078810724e+01 8.0127445364258580e+00 1.5733094679495750e+01 0 0 0
2238 1 1.0664286550381251e+01 4.4645321560533366e+00 1.5235462116533538e+01 0 1 1
4586 1 1.2175091572202623e+01 2.5474107949140734e+00 2.1265439342945715e+01 1 0 1
3853 1 1.1594224027865232e+00 1.0147714475636185e+00 1.6363992918067979e+01 0 -1 1
5255 1 7.2212593868318997e-01 1.3707268512128659e+01 1.6113844002549783e+01 1 1 0
5137 1 1.9620968972172399e+00 9.8116961107976532e+00 1.8293069215148659e+01 1 0 0
5147 1 5.1003837791931108e+00 8.5486304264015445e+00 1.6551515555638559e+01 1 0 0
4734 1 7.3152102608780956e+00 1.1396511137791826e+01 1.3853000304709719e+01 2 -2 1
283 1 4.5195098654208996e+00 1.1561482503939679e+01 1.6931284540174296e+01 0 -1 0
6544 1 1.1361994023826288e+01 1.1809781444905026e+01 1.7304360233461274e+01 0 -1 0
6522 1 7.3961439269848273e-01 3.5696392968434560e+00 1.8201454358513388e+01 1 1 1
219 1 1.0037267485513553e+01 1.5545679963828309e+01 2.3648672952084514e+01 1 1 0
120 1 3.6156271560123892e+00 1.3878527824089682e+01 1.5558248308503288e+01 0 1 0
2205 1 7.5137489228506785e-02 7.5240610069613334e+00 2.1536037213928278e+01 0 0 0
320 1 5.1861651702079534e+00 1.5750686175316886e+01 1.3811885376377496e+01 1 -1 1
3846 1 1.2286792182902047e+01 8.4734094026775626e+00 2.3843473599953786e+01 -1 1 1
2124 1 8.7329936122312422e+00 1.2389708039152284e+01 1.6056107267835152e+01 1 0 0
1816 1 2.0349912515427002e+00 1.4340633880733684e+01 2.3280545144737211e+01 1 1 0
1470 1 9.1354446211607438e+00 1.5018726382784291e+01 1.5568699673490897e+01 2 0 0
1501 1 5.5659005539022068e+00 1.3242038045570179e+00 2.0073345202991760e+01 1 0 1
23 1 1.2285720083715830e+00 3.6051918128169462e+00 2.1198270613026200e+01 0 1 0
6382 1 5.8477898425593544e+00 1.7411088176832283e+00 2.3457808357368691e+01 -1 2 1
256 1 2.9925257140462649e+00 1.7498001567450052e+00 2.1461878603540580e+01 1 0 0
4584 1 1.8317710443243129e-01 9.4526355104042796e+00 1.4453341908949767e+01 0 1 1
6361 1 5.1925182067896332e+00 4.3927521750094627e+00 2.0345179477836982e+01 1 2 1
8 1 8.3733156498418193e+00 2.4911183524423812e+00 2.0436406200686665e+01 0 -1 0
2216 1 8.6490664909084831e+00 2.4344789119246997e+00 2.3078145443542702e+01 1 -1 1
418 1 2.3845090831237314e-02 1.1142454819874544e+01 1.6640759672889271e+01 1 0 0
3221 1 9.8661786504445921e+00 4.9769954163239554e+00 2.3266117457739576e+01 0 0 1
1682 1 3.5053508593295439e+00 4.9556689627286082e-01 2.4080082381753748e+01 1 0 0
1475 1 3.3392234487440686e+00 8.7249869499561701e+00 2.1071031835489428e+01 1 1 1
375 1 2.9539849208305999e+00 6.0817239407704093e+00 2.1119237551444446e+01 1 0 0
5409 1 1.0442043413248122e+01 8.2026556714649823e-01 2.0296398204346211e+01 0 2 0
1307 1 5.3533554679159439e+00 4.5551142649175160e+00 2.3218133384419335e+01 0 0 1
439 1 6.1200474397391602e+00 8.7217144065187604e+00 2.0958772868958015e+01 0 1 0
5309 1 7.0040202234239084e+00 6.6923098171609654e+00 1.9550243495966082e+01 1 1 0
5107 1 9.6403508447067132e+00 7.5005873980444937e+00 2.1076736021248244e+01 1 1 0
4973 1 7.7047688580849387e+00 1.4704188232877531e+01 2.2172016640530519e+01 1 -1 1
3544 1 9.1035669612932537e+00 9.8048748908798018e+00 1.9237700041059242e+01 0 1 0
1712 1 1.0382681477507671e+01 4.7030276805178293e+00 2.0584330439225294e+01 -2 2 0
1960 1 9.3840702264659139e+00 8.4687451377879501e+00 2.3734365252538129e+01 1 0 0
165 1 3.7864502171453376e+00 1.1646834348937405e+01 1.9623247515286639e+01 1 0 0
5050 1 1.1076699170260604e+00 4.7408845598795812e+00 2.3753326286541427e+01 0 0 1
3040 1 1.1777015528563357e+00 4.8272072493598097e+00 1.5681648348477523e+01 0 0 0
1887 1 9.3858220681401310e+00 9.3121692566510657e+00 1.6641601651167882e+01 0 1 0
1694 1 7.0969951704136891e+00 1.1939041482899743e+01 2.2313891919688515e+01 1 0 1
5464 1 6.6010708340931865e+00 1.1111454830440794e+01 1.9780874283851773e+01 2 0 0
381 1 4.1686989419137861e+00 5.9093566561802691e+00 1.3533743317103776e+01 0 1 0
3723 1 9.6030402566790301e+00 1.1100577256135052e+01 2.2963557334695590e+01 2 2 0
6251 1 1.0957912450142382e+01 1.1568243501077937e+01 2.0534591029782817e+01 1 0 1
4821 1 6.5134260824152639e+00 8.8776090347339469e+00 2.3649126253525875e+01 0 1 0
572 1 4.2153383167742806e+00 1.4976912147787747e+01 1.8023444474726482e+01 -1 0 1
1804 1 1.1209643688746093e+01 1.4610010461079888e+01 1.9315917932302966e+01 0 0 1
5321 1 2.8336915584700395e+00 1.4288188884915359e+01 2.0424540231299023e+01 1 0 0
4664 1 3.2981541234792191e+00 6.2493223891487490e+00 2.4105189307831893e+01 1 0 1
3353 1 4.7728305952025627e+00 5.4076307800969814e-01 1.7339452716445749e+01 1 1 1
3598 1 3.1513744513757067e+00 9.2333080947780974e+00 2.3827967538561534e+01 1 0 0
4721 1 6.9828513494869808e+00 1.3229937139218681e+01 1.7927598156457623e+01 1 0 0
304 1 9.4878406330825396e+00 4.4440284178032163e-01 1.3362992827808574e+01 0 0 1
488 1 1.0448975298937091e+01 7.9474960525527183e-01 2.3995628231878690e+01 0 1 1
65 1 7.3938544818147909e+00 6.2039563719061608e+00 2.4169116831758920e+01 0 0 1
594 2 0.0000000000000000e+00 2.8417180249513345e+00 2.6824935726757648e+01 0 0 0
596 2 0.0000000000000000e+00 0.0000000000000000e+00 2.6824935726757648e+01 0 0 0
598 2 1.2305000000000001e+00 7.1042950623783474e-01 2.6824935726757648e+01 0 0 0
605 2 1.2305000000000001e+00 2.1312885187134998e+00 2.6824935726757648e+01 0 0 0
607 2 2.4610000000000003e+00 2.8417180249513345e+00 2.6824935726757648e+01 0 0 0
609 2 2.4610000000000003e+00 0.0000000000000000e+00 2.6824935726757648e+01 0 0 0
611 2 3.6915000000000004e+00 7.1042950623783474e-01 2.6824935726757648e+01 0 0 0
626 2 3.6914999999999996e+00 2.1312885187134998e+00 2.6824935726757648e+01 0 0 0
812 2 9.8440000000000012e+00 1.2787731112280996e+01 3.0031000000000276e+01 0 0 0
628 2 4.9220000000000006e+00 2.8417180249513332e+00 2.6824935726757648e+01 0 0 0
630 2 4.9220000000000006e+00 0.0000000000000000e+00 2.6824935726757648e+01 0 0 0
632 2 6.1524999999999999e+00 7.1042950623783407e-01 2.6824935726757648e+01 0 0 0
655 2 6.1524999999999999e+00 2.1312885187134989e+00 2.6824935726757648e+01 0 0 0
657 2 7.3829999999999991e+00 2.8417180249513345e+00 2.6824935726757648e+01 0 0 0
659 2 7.3829999999999991e+00 0.0000000000000000e+00 2.6824935726757648e+01 0 0 0
661 2 8.6134999999999984e+00 7.1042950623783407e-01 2.6824935726757648e+01 0 0 0
692 2 8.6134999999999984e+00 2.1312885187135002e+00 2.6824935726757648e+01 0 0 0
694 2 9.8440000000000012e+00 2.8417180249513332e+00 2.6824935726757648e+01 0 0 0
696 2 9.8440000000000012e+00 0.0000000000000000e+00 2.6824935726757648e+01 0 0 0
698 2 1.1074500000000002e+01 7.1042950623783330e-01 2.6824935726757648e+01 0 0 0
737 2 1.1074500000000002e+01 2.1312885187135002e+00 2.6824935726757648e+01 0 0 0
599 2 0.0000000000000000e+00 7.1042950623783341e+00 2.6824935726757648e+01 0 0 0
601 2 0.0000000000000000e+00 4.2625770374269996e+00 2.6824935726757648e+01 0 0 0
603 2 1.2305000000000001e+00 4.9730065436648339e+00 2.6824935726757648e+01 0 0 0
618 2 1.2305000000000001e+00 6.3938655561404980e+00 2.6824935726757648e+01 0 0 0
620 2 2.4610000000000003e+00 7.1042950623783341e+00 2.6824935726757648e+01 0 0 0
622 2 2.4610000000000003e+00 4.2625770374269996e+00 2.6824935726757648e+01 0 0 0
624 2 3.6914999999999996e+00 4.9730065436648339e+00 2.6824935726757648e+01 0 0 0
647 2 3.6914999999999996e+00 6.3938655561404980e+00 2.6824935726757648e+01 0 0 0
1033 2 8.6135000000000002e+00 1.4919019630994494e+01 3.3237064273244172e+01 0 0 0
810 2 9.8440000000000012e+00 1.4208590124756663e+01 3.0031000000000276e+01 0 0 0
649 2 4.9220000000000006e+00 7.1042950623783341e+00 2.6824935726757648e+01 0 0 0
651 2 4.9220000000000006e+00 4.2625770374269978e+00 2.6824935726757648e+01 0 0 0
653 2 6.1524999999999999e+00 4.9730065436648339e+00 2.6824935726757648e+01 0 0 0
684 2 6.1524999999999999e+00 6.3938655561404980e+00 2.6824935726757648e+01 0 0 0
686 2 7.3830000000000009e+00 7.1042950623783341e+00 2.6824935726757648e+01 0 0 0
688 2 7.3829999999999991e+00 4.2625770374269996e+00 2.6824935726757648e+01 0 0 0
690 2 8.6135000000000002e+00 4.9730065436648339e+00 2.6824935726757648e+01 0 0 0
729 2 8.6135000000000002e+00 6.3938655561404980e+00 2.6824935726757648e+01 0 0 0
731 2 9.8440000000000012e+00 7.1042950623783341e+00 2.6824935726757648e+01 0 0 0
733 2 9.8440000000000012e+00 4.2625770374270004e+00 2.6824935726757648e+01 0 0 0
735 2 1.1074500000000002e+01 4.9730065436648339e+00 2.6824935726757648e+01 0 0 0
776 2 1.1074500000000002e+01 6.3938655561404980e+00 2.6824935726757648e+01 0 0 0
1012 2 8.6135000000000002e+00 1.3498160618518835e+01 3.3237064273244172e+01 0 0 0
612 2 0.0000000000000000e+00 1.1366872099805333e+01 2.6824935726757648e+01 0 0 0
614 2 0.0000000000000000e+00 8.5251540748539991e+00 2.6824935726757648e+01 0 0 0
616 2 1.2305000000000001e+00 9.2355835810918343e+00 2.6824935726757648e+01 0 0 0
639 2 1.2305000000000001e+00 1.0656442593567498e+01 2.6824935726757648e+01 0 0 0
641 2 2.4610000000000003e+00 1.1366872099805333e+01 2.6824935726757648e+01 0 0 0
643 2 2.4610000000000003e+00 8.5251540748539991e+00 2.6824935726757648e+01 0 0 0
645 2 3.6915000000000004e+00 9.2355835810918343e+00 2.6824935726757648e+01 0 0 0
676 2 3.6914999999999996e+00 1.0656442593567499e+01 2.6824935726757648e+01 0 0 0
678 2 4.9220000000000006e+00 1.1366872099805333e+01 2.6824935726757648e+01 0 0 0
680 2 4.9220000000000006e+00 8.5251540748539991e+00 2.6824935726757648e+01 0 0 0
682 2 6.1524999999999999e+00 9.2355835810918343e+00 2.6824935726757648e+01 0 0 0
721 2 6.1524999999999999e+00 1.0656442593567499e+01 2.6824935726757648e+01 0 0 0
723 2 7.3829999999999991e+00 1.1366872099805333e+01 2.6824935726757648e+01 0 0 0
725 2 7.3830000000000009e+00 8.5251540748539991e+00 2.6824935726757648e+01 0 0 0
1036 2 1.1074500000000002e+01 1.3498160618518829e+01 3.3237064273244172e+01 0 0 0
727 2 8.6134999999999984e+00 9.2355835810918343e+00 2.6824935726757648e+01 0 0 0
768 2 8.6134999999999984e+00 1.0656442593567498e+01 2.6824935726757648e+01 0 0 0
770 2 9.8440000000000012e+00 1.1366872099805333e+01 2.6824935726757648e+01 0 0 0
772 2 9.8440000000000012e+00 8.5251540748539956e+00 2.6824935726757648e+01 0 0 0
774 2 1.1074500000000002e+01 9.2355835810918343e+00 2.6824935726757648e+01 0 0 0
815 2 1.1074500000000002e+01 1.0656442593567498e+01 2.6824935726757648e+01 0 0 0
817 2 1.2304999999999998e+01 1.1366872099805333e+01 2.6824935726757648e+01 0 0 0
633 2 0.0000000000000000e+00 1.5629449137232333e+01 2.6824935726757648e+01 0 0 0
635 2 0.0000000000000000e+00 1.2787731112280996e+01 2.6824935726757648e+01 0 0 0
637 2 1.2305000000000001e+00 1.3498160618518829e+01 2.6824935726757648e+01 0 0 0
668 2 1.2305000000000001e+00 1.4919019630994494e+01 2.6824935726757648e+01 0 0 0
670 2 2.4610000000000003e+00 1.5629449137232328e+01 2.6824935726757648e+01 0 0 0
672 2 2.4610000000000003e+00 1.2787731112280996e+01 2.6824935726757648e+01 0 0 0
674 2 3.6915000000000004e+00 1.3498160618518829e+01 2.6824935726757648e+01 0 0 0
713 2 3.6915000000000004e+00 1.4919019630994494e+01 2.6824935726757648e+01 0 0 0
715 2 4.9220000000000006e+00 1.5629449137232333e+01 2.6824935726757648e+01 0 0 0
717 2 4.9220000000000006e+00 1.2787731112280996e+01 2.6824935726757648e+01 0 0 0
719 2 6.1524999999999990e+00 1.3498160618518829e+01 2.6824935726757648e+01 0 0 0
760 2 6.1524999999999990e+00 1.4919019630994494e+01 2.6824935726757648e+01 0 0 0
762 2 7.3829999999999991e+00 1.5629449137232333e+01 2.6824935726757648e+01 0 0 0
764 2 7.3829999999999991e+00 1.2787731112280996e+01 2.6824935726757648e+01 0 0 0
766 2 8.6135000000000002e+00 1.3498160618518835e+01 2.6824935726757648e+01 0 0 0
807 2 8.6135000000000002e+00 1.4919019630994494e+01 2.6824935726757648e+01 0 0 0
809 2 9.8440000000000012e+00 1.5629449137232328e+01 2.6824935726757648e+01 0 0 0
811 2 9.8440000000000012e+00 1.2787731112280996e+01 2.6824935726757648e+01 0 0 0
813 2 1.1074500000000002e+01 1.3498160618518829e+01 2.6824935726757648e+01 0 0 0
849 2 1.1074500000000002e+01 1.4919019630994494e+01 2.6824935726757648e+01 0 0 0
595 2 0.0000000000000000e+00 1.4208590124756650e+00 3.0031000000000276e+01 0 0 0
597 2 0.0000000000000000e+00 0.0000000000000000e+00 3.0031000000000276e+01 0 0 0
604 2 1.2305000000000001e+00 3.5521475311891644e+00 3.0031000000000276e+01 0 0 0
606 2 1.2305000000000001e+00 2.1312885187134998e+00 3.0031000000000276e+01 0 0 0
608 2 2.4610000000000003e+00 1.4208590124756650e+00 3.0031000000000276e+01 0 0 0
610 2 2.4610000000000003e+00 0.0000000000000000e+00 3.0031000000000276e+01 0 0 0
625 2 3.6914999999999996e+00 3.5521475311891644e+00 3.0031000000000276e+01 0 0 0
627 2 3.6914999999999996e+00 2.1312885187134998e+00 3.0031000000000276e+01 0 0 0
923 2 0.0000000000000000e+00 2.8417180249513345e+00 3.3237064273244172e+01 0 0 0
924 2 0.0000000000000000e+00 0.0000000000000000e+00 3.3237064273244172e+01 0 0 0
925 2 1.2305000000000001e+00 7.1042950623783474e-01 3.3237064273244172e+01 0 0 0
929 2 1.2305000000000001e+00 2.1312885187134998e+00 3.3237064273244172e+01 0 0 0
930 2 2.4610000000000003e+00 2.8417180249513345e+00 3.3237064273244172e+01 0 0 0
931 2 2.4610000000000003e+00 0.0000000000000000e+00 3.3237064273244172e+01 0 0 0
932 2 3.6915000000000004e+00 7.1042950623783474e-01 3.3237064273244172e+01 0 0 0
940 2 3.6914999999999996e+00 2.1312885187134998e+00 3.3237064273244172e+01 0 0 0
629 2 4.9220000000000006e+00 1.4208590124756650e+00 3.0031000000000276e+01 0 0 0
631 2 4.9220000000000006e+00 0.0000000000000000e+00 3.0031000000000276e+01 0 0 0
654 2 6.1524999999999999e+00 3.5521475311891644e+00 3.0031000000000276e+01 0 0 0
656 2 6.1524999999999999e+00 2.1312885187134989e+00 3.0031000000000276e+01 0 0 0
658 2 7.3829999999999991e+00 1.4208590124756659e+00 3.0031000000000276e+01 0 0 0
660 2 7.3829999999999991e+00 0.0000000000000000e+00 3.0031000000000276e+01 0 0 0
941 2 4.9220000000000006e+00 2.8417180249513332e+00 3.3237064273244172e+01 0 0 0
942 2 4.9220000000000006e+00 0.0000000000000000e+00 3.3237064273244172e+01 0 0 0
943 2 6.1524999999999999e+00 7.1042950623783407e-01 3.3237064273244172e+01 0 0 0
955 2 6.1524999999999999e+00 2.1312885187134989e+00 3.3237064273244172e+01 0 0 0
956 2 7.3829999999999991e+00 2.8417180249513345e+00 3.3237064273244172e+01 0 0 0
957 2 7.3829999999999991e+00 0.0000000000000000e+00 3.3237064273244172e+01 0 0 0
691 2 8.6134999999999984e+00 3.5521475311891657e+00 3.0031000000000276e+01 0 0 0
693 2 8.6134999999999984e+00 2.1312885187135002e+00 3.0031000000000276e+01 0 0 0
695 2 9.8440000000000012e+00 1.4208590124756659e+00 3.0031000000000276e+01 0 0 0
697 2 9.8440000000000012e+00 0.0000000000000000e+00 3.0031000000000276e+01 0 0 0
736 2 1.1074500000000002e+01 3.5521475311891644e+00 3.0031000000000276e+01 0 0 0
738 2 1.1074500000000002e+01 2.1312885187135002e+00 3.0031000000000276e+01 0 0 0
958 2 8.6134999999999984e+00 7.1042950623783407e-01 3.3237064273244172e+01 0 0 0
974 2 8.6134999999999984e+00 2.1312885187135002e+00 3.3237064273244172e+01 0 0 0
975 2 9.8440000000000012e+00 2.8417180249513332e+00 3.3237064273244172e+01 0 0 0
976 2 9.8440000000000012e+00 0.0000000000000000e+00 3.3237064273244172e+01 0 0 0
977 2 1.1074500000000002e+01 7.1042950623783330e-01 3.3237064273244172e+01 0 0 0
997 2 1.1074500000000002e+01 2.1312885187135002e+00 3.3237064273244172e+01 0 0 0
600 2 0.0000000000000000e+00 5.6834360499026637e+00 3.0031000000000276e+01 0 0 0
602 2 0.0000000000000000e+00 4.2625770374269996e+00 3.0031000000000276e+01 0 0 0
617 2 1.2305000000000001e+00 7.8147245686161639e+00 3.0031000000000276e+01 0 0 0
619 2 1.2305000000000001e+00 6.3938655561404980e+00 3.0031000000000276e+01 0 0 0
621 2 2.4610000000000003e+00 5.6834360499026637e+00 3.0031000000000276e+01 0 0 0
623 2 2.4610000000000003e+00 4.2625770374269996e+00 3.0031000000000276e+01 0 0 0
646 2 3.6914999999999996e+00 7.8147245686161639e+00 3.0031000000000276e+01 0 0 0
648 2 3.6914999999999996e+00 6.3938655561404980e+00 3.0031000000000276e+01 0 0 0
926 2 0.0000000000000000e+00 7.1042950623783341e+00 3.3237064273244172e+01 0 0 0
927 2 0.0000000000000000e+00 4.2625770374269996e+00 3.3237064273244172e+01 0 0 0
928 2 1.2305000000000001e+00 4.9730065436648339e+00 3.3237064273244172e+01 0 0 0
936 2 1.2305000000000001e+00 6.3938655561404980e+00 3.3237064273244172e+01 0 0 0
937 2 2.4610000000000003e+00 7.1042950623783341e+00 3.3237064273244172e+01 0 0 0
938 2 2.4610000000000003e+00 4.2625770374269996e+00 3.3237064273244172e+01 0 0 0
939 2 3.6914999999999996e+00 4.9730065436648339e+00 3.3237064273244172e+01 0 0 0
951 2 3.6914999999999996e+00 6.3938655561404980e+00 3.3237064273244172e+01 0 0 0
650 2 4.9220000000000006e+00 5.6834360499026637e+00 3.0031000000000276e+01 0 0 0
652 2 4.9220000000000006e+00 4.2625770374269978e+00 3.0031000000000276e+01 0 0 0
683 2 6.1524999999999999e+00 7.8147245686161639e+00 3.0031000000000276e+01 0 0 0
685 2 6.1524999999999999e+00 6.3938655561404980e+00 3.0031000000000276e+01 0 0 0
687 2 7.3829999999999991e+00 5.6834360499026637e+00 3.0031000000000276e+01 0 0 0
689 2 7.3829999999999991e+00 4.2625770374269996e+00 3.0031000000000276e+01 0 0 0
952 2 4.9220000000000006e+00 7.1042950623783341e+00 3.3237064273244172e+01 0 0 0
953 2 4.9220000000000006e+00 4.2625770374269978e+00 3.3237064273244172e+01 0 0 0
954 2 6.1524999999999999e+00 4.9730065436648339e+00 3.3237064273244172e+01 0 0 0
970 2 6.1524999999999999e+00 6.3938655561404980e+00 3.3237064273244172e+01 0 0 0
971 2 7.3830000000000009e+00 7.1042950623783341e+00 3.3237064273244172e+01 0 0 0
972 2 7.3829999999999991e+00 4.2625770374269996e+00 3.3237064273244172e+01 0 0 0
728 2 8.6135000000000002e+00 7.8147245686161639e+00 3.0031000000000276e+01 0 0 0
730 2 8.6135000000000002e+00 6.3938655561404980e+00 3.0031000000000276e+01 0 0 0
732 2 9.8440000000000012e+00 5.6834360499026637e+00 3.0031000000000276e+01 0 0 0
734 2 9.8440000000000012e+00 4.2625770374270004e+00 3.0031000000000276e+01 0 0 0
775 2 1.1074500000000002e+01 7.8147245686161639e+00 3.0031000000000276e+01 0 0 0
777 2 1.1074500000000002e+01 6.3938655561404980e+00 3.0031000000000276e+01 0 0 0
973 2 8.6135000000000002e+00 4.9730065436648339e+00 3.3237064273244172e+01 0 0 0
993 2 8.6135000000000002e+00 6.3938655561404980e+00 3.3237064273244172e+01 0 0 0
994 2 9.8440000000000012e+00 7.1042950623783341e+00 3.3237064273244172e+01 0 0 0
995 2 9.8440000000000012e+00 4.2625770374270004e+00 3.3237064273244172e+01 0 0 0
996 2 1.1074500000000002e+01 4.9730065436648339e+00 3.3237064273244172e+01 0 0 0
1017 2 1.1074500000000002e+01 6.3938655561404980e+00 3.3237064273244172e+01 0 0 0
2982 1 5.5440570901031609e+00 7.2377367039381566e+00 3.5622242752060743e+01 1 1 0
613 2 0.0000000000000000e+00 9.9460130873296642e+00 3.0031000000000276e+01 0 0 0
615 2 0.0000000000000000e+00 8.5251540748539991e+00 3.0031000000000276e+01 0 0 0
638 2 1.2305000000000001e+00 1.2077301606043163e+01 3.0031000000000276e+01 0 0 0
640 2 1.2305000000000001e+00 1.0656442593567498e+01 3.0031000000000276e+01 0 0 0
642 2 2.4610000000000003e+00 9.9460130873296642e+00 3.0031000000000276e+01 0 0 0
644 2 2.4610000000000003e+00 8.5251540748539991e+00 3.0031000000000276e+01 0 0 0
675 2 3.6914999999999996e+00 1.2077301606043163e+01 3.0031000000000276e+01 0 0 0
677 2 3.6914999999999996e+00 1.0656442593567499e+01 3.0031000000000276e+01 0 0 0
933 2 0.0000000000000000e+00 1.1366872099805333e+01 3.3237064273244172e+01 0 0 0
934 2 0.0000000000000000e+00 8.5251540748539991e+00 3.3237064273244172e+01 0 0 0
935 2 1.2305000000000001e+00 9.2355835810918343e+00 3.3237064273244172e+01 0 0 0
947 2 1.2305000000000001e+00 1.0656442593567498e+01 3.3237064273244172e+01 0 0 0
948 2 2.4610000000000003e+00 1.1366872099805333e+01 3.3237064273244172e+01 0 0 0
949 2 2.4610000000000003e+00 8.5251540748539991e+00 3.3237064273244172e+01 0 0 0
950 2 3.6915000000000004e+00 9.2355835810918343e+00 3.3237064273244172e+01 0 0 0
966 2 3.6914999999999996e+00 1.0656442593567499e+01 3.3237064273244172e+01 0 0 0
808 2 8.6135000000000002e+00 1.4919019630994494e+01 3.0031000000000276e+01 0 0 0
679 2 4.9220000000000006e+00 9.9460130873296642e+00 3.0031000000000276e+01 0 0 0
681 2 4.9220000000000006e+00 8.5251540748539991e+00 3.0031000000000276e+01 0 0 0
720 2 6.1524999999999999e+00 1.2077301606043163e+01 3.0031000000000276e+01 0 0 0
722 2 6.1524999999999999e+00 1.0656442593567499e+01 3.0031000000000276e+01 0 0 0
724 2 7.3830000000000009e+00 9.9460130873296642e+00 3.0031000000000276e+01 0 0 0
726 2 7.3830000000000009e+00 8.5251540748539991e+00 3.0031000000000276e+01 0 0 0
967 2 4.9220000000000006e+00 1.1366872099805333e+01 3.3237064273244172e+01 0 0 0
968 2 4.9220000000000006e+00 8.5251540748539991e+00 3.3237064273244172e+01 0 0 0
969 2 6.1524999999999999e+00 9.2355835810918343e+00 3.3237064273244172e+01 0 0 0
989 2 6.1524999999999999e+00 1.0656442593567499e+01 3.3237064273244172e+01 0 0 0
990 2 7.3829999999999991e+00 1.1366872099805333e+01 3.3237064273244172e+01 0 0 0
991 2 7.3830000000000009e+00 8.5251540748539991e+00 3.3237064273244172e+01 0 0 0
767 2 8.6135000000000002e+00 1.2077301606043163e+01 3.0031000000000276e+01 0 0 0
769 2 8.6134999999999984e+00 1.0656442593567498e+01 3.0031000000000276e+01 0 0 0
771 2 9.8440000000000012e+00 9.9460130873296642e+00 3.0031000000000276e+01 0 0 0
773 2 9.8440000000000012e+00 8.5251540748539956e+00 3.0031000000000276e+01 0 0 0
814 2 1.1074500000000002e+01 1.2077301606043163e+01 3.0031000000000276e+01 0 0 0
816 2 1.1074500000000002e+01 1.0656442593567498e+01 3.0031000000000276e+01 0 0 0
992 2 8.6134999999999984e+00 9.2355835810918343e+00 3.3237064273244172e+01 0 0 0
1013 2 8.6134999999999984e+00 1.0656442593567498e+01 3.3237064273244172e+01 0 0 0
1014 2 9.8440000000000012e+00 1.1366872099805333e+01 3.3237064273244172e+01 0 0 0
1015 2 9.8440000000000012e+00 8.5251540748539956e+00 3.3237064273244172e+01 0 0 0
1016 2 1.1074500000000002e+01 9.2355835810918343e+00 3.3237064273244172e+01 0 0 0
1037 2 1.1074500000000002e+01 1.0656442593567498e+01 3.3237064273244172e+01 0 0 0
1038 2 1.2304999999999998e+01 1.1366872099805333e+01 3.3237064273244172e+01 0 0 0
634 2 0.0000000000000000e+00 1.4208590124756663e+01 3.0031000000000276e+01 0 0 0
636 2 0.0000000000000000e+00 1.2787731112280996e+01 3.0031000000000276e+01 0 0 0
669 2 1.2305000000000001e+00 1.4919019630994494e+01 3.0031000000000276e+01 0 0 0