
# Create simulation box and atoms

read_data data.graphite_ML_1atm_e
  orthogonal box = (0 0 0.848635) to (49.22 49.0196 59.2134)
  4 by 3 by 5 MPI processor grid
  reading atoms ...
  6589 atoms
  reading velocities ...
  6589 velocities
group water type 1
3829 atoms in group water
group graphite type 2
2760 atoms in group graphite

# Define potential

pair_style sw
pair_coeff * * MLC_e.sw mW C


# Fix graphite atoms in place

fix 5 graphite setforce 0.0 0.0 0.0
velocity graphite set 0.0 0.0 0.0


# Equilibration of molecular water

# Add velocity/set timestep

velocity	    water create ${TEMP} ${SEED} rot yes dist gaussian
velocity	    water create 230 ${SEED} rot yes dist gaussian
velocity	    water create 230 11140 rot yes dist gaussian
timestep	    5.0

# Define output

compute			1 water msd
compute			3 water temp
thermo	    	50
thermo_style	custom step temp press vol etotal ke pe c_1[4] c_3

# Neighbor lists

neigh_modify    delay 0 every 1 check yes

# Set fixes

fix             1 water momentum 10 linear 1 1 1 rescale
fix             2 water nve
fix             3 water temp/csvr ${TEMP} ${TEMP} 500.0 ${SEED}
fix             3 water temp/csvr 230 ${TEMP} 500.0 ${SEED}
fix             3 water temp/csvr 230 230 500.0 ${SEED}
fix             3 water temp/csvr 230 230 500.0 11140
fix             4 water press/berendsen z ${PRES} ${PRES} 1000.0 modulus 20000
fix             4 water press/berendsen z 1 ${PRES} 1000.0 modulus 20000
fix             4 water press/berendsen z 1 1 1000.0 modulus 20000

# Run 0.5 ns equilibration

dump		    1 all atom 2000 ${DIR}/eq.${NAME}-${TEMP}.dump
dump		    1 all atom 2000 run_4/eq.${NAME}-${TEMP}.dump
dump		    1 all atom 2000 run_4/eq.het_freeze_4-${TEMP}.dump
dump		    1 all atom 2000 run_4/eq.het_freeze_4-230.dump

reset_timestep  0

run	            100000
Neighbor list info ...
  update every 1 steps, delay 0 steps, check yes
  max neighbors/atom: 2000, page size: 100000
  master list distance cutoff = 7.76
  ghost atom cutoff = 7.76
  binsize = 3.88, bins = 13 13 16
  1 neighbor lists, perpetual/occasional/extra = 1 0 0
  (1) pair sw, perpetual
      attributes: full, newton on
      pair build: full/bin/atomonly
      stencil: full/bin/3d
      bin: standard
Per MPI rank memory allocation (min/avg/max) = 4.091 | 4.192 | 4.513 Mbytes
Step Temp Press Volume TotEng KinEng PotEng c_1[4] c_3 
       0    133.64299   -536.31266     140819.3   -33204.401    2624.4244   -35828.825            0          230 
      50    181.65714   -936.96977     140415.4    -33613.04    3567.3059   -37180.346   0.78420471     312.6325 
     100    173.83719   -880.57508    140051.42   -34076.322     3413.741   -37490.063    1.7755831    299.17434 
     150    164.71936   -744.32122     139755.7   -34493.397    3234.6891   -37728.086    2.5674737    283.48254 
     200    162.10963   -823.07429    139304.02   -34830.146    3183.4402   -38013.586     3.264568    278.99118 
     250    151.51615   -902.39263    138963.88   -35143.793      2975.41   -38119.203    3.8652677    260.75977 
     300    152.01915   -784.63311    138616.37   -35341.351    2985.2877   -38326.639    4.3704068    261.62543 
     350    151.79725   -761.64628    138279.43   -35469.295    2980.9302   -38450.225    4.8731406    261.24355 
     400    147.44081   -521.17934    138011.47    -35594.76    2895.3801    -38490.14     5.378654    253.74609 
     450    147.82447   -936.10549    137738.78   -35779.806    2902.9144   -38682.721    5.8418307    254.40638 
     500    141.95303   -862.36456    137462.49   -35956.585    2787.6135   -38744.198    6.3762988    244.30161 
     550    140.71757   -737.88529    137093.75   -36090.358    2763.3521    -38853.71    6.8721899    242.17539 
     600    140.81451   -533.18286    136835.95   -36148.833    2765.2557   -38914.088    7.3471864    242.34221 
     650     141.4948   -281.12527    136789.02   -36280.258     2778.615   -39058.873    7.6364526      243.513 
     700    139.11354   -422.96018    136735.56   -36360.414    2731.8527   -39092.267    7.9670465    239.41483 
     750    137.44447   -649.97911     136707.5   -36467.369    2699.0764   -39166.446    8.3302558    236.54237 
     800    137.50875   -594.98663    136570.12   -36507.938    2700.3386   -39208.277    8.5988349    236.65299 
     850    137.91119   -574.24673    136401.01   -36507.056    2708.2415   -39215.298    8.7814723    237.34559 
     900    138.01424   -76.716931    136375.09   -36509.029    2710.2651   -39219.294    8.9627468    237.52293 
     950    138.70873   -302.20524    136387.67   -36592.676    2723.9034   -39316.579    9.2334932    238.71817 
    1000     137.1737   -635.81136    136319.85   -36623.624    2693.7591   -39317.383    9.5095021    236.07638 
    1050    137.13069   -541.73752    136229.62   -36663.326    2692.9144    -39356.24    9.7916794    236.00234 
    1100    134.04969   -579.74896    136135.58   -36730.738    2632.4111   -39363.149    10.158053    230.69994 
    1150    133.21464   -325.33311    135966.02   -36796.733    2616.0127   -39412.746    10.522456    229.26281 
    1200    132.49531   -293.23371    135836.52   -36766.713    2601.8869     -39368.6    10.831192    228.02485 
    1250    138.02479   -390.18215    135770.67   -36715.068    2710.4723    -39425.54    10.958641    237.54109 
    1300    135.90052   -154.28694    135822.34   -36771.429    2668.7569   -39440.186    11.177954    233.88522 
    1350    134.12614   -168.49922    135961.13   -36809.034    2633.9124   -39442.946    11.314533    230.83151 
    1400    136.61256   -56.933395    135951.86   -36808.371    2682.7397   -39491.111    11.509641    235.11065 
    1450    132.36653   -76.790831    135904.99   -36853.613    2599.3579   -39452.971    11.718436    227.80322 
    1500    135.02266    63.562743    135951.49   -36850.432    2651.5178    -39501.95    11.912368    232.37442 
    1550     134.3651   -39.883308    135955.62   -36864.946    2638.6049   -39503.551    12.143498    231.24276 
    1600    134.80742   -180.40861    135911.91    -36879.45     2647.291   -39526.741    12.424133    232.00399 
    1650    135.46288   -96.820663    135893.09   -36881.508    2660.1626    -39541.67    12.586443    233.13204 
    1700    134.66061   -17.117002    135917.23   -36887.332     2644.408    -39531.74    12.753714    231.75133 
    1750    138.02533   -180.36667    136039.56   -36893.947     2710.483    -39604.43    12.896376    237.54202 
    1800    132.13756   -5.5502009    136063.25   -37003.308    2594.8614    -39598.17    13.079733    227.40915 
    1850    133.99849   -379.15927    136088.69   -36952.692    2631.4057   -39584.098    13.334809    230.61183 
    1900    133.87981   -71.160051    136101.35   -36878.492    2629.0751   -39507.567    13.553414    230.40758 
    1950    134.29511   -227.98145    136171.34    -36926.65    2637.2304    -39563.88    13.697512     231.1223 
    2000     133.2067   -310.34271    136103.93   -36952.429    2615.8568   -39568.286     13.86798    229.24915 
    2050    132.01823   -159.39816    136084.34   -36963.734    2592.5181   -39556.252    13.997553    227.20379 
    2100    132.19543    7.2096376    136110.33   -36971.261    2595.9979   -39567.259    14.233404    227.50875 
    2150    133.08465   -303.16478     136098.9   -36939.216    2613.4599   -39552.676    14.483277    229.03909 
    2200    134.16697   -137.20294    136188.07   -36977.184    2634.7141   -39611.898     14.66885    230.90177 
    2250    134.53535   -81.675939     136223.6   -36998.319    2641.9483   -39640.267    14.787813    231.53577 
    2300    131.85128   -47.182365    136252.32   -36988.595    2589.2397   -39577.834    14.904622    226.91647 
    2350    134.56341   -125.82387    136207.07   -37014.899    2642.4992   -39657.398    15.166907    231.58405 
    2400    130.98839   -142.64834    136196.79   -37042.355    2572.2945    -39614.65    15.452466    225.43143 
    2450    135.99408    136.88699    136202.97    -36969.62    2670.5941   -39640.214    15.536077    234.04623 
    2500    138.00103   -111.94825    136243.12   -36954.597    2710.0058   -39664.603    15.657304     237.5002 
    2550    132.34241   -15.586862    136283.91    -36956.55    2598.8842   -39555.434    15.721489     227.7617 
    2600    135.60198   -159.85358    136286.15   -36991.142    2662.8942   -39654.036    15.868293    233.37143 
    2650    134.23832   -356.06344    136230.09    -37026.13    2636.1153   -39662.245      16.0071    231.02457 
    2700    135.23357    -351.4547    136215.18   -37013.169    2655.6597   -39668.829    16.286376     232.7374 
    2750    132.54587   -398.67409    136186.29   -37043.064    2602.8797   -39645.944    16.606902    228.11186 
    2800     134.6665  -0.73686221     136195.6   -37005.353    2644.5238   -39649.876    16.839969    231.76147 
    2850    136.47135     3.962002    136177.42   -36966.994    2679.9666    -39646.96    16.979755    234.86762 
    2900    136.96632   -87.491308     136124.6   -37001.344    2689.6865   -39691.031    17.266954    235.71946 
    2950    132.39801   -247.65038    136182.41   -37069.294    2599.9761    -39669.27     17.44281    227.85739 
    3000    137.58518   -163.42835    136193.04   -36976.759    2701.8394   -39678.598    17.668648    236.78452 
    3050    135.66382   -176.73641    136216.36   -36989.755    2664.1086   -39653.863    17.896283    233.47785 
    3100     135.0607    11.982186    136363.16   -37053.341    2652.2649   -39705.606    18.035893     232.4399 
    3150    134.30922   -229.46074    136429.14   -37022.968    2637.5077   -39660.476    18.180824     231.1466 
    3200    135.64743   -227.23398    136398.03    -37064.51    2663.7868   -39728.296    18.464719    233.44965 
    3250    132.61741    54.110007    136456.71   -37064.262    2604.2846   -39668.547    18.655754    228.23498 
    3300    137.00971    133.08468     136516.2   -37031.013    2690.5387   -39721.551    18.765781    235.79414 
    3350    136.10408    137.42795    136619.51   -37056.948    2672.7543   -39729.702    18.950035    234.23555 
    3400    134.67816   -39.339009    136693.56   -37077.819    2644.7526   -39722.571    18.938401    231.78153 
    3450    132.03871   -159.48384    136704.69   -37087.681    2592.9202   -39680.601    19.081009    227.23903 
    3500     134.6119    53.175282    136745.55   -37076.829    2643.4516    -39720.28    19.227174    231.66751 
    3550     134.4094   -179.05141     136763.6   -37070.577    2639.4748   -39710.052     19.42286    231.31899 
    3600    132.95148   -492.70693    136837.15   -37089.657    2610.8449   -39700.502    19.533664    228.80991 
    3650    132.86851   -242.28532    136859.46   -37111.741    2609.2156   -39720.956    19.668466    228.66712 
    3700    133.81362   -166.00303    136850.94    -37113.32    2627.7751   -39741.095    19.857483    230.29365 
    3750    133.28715   -229.23637    136813.11   -37095.879    2617.4365   -39713.315    20.079638     229.3876 
    3800    134.80837    -318.9827    136810.24   -37081.932    2647.3097   -39729.242    20.257597    232.00563 
    3850     133.0883   -324.64687    136690.94   -37067.593    2613.5318   -39681.125    20.466992    229.04539 
    3900    134.66277   -385.02196    136633.27   -37023.707    2644.4505   -39668.158    20.817444    231.75505 
    3950    133.84392   -271.19854    136649.59   -37093.982    2628.3703   -39722.353    21.074466    230.34581 
    4000    133.44364   -434.63311    136604.65   -37071.242    2620.5097   -39691.752    21.273452    229.65692 
    4050    135.09314    9.2036767    136588.64   -37068.282    2652.9019   -39721.184    21.514381    232.49572 
    4100    134.21957    -36.97004    136618.32   -37018.666    2635.7472   -39654.413    21.603937    230.99231 
    4150     135.2181   -134.34499    136600.84   -37017.934    2655.3558    -39673.29    21.832502    232.71077 
    4200    137.64832   -463.59668    136592.46   -37014.224    2703.0795   -39717.303     21.97952     236.8932 
    4250    135.41166   -190.20785    136603.37   -36975.553    2659.1569    -39634.71    22.051566     233.0439 
    4300    132.13172   -348.06207    136651.46   -36978.521    2594.7467   -39573.268    22.250304     227.3991 
    4350    135.77161   -381.15341    136579.77   -36971.652    2666.2253   -39637.877    22.582904    233.66336 
    4400    134.25364   -28.729778    136586.89    -36986.91    2636.4161   -39623.326    22.731939    231.05093 
    4450    134.33631   -104.86789    136631.01   -37001.645    2638.0397   -39639.685    23.064691    231.19322 
    4500    134.87223   -296.29642    136606.22   -37051.002    2648.5637   -39699.566    23.372961    232.11553 
    4550    134.49373   -129.57477    136612.18   -37049.418     2641.131   -39690.549    23.590588    231.46414 
    4600    132.59148   -139.06919    136669.82    -37062.62    2603.7754   -39666.396    23.737263    228.19036 
    4650    134.55773   -313.65824    136706.88   -37083.697    2642.3878   -39726.085    23.774145    231.57428 
    4700    134.79048   -140.32266     136806.1   -37041.948    2646.9583   -39688.907    23.832857    231.97483 
    4750    132.43481   -260.88087    136798.16   -37074.222    2600.6987   -39674.921    24.071305    227.92072 
    4800    136.01763   -34.611858    136843.25   -37073.367    2671.0566   -39744.424     24.20953    234.08677 
    4850    132.45735   -172.67267    136870.08   -37085.751    2601.1413   -39686.892    24.391144    227.95951 
    4900    131.56066   -351.91399    136868.94   -37059.202    2583.5325   -39642.735    24.630206     226.4163 
    4950    133.91318    -303.3111    136910.25   -37057.455    2629.7302   -39687.186    24.697326    230.46499 
    5000    132.61095   -175.88273    136945.22   -37017.213    2604.1577    -39621.37    24.804579    228.22386 
    5050    135.92093   -177.53845    136932.87   -37033.786    2669.1576   -39702.944    24.864718    233.92034 
    5100    134.09051   -207.40485    137001.54   -37090.326    2633.2126   -39723.539     25.03601    230.77018 
    5150    132.05969   -255.89404     137004.6   -37044.897    2593.3322   -39638.229    25.296424    227.27513 
    5200    134.70059   -209.18943    137017.52   -37079.197    2645.1931    -39724.39    25.629518    231.82013 
    5250    133.59832   -82.876432    136975.28   -37120.059    2623.5473   -39743.607    25.815016    229.92313 
    5300    132.90732    5.1276745    137009.49   -37108.805    2609.9777   -39718.782    25.694641    228.73392 
    5350    132.26733   -160.52202    137121.99   -37120.224    2597.4099   -39717.634    25.583308     227.6325 
    5400    132.68308   -210.60338    137243.86   -37148.334    2605.5741   -39753.908    25.684126      228.348 
    5450    131.37289   -190.13219    137220.71   -37128.986    2579.8451   -39708.831    25.871588    226.09315 
    5500    133.21662   -283.85202    137178.21   -37141.513    2616.0515   -39757.564     25.96064    229.26622 
    5550    132.63452   -227.91773    137146.12   -37143.592    2604.6206   -39748.212    26.130769    228.26443 
    5600    131.99808   -10.215072    137112.04   -37117.904    2592.1224   -39710.026    26.236359    227.16911 
    5650    134.26726   -157.32924    137124.31   -37113.021    2636.6837   -39749.704    26.283715    231.07438 
    5700    132.32597   -375.78053     137071.3   -37095.007    2598.5614   -39693.569    26.467155    227.73341 
    5750    134.22653   -393.60952    137048.59    -37086.37    2635.8839   -39722.254    26.625964    231.00429 
    5800    134.11412   -314.20919    137012.25   -37115.427    2633.6764   -39749.104    26.722949    230.81083 
    5850    131.52733    -245.0492    136995.02   -37084.826    2582.8781   -39667.704     26.84603    226.35895 
    5900    132.37259   -240.00133    137022.21   -37078.936    2599.4769   -39678.413    27.063498    227.81365 
    5950    134.39249   -187.31937    137050.26   -37080.229    2639.1429   -39719.372     27.30369    231.28991 
    6000    134.52947   -250.30426    137059.32   -37085.101    2641.8327   -39726.934    27.410794    231.52564 
    6050    133.73265   -388.13436    137011.64   -37088.013    2626.1851   -39714.198    27.496058     230.1543 
    6100    132.91406   -206.12629    136978.93   -37126.332    2610.1099   -39736.442    27.649513    228.74551 
    6150    134.22316   -188.65065    137008.97   -37069.496    2635.8175   -39705.313    27.608547    230.99847 
    6200    130.86138   -330.62074    137002.07   -37103.141    2569.8004   -39672.942    27.785648    225.21285 
    6250    135.85365   -482.78441    136974.33   -37082.418    2667.8364   -39750.255    28.080617    233.80455 
    6300    132.02057   -124.47196    136983.71   -37070.904     2592.564   -39663.468    28.413681    227.20781 
    6350    135.87954   -92.090798    137022.01   -37072.586    2668.3449   -39740.931    28.531234    233.84911 
    6400    135.72505   -84.447521     137063.9   -37080.976     2665.311   -39746.287    28.797746    233.58323 
    6450    133.23408   -278.64232    137100.94    -37072.92    2616.3945   -39689.314    28.927043    229.29628 
    6500    134.52033    -324.7165    137038.92   -37119.158    2641.6532   -39760.812    29.203123     231.5099 
    6550    132.78668   -353.75989    137005.02   -37122.327    2607.6085   -39729.935    29.390863    228.52629 
    6600    134.53753   -276.52441    136891.92   -37082.506     2641.991   -39724.497    29.709078     231.5395 
    6650    134.94996    170.32004    136996.65   -37085.853    2650.0902   -39735.943    29.872144    232.24931 
    6700    134.26889   -172.78053    137080.81   -37072.098    2636.7157   -39708.814    29.919757    231.07719 
    6750    134.41637   -90.557496     137117.3   -37116.923    2639.6117   -39756.534    30.043486    231.33099 
    6800    133.25176    103.99165    137181.67   -37131.859    2616.7417   -39748.601    30.339787     229.3267 
    6850    134.51249   -220.58182    137179.13   -37073.704    2641.4993   -39715.203     30.40684    231.49641 
    6900    132.13285   -239.81713    137139.47   -37092.645     2594.769   -39687.414    30.637564    227.40105 
    6950     132.8366   -229.88226    137152.17   -37106.179    2608.5889   -39714.768    30.837617     228.6122 
    7000    131.83228    28.471479    137139.54   -37113.644    2588.8665   -39702.511    31.097016    226.88376 
    7050    131.85639   -310.96852    137242.93   -37104.876    2589.3401   -39694.216     31.28895    226.92527 
    7100    131.46158   -262.12635    137211.87   -37131.865    2581.5869   -39713.452    31.469941     226.2458 
    7150    130.95021   -578.14142    137140.54   -37187.316    2571.5448   -39758.861    31.647287    225.36572 
    7200    130.68298   -284.95118    137165.77   -37192.686     2566.297   -39758.983     31.72717    224.90581 
    7250    130.81778   -83.750698    137242.85   -37175.772    2568.9441   -39744.716    32.019163     225.1378 
    7300    133.60629   -281.54208    137273.04   -37139.766    2623.7038    -39763.47    32.051753    229.93685 
    7350    134.27985   -241.61609     137348.6   -37161.056    2636.9308   -39797.986    32.241767    231.09604 
    7400    132.78701   -257.67936    137347.07   -37112.193    2607.6151   -39719.808     32.24978    228.52686 
    7450    132.73233   -312.54435    137294.83   -37069.444    2606.5413   -39675.985    32.524974    228.43276 
    7500    133.66861   -158.57845    137350.44   -37098.474    2624.9275   -39723.402    32.704599    230.04409 
    7550    134.48769   -350.17488    137323.24   -37128.582    2641.0124   -39769.594    33.009537    231.45374 
    7600    133.63326    -309.5611     137141.9   -37116.461    2624.2335   -39740.694    33.379644    229.98327 
    7650    131.33061   -52.992487    137189.19   -37143.009     2579.015   -39722.024    33.515664     226.0204 
    7700    136.04685   -281.44381    137204.85   -37123.119    2671.6304    -39794.75    33.727573    234.13705 
    7750     132.9062   -370.53833    137235.47   -37152.076    2609.9557   -39762.032    34.001723    228.73199 
    7800    134.09053   -246.58282    137258.07   -37132.531     2633.213   -39765.744     34.06492    230.77022 
    7850    130.74024   -196.63079    137277.58   -37144.187    2567.4215   -39711.609    34.115016    225.00437 
    7900    134.86968   -109.18766    137256.06   -37119.743    2648.5137   -39768.257    34.156923    232.11114 
    7950    129.17202   -73.531843    137200.03   -37122.317    2536.6255   -39658.942    34.280582    222.30546 
    8000     134.0778   -248.81051    137127.64   -37056.307    2632.9631    -39689.27    34.366584    230.74832 
    8050    135.08973   -87.629122    137133.45   -37083.673    2652.8349   -39736.508     34.52494    232.48984 
    8100    132.85767   -7.6953016     137170.7   -37087.018    2609.0027   -39696.021    34.640111    228.64847 
    8150    133.69308   -291.16877    137153.17   -37092.361     2625.408   -39717.769    34.595794     230.0862 
    8200     135.7511   -182.64312    137091.13   -37120.956    2665.8226   -39786.779    34.814796    233.62807 
    8250    134.04385   -296.01348    137077.82   -37067.486    2632.2964   -39699.782    35.162863    230.68989 
    8300    134.10476   -391.81408    137037.67   -37089.875    2633.4925   -39723.368    35.251773    230.79471 
    8350    130.08098    -212.1502    137036.38   -37094.285    2554.4753    -39648.76    35.327787    223.86978 
    8400    131.44679   -30.828415     137105.4   -37062.851    2581.2964   -39644.148    35.556027    226.22033 
    8450    135.16355   -177.59289    137086.73   -37015.543    2654.2846   -39669.828    35.494341    232.61689 
    8500    133.56876    23.344173    137083.92   -37027.735    2622.9668   -39650.702    35.364399    229.87226 
    8550     133.4779    -251.3492    137121.29   -37101.469    2621.1824   -39722.652    35.479342    229.71588 
    8600    133.22403   -452.87735    137147.65   -37074.996    2616.1971   -39691.193    35.529046    229.27898 
    8650    131.98209   -264.66513    137150.88   -37066.186    2591.8083   -39657.995     35.62238    227.14159 
    8700    132.55168    -200.2452    137102.13   -37083.863    2602.9938   -39686.857    35.834036    228.12186 
    8750    129.69927   -243.71348    137055.22   -37108.278    2546.9794   -39655.258     35.93314    223.21286 
    8800     132.8987   -249.88989    137040.19   -37058.705    2609.8085   -39668.514    36.235314    228.71909 
    8850    129.73243    -310.2561    136920.54   -37076.784    2547.6305   -39624.414    36.524276    223.26991 
    8900     133.3726   -152.52647    136888.56   -37079.475    2619.1146    -39698.59    36.719323    229.53466 
    8950     133.9812   -156.85934    136882.48   -37082.073     2631.066   -39713.139    36.908824    230.58206 
    9000    132.63418   -204.59384    136901.11   -37092.259    2604.6139   -39696.873    37.028182    228.26384 
    9050    131.39386   -194.08867    136921.13   -37101.257     2580.257   -39681.514    37.015358    226.12925 
    9100    132.48679   -291.25081    136805.26    -37167.16    2601.7195   -39768.879    37.377568    228.01018 
    9150    133.41168   -127.09114    136821.47   -37127.581    2619.8821   -39747.463    37.514641    229.60192 
    9200    132.00499   -199.79316    136896.13    -37109.51    2592.2581   -39701.768    37.582394      227.181 
    9250    133.06874   -237.88682    136877.76   -37076.319    2613.1475   -39689.467    37.813009    229.01171 
    9300    134.18922   -263.46667    136909.76   -37049.711    2635.1511   -39684.862    38.082194    230.94007 
    9350    134.09321   -389.58278     136838.5   -37055.869    2633.2657   -39689.135    38.188954    230.77484 
    9400    132.50227   -17.501185    136903.16    -37069.11    2602.0235   -39671.133    38.401044    228.03682 
    9450    133.88555   -308.00131    136914.29   -37130.553    2629.1877   -39759.741    38.660279    230.41745 
    9500    130.70472   -272.63882    136872.91   -37082.756    2566.7239    -39649.48    38.979334    224.94323 
    9550    133.80107   -49.077274    136901.36   -37067.722    2627.5288   -39695.251    39.026628    230.27207 
    9600    132.02218   -186.31643    136842.27    -37115.97    2592.5957   -39708.566    39.128741    227.21059 
    9650    132.49737   -19.100398    136808.13   -37059.088    2601.9272   -39661.015    39.248306    228.02839 
    9700    131.08129   -148.01054    136794.62   -37061.918    2574.1188   -39636.036    39.448536    225.59131 
    9750    133.03118   -378.92533     136764.9    -37062.69    2612.4101     -39675.1    39.565654    228.94708 
    9800    132.54778   -139.00693    136722.08   -37032.908    2602.9173   -39635.825    39.878139    228.11515 
    9850    132.64997   -214.53449    136739.06   -37021.558     2604.924   -39626.482    40.003115    228.29102 
    9900    132.70965   -301.30999    136816.68   -37007.073    2606.0959   -39613.169    40.132879    228.39373 
    9950    133.54677   -99.370771    136849.24     -37008.5     2622.535   -39631.035    40.261393    229.83442 
   10000    134.64564   -214.56406     136925.6   -36986.866     2644.114    -39630.98    40.418515    231.72557 
   10050    133.81516    -438.6184    136865.22   -37028.699    2627.8054   -39656.504    40.595409    230.29631 
   10100    132.41259   -304.60652    136798.87   -37045.626    2600.2623   -39645.889    40.824449    227.88247 
   10150    133.84362   -170.40029    136833.73   -37089.608    2628.3644   -39717.972    41.226776     230.3453 
   10200    134.73022   -314.89382    136854.27   -37018.056     2645.775   -39663.831    41.401929    231.87113 
   10250    135.44001   -136.18925    136863.28   -37056.413    2659.7136   -39716.127    41.576474    233.09268 
   10300    132.60214   -330.74828    136802.18   -37086.266    2603.9848   -39690.251     41.69757     228.2087 
   10350    134.12149   -34.986293    136807.41   -37041.723    2633.8211   -39675.544    41.936936    230.82351 
   10400    132.04059   -308.04209    136817.46   -37017.198    2592.9571   -39610.155    42.101035    227.24226 
   10450    135.81895    45.226902    136865.99   -36982.885     2667.155    -39650.04    42.499597    233.74483 
   10500     136.6594   -138.97561       136849   -36932.341    2683.6595       -39616    42.587494    235.19126 
   10550    137.76295   -157.72015    136936.69   -36974.755    2705.3306   -39680.085    42.785242    237.09047 
   10600    132.42778   -136.44493    136970.61   -36984.974    2600.5608   -39585.535    42.807508    227.90863 
   10650    133.74143   -294.20173    136877.87   -37044.894    2626.3576   -39671.251    42.820305    230.16942 
   10700     134.2633   -89.734827    136867.19   -37072.847    2636.6058   -39709.453    43.181755    231.06756 
   10750    132.72141   -291.97547    136871.97    -37121.34    2606.3269   -39727.667    43.322335    228.41397 
   10800    131.04149   -336.85627    136786.02   -37096.311    2573.3373   -39669.648    43.446688    225.52282 
   10850    133.56824    -327.0209    136740.01   -37039.573    2622.9565   -39662.529    43.419006    229.87135 
   10900    133.57806    -299.0175    136655.23   -37067.698    2623.1495   -39690.848    43.600464    229.88827 
   10950    132.75567   -163.65235    136623.18   -37083.452    2606.9996   -39690.452    43.781392    228.47292 
   11000    133.29193   -72.455896    136550.86   -37073.268    2617.5305   -39690.799    43.935999    229.39583 
   11050    131.88085    -237.4379    136539.56   -37090.105    2589.8203   -39679.925    44.284925    226.96736 
   11100    135.10061   -82.469622    136600.01   -37030.315    2653.0486   -39683.363    44.331693    232.50857 
   11150    133.05535    -495.6362    136590.64   -37006.261    2612.8846   -39619.145    44.478682    228.98867 
   11200    135.13498     -420.625    136496.58   -37061.146    2653.7236    -39714.87     44.52653    232.56773 
   11250     131.8074   -297.64673    136469.91   -37076.147    2588.3778   -39664.525    44.752376    226.84094 
   11300    132.70388    -105.4447    136418.85   -37063.403    2605.9826   -39669.386    44.672026     228.3838 
   11350    133.37638      -70.178    136480.88   -37064.251     2619.189    -39683.44    44.880049    229.54118 
   11400    134.59007   -117.81916    136515.58   -37034.973    2643.0227   -39677.995    45.167092    231.62993 
   11450    132.05408   -306.95462    136571.78   -37074.961    2593.2221   -39668.183    45.311196    227.26548 
   11500    134.79859   -574.58623    136521.15   -37112.629    2647.1176   -39759.746    45.284761    231.98879 
   11550    129.95557    -207.1726     136514.1   -37129.844    2552.0125   -39681.856    45.668204    223.65395 
   11600    132.28413   -290.55306    136576.96   -37090.898    2597.7396   -39688.637    45.722444    227.66139 
   11650    132.66117    -137.3953    136632.96   -37098.698    2605.1439   -39703.842    46.108189    228.31029 
   11700    130.32526   -97.518196    136717.63   -37148.222    2559.2723   -39707.495    46.387853    224.29019 
   11750    133.90441   -364.09436    136731.39   -37143.097     2629.558   -39772.655    46.527609     230.4499 
   11800    132.14105   -240.20394    136774.18   -37133.776      2594.93   -39728.706    46.663682    227.41516 
   11850    135.12066    76.836217    136795.25   -37067.202    2653.4422   -39720.644    46.722015    232.54307 
   11900    132.02622   -517.88023    136709.74    -37094.05    2592.6751   -39686.725    47.055656    227.21754 
   11950    130.91416   -319.05975    136708.76   -37087.604    2570.8368    -39658.44    47.321517    225.30368 
   12000    133.52461   -381.47061    136691.62   -37076.382    2622.0997   -39698.482    47.577853    229.79627 
   12050    132.43194    -127.1234    136737.22   -37097.308    2600.6423   -39697.951    47.840166    227.91578 
   12100    133.91295   -212.66538     136758.2   -37097.568    2629.7259   -39727.294    47.925441    230.46461 
   12150    133.33746   -91.992768    136790.83   -37100.018    2618.4246   -39718.443    48.037619    229.47419 
   12200    132.99051   -240.96557    136813.35    -37104.37    2611.6114   -39715.981    48.164991    228.87709 
   12250    133.15527   -548.88199    136758.66    -37143.27    2614.8468   -39758.117    48.223249    229.16063 
   12300    133.57741   -180.25371    136787.05    -37108.03    2623.1366   -39731.166    48.065207    229.88714 
   12350    137.50686   -331.26491    136876.97   -37060.897    2700.3015   -39761.199    48.058481    236.64974 
   12400    135.62626   -104.74116    136858.95   -37023.418    2663.3711   -39686.789    48.335681    233.41322 
   12450    134.44629   -324.16598    136879.23   -37079.536    2640.1994   -39719.736    48.519275    231.38249 
   12500    136.64653   -272.16158    136960.97   -37037.866    2683.4066   -39721.272    48.877219     235.1691 
   12550    136.42566   -204.62874    136918.33   -37070.766    2679.0693   -39749.835    49.034169    234.78898 
   12600    132.56452   -239.64837    136964.62    -37107.81    2603.2459   -39711.056      49.2928    228.14395 
   12650    130.92536   -285.97809    137019.88   -37117.002    2571.0569   -39688.059    49.375245    225.32296 
   12700     132.3013   -216.58287    137169.79   -37125.991    2598.0769   -39724.068    49.638494    227.69095 
   12750    131.33551   -138.41478    137251.09   -37185.838    2579.1112   -39764.949    49.889238    226.02883 
   12800    131.57638   -393.98642    137246.86   -37182.048    2583.8413    -39765.89     49.80377    226.44337 
   12850     132.7434   -223.55605    137279.52   -37193.471    2606.7588   -39800.229    49.789447    228.45181 
   12900    132.58403    -96.39225    137281.43   -37224.154    2603.6291   -39827.783    49.681812    228.17753 
   12950    133.26205   -262.96572    137345.01   -37228.216    2616.9437    -39845.16    49.919224     229.3444 
   13000     131.0122   -267.49216    137289.63   -37176.894    2572.7621   -39749.656    49.944896     225.4724 
   13050    135.04813   -50.885968    137388.94   -37148.411     2652.018   -39800.429    49.837297    232.41826 
   13100    134.79547   -176.27829    137440.49   -37147.155    2647.0564   -39794.212    49.977997    231.98343 
   13150    132.94834   -386.09231    137385.23   -37157.907    2610.7831    -39768.69    50.160604     228.8045 
   13200    132.71582   -238.69204    137340.66   -37153.336    2606.2172   -39759.553    50.174648    228.40435 
   13250    132.96773   -245.15617     137354.9   -37168.404     2611.164   -39779.567    50.157094    228.83788 
   13300    133.03619   -224.92792    137394.46   -37210.827    2612.5084   -39823.335     50.28342     228.9557 
   13350    134.36778   -174.27684     137433.5    -37219.51    2638.6575   -39858.167    50.486274    231.24737 
   13400    133.32007   -224.55054    137428.19    -37242.99    2618.0831   -39861.073    50.611095    229.44426 
   13450    130.34692    -188.9856    137443.74   -37249.979    2559.6977   -39809.677    50.781091    224.32746 
   13500    131.72102   -173.64104    137371.51   -37236.351    2586.6816   -39823.032    50.955214    226.69229 
   13550    130.90387   -347.72463    137279.82   -37178.855    2570.6349    -39749.49    51.012979    225.28598 
   13600    131.67191    -267.5464    137148.44   -37152.414    2585.7173   -39738.131    51.373176    226.60777 
   13650     134.7028   -94.559037    137122.68   -37124.903    2645.2365   -39770.139    51.683708    231.82393 
   13700    132.92385   -314.00503     137165.2   -37123.999    2610.3024   -39734.301    51.964497    228.76237 
   13750    133.67658   -187.93703    137199.76   -37106.058     2625.084   -39731.142    51.832328    230.05781 
   13800    132.08021    -204.3454    137248.42   -37122.893    2593.7353   -39716.628      51.9942    227.31046 
   13850    133.35337   -76.057184    137199.46   -37081.664     2618.737   -39700.401    52.015313    229.50157 
   13900    132.68961   -34.645528    137160.56   -37092.193    2605.7024   -39697.896    52.111822    228.35924 
   13950    131.49658   -177.69799    137158.38   -37095.255    2582.2741   -39677.529    52.079154    226.30602 
   14000    134.50151   -377.25094    137127.14   -37102.133    2641.2838   -39743.417    52.246937    231.47752 
   14050    132.65579   -335.79711    137114.81   -37147.904    2605.0382   -39752.942    52.386862    228.30102 
   14100    132.48652   -58.585094    137120.26    -37091.63    2601.7142   -39693.345    52.563063    228.00972 
   14150    134.85094   -122.87917    137163.38   -37114.546    2648.1457   -39762.692    52.578921    232.07889 
   14200    131.83059   -90.081882    137236.03   -37099.592    2588.8334   -39688.426    52.706225    226.88086 
   14250     132.9053   -434.54386    137222.26   -37051.855     2609.938   -39661.793    52.863015    228.73044 
   14300    138.03938   -254.47322    137217.92    -37016.99     2710.759   -39727.749    52.878936    237.56621 
   14350     135.7376   -249.48388    137270.49   -37041.612    2665.5575    -39707.17    52.857234    233.60484 
   14400     135.7619   -291.56401    137372.72   -37092.891    2666.0347   -39758.926    53.009251    233.64666 
   14450    135.05994   -44.844928    137403.09   -37069.063    2652.2499   -39721.313    53.072664    232.43858 
   14500     133.0323   -224.28687    137348.22    -37090.88     2612.432   -39703.312    53.176697    228.94901 
   14550    130.73901   -305.82537    137248.56   -37091.436    2567.3974   -39658.834    53.590302    225.00225 
   14600    130.54361   -330.79714    137199.47   -37132.505    2563.5601   -39696.066    53.636494    224.66595 
   14650    133.98919   -165.24109    137214.43   -37140.409    2631.2229   -39771.632     54.01987    230.59581 
   14700    129.63635   -432.66147    137238.58   -37190.647    2545.7438   -39736.391    54.352947    223.10457 
   14750    133.59974   -432.28433    137250.61   -37145.609    2623.5751   -39769.184    54.381371    229.92557 
   14800    132.21719   -150.02948    137261.59   -37157.145    2596.4252    -39753.57    54.589026     227.5462 
   14850    134.43194   -305.36399    137255.51   -37156.591    2639.9176   -39796.509    54.677344    231.35779 
   14900    132.45101   -193.79598    137358.67   -37151.578    2601.0169   -39752.595    54.792864    227.94861 
   14950    132.96696    -261.7125    137376.62   -37141.112    2611.1488   -39752.261    54.952457    228.83655 
   15000     132.5115   -511.60202    137368.73   -37125.642    2602.2048   -39727.847    55.230193    228.05271 
   15050    131.85175   -155.99428    137345.53   -37133.656    2589.2488   -39722.904    55.434848    226.91728 
   15100    131.50687   -380.73716    137376.21    -37111.33    2582.4762   -39693.806    55.690546    226.32373 
   15150    134.20474   -163.68069    137356.67   -37111.756    2635.4558   -39747.212    55.730396    230.96677 
   15200    132.03404    -186.1213    137376.81   -37106.342    2592.8286    -39699.17    56.025587      227.231 
   15250     131.5377    27.220655    137415.83   -37101.914    2583.0816   -39684.996    56.226585    226.37679 
   15300    132.40807   -211.86661    137400.97    -37077.74    2600.1736   -39677.913    56.466582     227.8747 
   15350     135.9586   -223.25192    137449.51   -37042.578    2669.8975   -39712.476    56.738999    233.98518 
   15400    135.13558   -338.10495    137451.17   -36986.973    2653.7352   -39640.708    56.818175    232.56875 
   15450    131.27939   -251.13367    137405.78   -37049.777    2578.0091   -39627.786    56.769644    225.93224 
   15500    136.09375   -559.79101    137385.44   -37095.944    2672.5514   -39768.495    56.708748    234.21776 
   15550    137.45059   -186.63571     137377.4   -37100.991    2699.1964   -39800.188    56.825235    236.55289 
   15600    132.49034   -567.66559    137368.34   -37142.675    2601.7892   -39744.464    57.056788    228.01629 
   15650    133.34064   -412.18182     137342.8   -37142.802     2618.487   -39761.289    57.063566    229.47966 
   15700    132.55245      -357.53    137267.76   -37147.262    2603.0089   -39750.271    57.018411    228.12318 
   15750    135.01403   -186.84907    137249.08   -37128.236    2651.3483   -39779.585    57.224809    232.35956 
   15800    132.93252   -380.03948    137264.31   -37131.793    2610.4726   -39742.265     57.50078    228.77729 
   15850    132.66883   -113.71763    137312.54   -37094.362    2605.2944   -39699.656    57.705336    228.32348 
   15900    133.61279   -51.064631    137359.45   -37083.842    2623.8314   -39707.673    57.792068    229.94803 
   15950    133.61903   -518.34994    137423.79   -37067.418    2623.9539   -39691.372    58.071555    229.95877 
   16000    133.16789   -379.39175    137421.14   -37106.729    2615.0946   -39721.823    58.230031    229.18235 
   16050    136.53851   -493.01366    137338.36   -37086.178    2681.2854   -39767.463    58.486057     234.9832 
   16100    135.05435   -330.06486    137302.19   -37106.122    2652.1401   -39758.262    58.703775    232.42895 
   16150    134.50692   -396.54858    137172.67   -37071.456      2641.39   -39712.846    58.984965    231.48684 
   16200    133.83826   -48.438906    137107.84   -37089.558    2628.2591   -39717.818    59.119167    230.33607 
   16250    133.61382   -219.62407    137112.23   -37080.519    2623.8516   -39704.371    59.305075     229.9498 
   16300    133.15855   -70.221221    137104.21   -37066.351    2614.9113   -39681.262    59.344541    229.16629 
   16350    132.27139   -322.23253    137141.24   -37071.911    2597.4895     -39669.4    59.435968    227.63947 
   16400    134.98556   -170.85332    137171.04   -37008.536    2650.7892   -39659.325    59.454696    232.31056 
   16450    138.26574   -254.20961    137144.51   -36982.858     2715.204   -39698.062    59.395594    237.95577 
   16500    137.15877   -98.765948    137215.95   -36995.095    2693.4659   -39688.561    59.735839    236.05068 
   16550     134.0625   -267.30734    137179.59   -37017.668    2632.6627   -39650.331     59.90886    230.72199 
   16600    135.32718   -198.76897    137103.96   -36968.565    2657.4979   -39626.063    60.138064     232.8985 
   16650    134.58604   -53.516342    137103.92   -37026.863    2642.9437   -39669.807    60.225658      231.623 
   16700    135.42268   -142.97701     137115.7   -37031.585    2659.3732   -39690.958    60.361374    233.06285 
   16750    135.70853    -336.9344    137227.01   -36984.521    2664.9866   -39649.508    60.402907     233.5548 
   16800    135.54942   -245.97163    137172.39   -37021.601    2661.8621   -39683.464    60.465687    233.28098 
   16850    133.18617    -390.6067    137090.27   -37054.099    2615.4537   -39669.553    60.694684    229.21382 
   16900    134.78274   -307.84859    137006.58   -37049.795    2646.8064   -39696.601    60.810501    231.96152 
   16950    131.74641   -346.24891    136984.18   -37102.515    2587.1802   -39689.695    60.839785    226.73599 
   17000    136.85483   -301.81972    136877.83   -37041.475    2687.4972   -39728.972    61.110457    235.52759 
   17050    135.18485   -277.35549    136879.69   -37072.909    2654.7029   -39727.612    61.289862    232.65355 
   17100    133.70686    93.996109    136861.52     -37038.6    2625.6787   -39664.279    61.513619    230.10993 
   17150    132.03683   -317.02331    136883.73   -37050.044    2592.8833   -39642.928    61.847446    227.23579 
   17200    134.20154   -12.990008    136889.59    -37012.51     2635.393   -39647.903    62.086416    230.96127 
   17250    135.67322   0.60667496    137020.89    -37014.15    2664.2932   -39678.443    62.437677    233.49404 
   17300    135.34738   -156.93809    136970.73   -37023.344    2657.8946   -39681.239    62.546389    232.93327 
   17350    133.96339   -353.17999    136852.72   -37078.614    2630.7163    -39709.33    62.878072    230.55141 
   17400    133.20226    -84.81486    136923.22   -37033.278    2615.7696   -39649.047    63.071795     229.2415 
   17450    134.22573   -341.03444    136982.48   -37013.232     2635.868     -39649.1    63.229482     231.0029 
   17500    135.27463   -99.869814    136923.03   -37000.798     2656.466   -39657.264    63.517833    232.80807 
   17550    133.35583    -213.3416    136883.59   -37007.154    2618.7853   -39625.939    63.708502     229.5058 
   17600    136.37428   -414.73212    136843.19   -37003.998    2678.0604   -39682.058    63.883926    234.70057 
   17650    134.72685   -233.52994    136795.29   -37102.093    2645.7088   -39747.802    64.177818    231.86533 
   17700    134.40421   -74.069239    136821.56   -37073.928    2639.3731   -39713.301    64.343993    231.31007 
   17750    135.49284   -156.63178    136955.52   -37049.276     2660.751   -39710.027     64.34383     233.1836 
   17800     135.3857   -128.73433    137048.82   -37040.468     2658.647   -39699.115    64.388716    232.99921 
   17850    133.78014   -149.43615    137116.02   -37092.399    2627.1177   -39719.517     64.46551    230.23603 
   17900    134.39473    9.2359105    137168.32   -37093.409    2639.1869   -39732.596    64.456102    231.29376 
   17950    135.31687   -119.28536    137247.51   -37063.881    2657.2954   -39721.176    64.680527    232.88075 
   18000    132.35382    39.418822    137364.97   -37074.936    2599.1082   -39674.044    64.807103    227.78134 
   18050    134.13285   -341.69004    137343.95   -37037.381    2634.0442   -39671.425    64.938808    230.84306 
   18100    132.34149    3.8148039    137290.61   -37064.917    2598.8662   -39663.783    65.276897    227.76012 
   18150    137.48696   -324.04787    137337.23    -37018.66    2699.9107    -39718.57    65.662162    236.61549 
   18200    135.35381   -292.19228    137288.32   -37022.364    2658.0208   -39680.385    65.701539    232.94433 
   18250     135.8968   -181.40865    137299.84    -37065.28    2668.6838   -39733.964    65.808554    233.87882 
   18300    136.19744   -88.263708    137285.45   -37053.462    2674.5876    -39728.05     65.88341    234.39621 
   18350    133.98626   -31.323316    137277.66   -37096.006    2631.1654   -39727.171    66.194328    230.59077 
   18400    135.27747   -151.90729    137245.03   -37106.227    2656.5216   -39762.749    66.464451    232.81294 
   18450    133.90954   -257.54727    137112.15   -37100.792    2629.6589   -39730.451    66.438332    230.45874 
   18500    131.86069   -8.4190214    137070.63   -37140.527    2589.4244   -39729.951    66.545632    226.93266 
   18550    134.89159   -93.080543    137049.24   -37152.356    2648.9439     -39801.3    66.609596    232.14884 
   18600    134.86527   -242.22906    137086.76   -37154.687     2648.427   -39803.114     66.69116    232.10355 
   18650    131.68559     27.33398    137143.84   -37148.852    2585.9858   -39734.838    66.916554    226.63131 
   18700    135.33017    142.23339    137251.62   -37143.628    2657.5567   -39801.185    67.320654    232.90365 
   18750     134.0273   -252.13422    137333.95   -37140.719    2631.9715    -39772.69     67.44609    230.66141 
   18800     133.6281   -306.70566    137440.16   -37122.254    2624.1321   -39746.386    67.502267    229.97438 
   18850    134.11929    -305.6753    137487.97   -37152.009    2633.7778   -39785.787    67.465393    230.81971 
   18900    132.15265   -293.76657    137427.67   -37156.307    2595.1577   -39751.465    67.743129    227.43512 
   18950    130.69445   -265.57121    137466.82   -37145.966    2566.5222   -39712.488     67.49637    224.92555 
   19000    133.64837    -372.4784    137400.74   -37187.027      2624.53   -39811.557    67.531091    230.00926 
   19050    131.88825   -256.84462    137439.06   -37196.781    2589.9655   -39786.747    67.514941    226.98009 
   19100    132.29562   -279.26425     137417.9   -37203.908    2597.9654   -39801.874     67.94096    227.68118 
   19150    132.92901   -122.16193    137498.25   -37194.079    2610.4037   -39804.482    67.917797    228.77125 
   19200    134.02124   -303.83639    137527.66   -37180.479    2631.8525   -39812.331    68.012431    230.65098 
   19250    131.67017   -435.93808    137573.33   -37126.468    2585.6831   -39712.151     68.15558    226.60478 
   19300    131.67833   -145.06375    137551.86   -37151.784    2585.8433   -39737.628    68.399874    226.61882 
   19350    135.31505   -476.35646    137523.47   -37150.472    2657.2596   -39807.731    68.574823    232.87762 
   19400     133.7887   -246.78534    137434.91   -37176.279    2627.2858   -39803.565    68.766618    230.25077 
   19450    132.34829   -284.59155    137403.48    -37203.78    2598.9997    -39802.78    68.845322    227.77182 
   19500    133.53921   -357.82983    137333.86   -37249.622    2622.3865   -39872.008    68.887838     229.8214 
   19550    132.88226   -212.14035    137344.41   -37225.874    2609.4856    -39835.36    69.138805    228.69079 
   19600    132.19466   -141.90394    137365.69   -37237.993    2595.9828   -39833.976    69.351378    227.50743 
   19650     131.6762   -187.49881    137346.51   -37245.972    2585.8015   -39831.773    69.462384    226.61516 
   19700    131.81864   -451.18346    137260.11   -37257.438    2588.5986   -39846.037    69.683011    226.86029 
   19750    133.77156   -466.62399    137218.05   -37168.107    2626.9493   -39795.057    69.815292    230.22128 
   19800    133.91463   -241.44296     137068.1   -37182.656    2629.7588   -39812.415     69.98214     230.4675 
   19850    135.21676   -7.3688729    137096.83   -37178.837    2655.3296   -39834.166    70.213286    232.70847 
   19900    132.85069   -99.964762    137240.22   -37154.144    2608.8657    -39763.01    70.460336    228.63646 
   19950    132.53636   -277.23897    137261.68   -37151.987     2602.693    -39754.68    70.741487     228.0955 
   20000    135.87738   -154.05551    137287.95   -37154.008    2668.3025   -39822.311    70.984971     233.8454 
   20050    131.95924   -101.79479    137335.38   -37143.008    2591.3597   -39734.368    71.146681    227.10227 
   20100    136.19899   -5.9203951    137326.09   -37079.211     2674.618   -39753.829    71.143911    234.39888 
   20150    136.23936   -143.99554    137355.52   -37082.795    2675.4109   -39758.206    71.179913    234.46837 
   20200    132.50339   -102.59905     137303.7    -37076.82    2602.0456   -39678.866    71.205088    228.03876 
   20250    134.41635    -301.8532    137216.25   -37087.208    2639.6114   -39726.819    71.435121    231.33096 
   20300    135.97864   -226.17147     137113.2   -37087.353     2670.291   -39757.644    71.680144    234.01967 
   20350    134.16635   -205.00227    136995.72   -37108.655    2634.7019   -39743.357    71.794051     230.9007 
   20400    132.64256   -169.90446    136987.19   -37088.549    2604.7784   -39693.327    71.864241    228.27826 
   20450    133.26461   -288.42342    137009.56   -37063.684    2616.9941   -39680.678    71.970191    229.34882 
   20500    133.88723   -320.99782    136990.97   -37114.787    2629.2208   -39744.008    72.180438    230.42035 
   20550     134.0845   -111.70584     137042.4   -37092.744    2633.0947   -39725.839    72.232704    230.75985 
   20600     131.4864   -264.33602     137017.7   -37070.284    2582.0742   -39652.358    72.297192     226.2885 
   20650    133.85989   -275.92661    137006.45   -37054.903    2628.6839   -39683.587    72.483473     230.3733 
   20700      134.963   -275.93302    136980.25   -37036.052    2650.3462   -39686.398    72.613557    232.27174 
   20750    135.80372   -52.529017    136998.63   -36999.009     2666.856   -39665.865    72.792059    233.71863 
   20800    135.75371   -278.97667    137018.26   -37003.347    2665.8739   -39669.221     72.81842    233.63256 
   20850    137.90368    41.644707    137066.21   -36974.657    2708.0941   -39682.751     72.91106    237.33266 
   20900    135.12991   -224.55186    137034.96   -37032.076    2653.6239     -39685.7    72.906951    232.55899 
   20950    134.50399   -222.02682    136967.99   -37005.249    2641.3324   -39646.582    72.926475    231.48179 
   21000     136.1985   -255.97376    137000.48   -37045.282    2674.6085    -39719.89    72.973261    234.39805 
   21050    134.73314   -337.97685    137032.42   -37058.119    2645.8324   -39703.952    73.154323    231.87616 
   21100    134.00667   -199.16612    137029.06   -37090.498    2631.5662   -39722.064    73.316021     230.6259 
   21150    133.35554   -581.56685    136991.62   -36998.765    2618.7797   -39617.545    73.290367    229.50531 
   21200     133.5003    125.25557    137034.04    -37059.54    2621.6224   -39681.162     73.27643    229.75444 
   21250     135.0642   -97.508335    137072.45   -37068.319    2652.3337   -39720.653    73.545953    232.44592 
   21300    132.05261   -156.24885    137134.12   -37098.959    2593.1933   -39692.153    73.743941    227.26296 
   21350    133.49943    -95.72563    137136.95   -37119.524    2621.6053   -39741.129    73.924196    229.75294 
   21400    131.74396   -304.93446    137088.21   -37108.806    2587.1322   -39695.938    74.185162    226.73177 
   21450    134.37812   -296.47616    136972.03   -37101.664    2638.8605   -39740.524    74.571953    231.26516 
   21500     134.2986   -207.44132    136961.38   -37102.828    2637.2991   -39740.127    74.696439    231.12832 
   21550    135.81017   -4.7566791       136997   -37111.224    2666.9826   -39778.206    74.813317    233.72973 
   21600     132.3916   -153.47522    137033.76    -37131.31    2599.8503    -39731.16    74.756745    227.84637 
   21650    134.12189   -301.71742    136966.35   -37110.832     2633.829   -39744.661    74.946977     230.8242 
   21700    130.45093   -118.01987    136919.25    -37139.09    2561.7401    -39700.83    75.300116    224.50646 
   21750    135.37735   -118.32212    136911.19   -37092.534    2658.4832   -39751.017    75.353251    232.98485 
   21800    134.28986   -147.97214       136926   -37070.659    2637.1275   -39707.786    75.283689    231.11328 
   21850    132.09639   -206.82067    136879.62   -37113.354     2594.053   -39707.407    75.588726    227.33831 
   21900    130.60822   -347.11233    136886.19   -37123.963    2564.8289   -39688.792    75.488742    224.77715 
   21950    135.79327   -164.15072    136856.37   -37053.425    2666.6508   -39720.076    75.536146    233.70065 
   22000     133.5046   -156.90781    136836.71   -37027.575    2621.7068   -39649.282    75.897581    229.76184 
   22050    134.46827   -65.325317    136745.91   -37055.034     2640.631   -39695.665    75.801933    231.42032 
   22100    131.93271   -304.19257    136796.08    -37083.37    2590.8387   -39674.209    76.020458     227.0566 
   22150    134.64238   -336.65378    136864.75   -37043.525    2644.0501   -39687.575    76.189848    231.71996 
   22200    133.04044   -149.06435    136815.17   -37046.944    2612.5919   -39659.536    76.526322    228.96302 
   22250     138.0778   -273.21701    136861.53   -36988.805    2711.5133   -39700.318    76.836745    237.63232 
   22300    131.04905   -23.241527    136910.06   -37055.018    2573.4857   -39628.504    77.146526    225.53582 
   22350    132.17644   -134.25531     137004.1   -37122.803     2595.625   -39718.428    77.386669    227.47607 
   22400    131.88931   -203.08612    137070.88   -37093.154    2589.9864    -39683.14    77.403048    226.98191 
   22450     132.0892   -283.88506    136985.91   -37121.535    2593.9118   -39715.446     77.69193    227.32593 
   22500    132.61028   -63.540262    136991.12   -37129.229    2604.1446   -39733.373    77.784306    228.22271 
   22550    133.82172   -350.10197    137050.96   -37105.279    2627.9342   -39733.213    78.030442    230.30759 
   22600    133.64857    -288.6524    137055.31   -37096.622     2624.534   -39721.156    78.056039    230.00961 
   22650    134.52121   -331.20799    137005.44   -37094.708    2641.6706   -39736.378     78.08555    231.51143 
   22700    132.42773   -257.28236    137022.27   -37084.253    2600.5597   -39684.813    78.468653    227.90854 
   22750    130.21517   -186.44146    137041.23   -37111.891    2557.1104   -39669.001    78.821735    224.10072 
   22800    133.39971   -363.64728    137016.14    -37094.51     2619.647   -39714.157    78.896537    229.58132 
   22850    134.07818   -322.82753    136979.95   -37042.342    2632.9705   -39675.312    79.048835    230.74897 
   22900    133.43014   -243.66141     136984.4    -37068.65    2620.2447   -39688.895     79.19832     229.6337 
   22950    135.17958   -471.03608    136960.39    -36992.19    2654.5993   -39646.789     79.11752    232.64448 
   23000     135.4557   -295.41096    136962.55   -36992.379    2660.0218   -39652.401     79.35218    233.11969 
   23050     135.1573   -157.77038    136956.57   -37019.089    2654.1619   -39673.251    79.534959    232.60614 
   23100    134.61299   -365.00298    136891.67   -36986.553    2643.4728   -39630.026    79.775507    231.66937 
   23150    135.79894   -268.60495    136920.87   -36993.986     2666.762   -39660.748    79.981399    233.71039 
   23200    134.70878   -193.59579    136921.99   -37015.866    2645.3539    -39661.22    80.033263    231.83423 
   23250    137.10796   -285.33283    136983.26   -36985.266     2692.468   -39677.734     80.19926    235.96322 
   23300    133.79761   -144.09607    137050.83   -37015.981    2627.4608   -39643.442    80.253422    230.26611 
   23350    135.75443   -217.19726    137062.24   -36998.688    2665.8881   -39664.576    80.220011     233.6338 
   23400    135.50233    66.615286    137143.44   -37012.144    2660.9375   -39673.082    80.325904    233.19994 
   23450    133.36979   -109.96983    137264.67   -37067.855    2619.0596   -39686.915    80.491517    229.52983 
   23500    133.53364   -292.14096    137321.22   -37078.992     2622.277   -39701.269    80.425959    229.81181 
   23550    132.86574   -429.83818    137232.39   -37125.051    2609.1612   -39734.213    80.623284    228.66236 
   23600    133.23419   -281.81136    137175.93   -37147.925    2616.3966   -39764.322    80.892139    229.29646 
   23650    129.41648   -218.11969    137118.94   -37200.253    2541.4261   -39741.679    81.111443    222.72618 
   23700    133.43651   -104.34959    137133.05   -37183.012    2620.3698   -39803.382    81.118908    229.64466 
   23750    130.98207   -451.01432    137131.04   -37229.869    2572.1704   -39802.039     81.36608    225.42055 
   23800    131.56225   -288.26985    137127.07   -37226.251    2583.5637   -39809.815    81.282372    226.41904 
   23850    133.18869   -69.263826    137185.99   -37173.221    2615.5032   -39788.724    81.444314    229.21816 
   23900    134.23584     84.11645    137225.47   -37199.915    2636.0666   -39835.981    81.716193     231.0203 
   23950    131.62628   -188.84633    137262.58   -37178.539    2584.8212    -39763.36    82.028201    226.52924 
   24000    134.52912   -96.204397    137316.04   -37173.276    2641.8258   -39815.102    82.012254    231.52503 
   24050    136.27276    -279.1042    137353.94   -37135.338    2676.0668   -39811.405    82.145982    234.52585 
   24100    133.70076   -211.25186    137391.53   -37109.119    2625.5589   -39734.678    82.516266    230.09943 
   24150     132.0509   -540.18263    137326.15   -37144.372    2593.1596   -39737.532     82.68886    227.26001 
   24200    134.98741   -465.86575    137282.18   -37111.542    2650.8257   -39762.368    82.831164    232.31376 
   24250    133.09864   -358.68222    137270.01   -37132.522    2613.7347   -39746.257    83.210018    229.06317 
   24300    134.62036   -258.52902    137275.11   -37098.609    2643.6177   -39742.227    83.549049    231.68207 
   24350    132.99746   -301.70138    137307.16   -37138.678    2611.7478   -39750.426     83.80201    228.88904 
   24400    132.01011   -97.279475    137343.41   -37175.639    2592.3586   -39767.997    83.908909    227.18981 
   24450    128.24277   -96.831899    137383.95   -37220.666    2518.3772   -39739.043    84.110567    220.70621 
   24500    134.13107   -218.83059    137322.84   -37169.239    2634.0091   -39803.248    84.255437    230.83999 
   24550    132.30189   -251.66851    137297.56   -37089.964    2598.0884   -39688.053    84.342167    227.69196 
   24600    134.77053   -357.92538    137261.23   -37050.682    2646.5667   -39697.249    84.465726    231.94051 
   24650    136.73843   -210.50882    137235.77   -37050.286    2685.2113   -39735.498    84.690848    235.32726 
   24700    132.62429     -397.218    137212.84   -37048.202    2604.4196   -39652.621    84.639082    228.24682 
   24750    136.35077   -233.96036    137134.85   -37057.817    2677.5988   -39735.416     84.82663    234.66011 
   24800    135.66731   -182.50863    137112.21    -37087.44    2664.1773   -39751.618    84.985275    233.48387 
   24850    133.24367   -350.99865    136972.86   -37081.868    2616.5828   -39698.451    85.306905    229.31278 
   24900    133.16735   -95.612281     136958.8   -37093.087     2615.084   -39708.171    85.274563    229.18143 
   24950    133.28711   -216.61268    136893.38    -37091.26    2617.4358   -39708.695    85.520507    229.38753 
   25000    132.28533   -251.85145    136931.49   -37131.444    2597.7633   -39729.207    85.720995    227.66347 
   25050    133.38063   -525.73366    136861.98   -37156.112    2619.2724   -39775.384    85.796074    229.54848 
   25100    131.89035   -208.96882    136779.53   -37150.989    2590.0068   -39740.996    85.872916    226.98371 
   25150    133.06392    7.7145144    136843.17   -37158.629     2613.053   -39771.682    86.058102    229.00343 
   25200    131.73044   -207.90011     136855.8   -37169.284    2586.8666   -39756.151    86.265499     226.7085 
   25250    133.71595   -198.89733    136872.23   -37127.162    2625.8572   -39753.019    86.305792    230.12557 
   25300    132.97173    -312.9457    136847.85    -37122.26    2611.2426   -39733.503    86.543988    228.84477 
   25350    131.84902    27.772261    136830.07   -37123.388    2589.1953   -39712.583    86.846496    226.91258 
   25400    130.96898   -253.46768    136851.09   -37143.464    2571.9134   -39715.377    87.183996    225.39803 
   25450    133.62857   -158.31274    136858.92   -37083.913    2624.1413   -39708.055    87.502249    229.97519 
   25500     135.1087   -261.14998       136858   -37074.572    2653.2074    -39727.78    87.664678    232.52249 
   25550    133.24695   -220.35641    136866.76   -37065.332    2616.6472   -39681.979    87.832645    229.31842 
   25600    134.36603   -218.35156    136855.36   -37024.819    2638.6232   -39663.442    87.962229    231.24436 
   25650    138.70812    10.854835    136871.55   -36999.676    2723.8913   -39723.567    87.947314     238.7171 
   25700     134.4996   -186.56946    136922.84   -37015.279    2641.2462   -39656.526    88.050759    231.47424 
   25750      132.666   -71.845311    136952.57   -37013.536    2605.2387   -39618.774     88.18424     228.3186 
   25800    134.60265   -133.54597    136937.31   -37071.803    2643.2699   -39715.073    88.445593    231.65159 
   25850    135.77191   -297.70822    136938.18   -37083.738    2666.2313    -39749.97    88.623332    233.66389 
   25900    133.48415   -223.65611    136912.45   -37044.053    2621.3053   -39665.358    88.713223    229.72665 
   25950    137.23022   0.78917113    136973.44   -37005.481    2694.8689    -39700.35    88.902514    236.17363 
   26000    137.17248   -324.19248    137027.81    -36993.81     2693.735   -39687.545     88.91895    236.07426 
   26050    136.60146   -217.65037    136940.85   -36960.953    2682.5217   -39643.474    88.841886    235.09155 
   26100    136.19118   -368.06919    136944.27   -36970.179    2674.4647   -39644.643     88.88267    234.38544 
   26150    135.76495    67.636024    136946.97   -37021.556    2666.0947   -39687.651    88.999981    233.65191 
   26200    135.56298   -175.08293    136924.06   -37011.291    2662.1283    -39673.42    89.090351    233.30431 
   26250    134.37894   -167.46461    137018.84    -37050.81    2638.8768   -39689.687    89.458613    231.26658 
   26300    131.98621   -102.29022    137016.19   -37107.507    2591.8893   -39699.396    89.460295    227.14868 
   26350    136.39316   -277.34745    137063.53   -37068.924    2678.4311   -39747.355    89.503567    234.73305 
   26400    134.23497    51.455592    137043.31   -37096.551    2636.0496   -39732.601    89.558981    231.01881 
   26450    135.32463   -89.814123    137069.34   -37072.568    2657.4477   -39730.016    89.455892    232.89411 
   26500    132.71945   -255.91275       137071   -37074.001    2606.2883   -39680.289    89.806972    228.41058 
   26550    134.82192   -262.10194    137012.16    -37091.36    2647.5758   -39738.936    89.963795    232.02895 
   26600    135.26741    -77.18953    136985.07   -37074.636    2656.3241    -39730.96    90.257158    232.79563 
   26650    135.46882   -122.96597    137005.44   -37045.075    2660.2794   -39705.354    90.719253    233.14227 
   26700    135.86088    67.978848     136971.1   -37052.049    2667.9785   -39720.028    90.950236    233.81701 
   26750    133.16015    -101.1426    136990.11    -37047.17    2614.9427   -39662.113    91.049033    229.16904 
   26800    135.44669    10.257558    137028.55   -37051.852    2659.8448   -39711.697    91.078402    233.10418 
   26850    134.22958   -85.483109    137074.06   -37061.381    2635.9436   -39697.324    91.472175    231.00952 
   26900    136.61178    130.16994    137153.67   -37061.853    2682.7244   -39744.577    91.526102    235.10931 
   26950    134.31121   -183.49716    137132.78   -37042.188    2637.5466   -39679.735    91.909951    231.15001 
   27000    134.75431    -214.3741    137138.53   -37046.894    2646.2482   -39693.142    92.170023     231.9126 
   27050    134.98094   -263.62609    137216.49   -37088.209    2650.6985   -39738.907    92.270281    232.30262 
   27100    134.80909    -200.8129    137171.58   -37041.057    2647.3238    -39688.38    92.393355    232.00686 
   27150    135.14221   -174.69136    137233.69   -36988.056    2653.8654   -39641.922    92.493316    232.58016 
   27200    135.15391   -210.88178    137249.17    -37033.92    2654.0952   -39688.015    92.472979     232.6003 
   27250    132.10585   -209.96108    137266.96   -37101.499    2594.2388   -39695.738     92.63044    227.35459 
   27300    132.26754   -76.506798    137272.56   -37099.792    2597.4139   -39697.205    92.776831    227.63284 
   27350     132.6699   -325.56564    137211.36   -37057.228    2605.3154   -39662.543    92.939072    228.32532 
   27400    131.63132   -290.58222    137219.05   -37094.426      2584.92   -39679.346      93.3155    226.53791 
   27450    133.84667   -369.76974    137117.58   -37090.911    2628.4243   -39719.336    93.446649    230.35054 
   27500    135.31581    -218.0688    137124.86   -37048.156    2657.2745    -39705.43    93.458244    232.87893 
   27550    134.64999   -132.93897    137103.82    -37083.54    2644.1996    -39727.74    93.670251    231.73306 
   27600    131.10898   -294.27295    137114.52   -37115.563    2574.6627   -39690.226    94.077011    225.63897 
   27650     134.6334    -320.4921    137077.86    -37099.53    2643.8737   -39743.404    94.261502     231.7045 
   27700    131.05112   -230.54896    137057.49   -37131.181    2573.5264   -39704.707    94.616011    225.53939 
   27750    133.62826   -572.21843    137051.28   -37110.902    2624.1353   -39735.037    94.647526    229.97466 
   27800    133.25697   -373.76238    137049.47   -37065.719     2616.844   -39682.563    94.941985    229.33566 
   27850    133.51037    -343.8279    137002.13   -37075.038    2621.8202   -39696.859    95.315443    229.77177 
   27900    134.06325   -359.15233    136956.47   -37055.864    2632.6773   -39688.541    95.602456    230.72327 
   27950    131.67533   -262.60621    137027.81   -37096.774    2585.7843   -39682.558    95.610314    226.61365 
   28000    136.64904   -361.65481     137132.3   -37068.075    2683.4559   -39751.531    95.760933    235.17342 
   28050    134.67254    -367.9958    137174.84   -37038.227    2644.6423    -39682.87    95.514878    231.77186 
   28100    131.87097    -354.7481    137115.71   -37039.143    2589.6263    -39628.77    95.682881    226.95035 
   28150    136.13265   -378.95735     137153.7   -37015.073    2673.3154   -39688.388    95.760598    234.28472 
   28200    134.46023   -542.08799    137124.21   -37012.384    2640.4731   -39652.857    95.853188    231.40648 
   28250    133.77227   -325.97942    137025.81   -37046.405    2626.9632   -39673.368    96.046264     230.2225 
   28300    136.19131   -410.07251    137047.86   -37029.534    2674.4673   -39704.001     96.48587    234.38567 
   28350    131.56752   -247.89196    137024.26   -37005.415    2583.6673   -39589.082    96.911676    226.42812 
   28400    134.64349    62.884054    136977.62   -37040.523    2644.0718   -39684.595    96.843472    231.72187 
   28450    132.04569   -280.00259    137108.13   -37075.214    2593.0574   -39668.272    97.147739    227.25105 
   28500    131.22159    5.7268411    137139.49   -37072.201    2576.8741   -39649.075    97.396735    225.83278 
   28550    132.66546   -526.64126    137105.56   -37082.584     2605.228   -39687.812    97.424238    228.31766 
   28600    135.38295   -188.91024     137142.2   -37038.828    2658.5931   -39697.421    97.449087    232.99449 
   28650    133.90064   -118.80853    137108.12    -37024.24    2629.4841   -39653.724      97.6102    230.44342 
   28700    135.53119   -49.799987    137149.56   -37037.846    2661.5042    -39699.35    97.597998    233.24961 
   28750    130.46191   -539.75576    137173.88   -37044.849    2561.9557   -39606.805    97.686736    224.52535 
   28800    134.29126   -400.65852    137136.13   -37040.417     2637.155   -39677.572    97.984698    231.11569 
   28850    135.26706   -311.58402    137062.98   -37013.768    2656.3173   -39670.085    98.077802    232.79504 
   28900    133.80078   -289.89742    137092.51     -37014.9    2627.5231   -39642.423    98.204732    230.27157 
   28950    136.28806   -180.79891    137123.58   -37012.024    2676.3672   -39688.391     98.51383    234.55218 
   29000    134.74874   -360.60774    137094.09   -37042.844    2646.1388   -39688.982    99.003527    231.90301 
   29050    129.40829     56.58696     137063.2   -37095.601    2541.2653   -39636.866    99.320339    222.71208 
   29100    133.25594   -268.90363    137113.79   -37092.764    2616.8237   -39709.588     99.65819    229.33389 
   29150    132.47467   -388.40718    137174.29    -37150.28    2601.4816   -39751.762    99.909567    227.98933 
   29200    132.58472    107.31728    137266.31   -37157.901    2603.6426   -39761.543    100.12252    228.17872 
   29250    131.50581   -188.76742    137314.31     -37170.2    2582.4554   -39752.655    100.22985    226.32191 
   29300    132.82638    157.59181    137404.68   -37087.381    2608.3883    -39695.77    100.30396    228.59462 
   29350    133.76337   -322.44707    137495.62   -37092.361    2626.7885    -39719.15    100.56285    230.20719 
   29400    132.87947   -55.798076    137524.56   -37060.056    2609.4308   -39669.486    100.71539    228.68599 
   29450    136.12466   -516.95502    137544.17    -37083.04    2673.1585   -39756.198    100.85918    234.27097 
   29500    133.99721     -249.756    137596.47    -37113.15    2631.3806    -39744.53    100.90164    230.60963 
   29550    135.06079   -311.00581    137654.95   -37068.006    2652.2666   -39720.272    100.98544    232.44004 
   29600    132.88849   -601.10429     137550.7   -37107.964    2609.6078   -39717.572     101.0594     228.7015 
   29650    134.80613   -577.40904    137565.92   -37099.255    2647.2657   -39746.521    101.35995    232.00178 
   29700    132.82641   -365.76494    137554.54   -37111.449    2608.3889   -39719.838    101.52123    228.59468 
   29750    132.65192   -240.02824    137615.33   -37133.035    2604.9623   -39737.998    101.40287    228.29437 
   29800    131.75661   -8.2646177    137620.41   -37122.974    2587.3805   -39710.354    101.74779    226.75354 
   29850     131.7233   -386.60608    137622.96   -37192.847    2586.7263   -39779.573    101.70041    226.69621 
   29900    132.74764   -255.75782    137713.86   -37168.562     2606.842   -39775.404    102.04285    228.45911 
   29950    136.49965    -256.8476    137764.56   -37164.195    2680.5222   -39844.717    101.92899    234.91632 
   30000    132.26668   -256.81883    137783.82   -37191.088     2597.397   -39788.485    101.97018    227.63136 
   30050    133.00083    -123.2522    137815.26    -37155.14     2611.814   -39766.954    102.17325    228.89485 
   30100    132.43295   -213.39772    137740.44   -37183.853    2600.6621   -39784.515    102.30015    227.91752 
   30150    132.26488   -115.30937    137720.52   -37258.416    2597.3618   -39855.778    102.46298    227.62828 
   30200    131.71562   -192.95794    137758.45   -37187.347    2586.5755   -39773.922    102.79768    226.68299 
   30250    130.75228    -248.3716    137804.68   -37201.547    2567.6579   -39769.205     103.0344    225.02508 
   30300    131.96979   -1.0357329    137854.68   -37254.304    2591.5668   -39845.871    103.08844    227.12041 
   30350    131.75586   -115.38176    137866.91   -37254.097    2587.3657   -39841.463    103.18983    226.75224 
   30400    128.32273   -54.903268    137836.99   -37259.703    2519.9474   -39779.651     103.5421    220.84382 
   30450    131.86803    31.050977    137823.39   -37181.749    2589.5685   -39771.318    103.63211    226.94529 
   30500    132.74414   -271.04845    137816.93   -37164.274    2606.7733   -39771.047    103.81229    228.45309 
   30550    134.76379   -431.08104    137772.19   -37108.579    2646.4343   -39755.014    104.12566    231.92891 
   30600    133.79754   -154.49294    137753.42   -37061.408    2627.4594   -39688.867     104.3246    230.26598 
   30650    134.76555   -583.18889    137730.32   -37088.475    2646.4688   -39734.943    104.41286    231.93193 
   30700    131.92576    -580.7081    137669.43   -37159.495    2590.7022   -39750.197    104.70829    227.04464 
   30750    132.65361   -470.33222    137533.71   -37156.863    2604.9954   -39761.859    104.76614    228.29728 
   30800    133.85539   -653.03288    137529.52   -37099.976    2628.5954   -39728.571    104.98069    230.36554 
   30850    133.31265   -469.63689    137490.72   -37090.345    2617.9375   -39708.282     105.3451     229.4315 
   30900    131.16532   -473.77768    137430.19   -37114.519     2575.769   -39690.288    105.57799    225.73592 
   30950    132.73944   -337.66784    137490.62   -37065.829    2606.6808    -39672.51    105.59727    228.44498 
   31000    133.98793   -122.12629    137457.13   -37120.179    2631.1982   -39751.377    105.63104    230.59364 
   31050    133.98075   -297.90454    137491.42   -37070.197    2631.0573   -39701.254    105.92789     230.5813 
   31100    135.74614   -397.83206    137478.08   -37017.187    2665.7251   -39682.912    105.97158    233.61952 
   31150    135.66905   -479.88377    137370.09   -36998.872    2664.2114   -39663.083    106.00252    233.48687 
   31200    134.33244    11.614867    137338.36   -37068.412    2637.9635   -39706.376    106.21574    231.18655 
   31250    135.71947   -114.24412     137382.7   -37011.626    2665.2014   -39676.827     106.4132    233.57363 
   31300    132.46788   -169.35284     137369.2   -37063.379    2601.3482   -39664.727    106.41272    227.97764 
   31350    131.94349   -105.79319    137365.07   -37058.074    2591.0505   -39649.125    106.73528    227.07517 
   31400    136.54579   -213.52265    137402.61   -37058.076    2681.4285   -39739.505    106.90934    234.99574 
   31450    132.82776   -246.42921    137328.49   -37101.627    2608.4154   -39710.042    106.76811      228.597 
   31500    132.69566   -221.46517    137290.16   -37038.412    2605.8211   -39644.233    106.93209    228.36964 
   31550    133.75394   -42.391233    137347.57   -37039.722    2626.6033   -39666.325    107.14869    230.19096 
   31600    134.05387    109.13604    137424.73   -36968.862    2632.4931   -39601.356    107.13173    230.70713 
   31650    135.57986   -174.02323    137502.76   -36932.032    2662.4599   -39594.492    107.34688    233.33336 
   31700    133.73929   -71.565048    137519.77   -37002.402    2626.3155   -39628.718     107.7887    230.16573 
   31750    133.61979   -326.68329    137452.16   -36984.055    2623.9689   -39608.024     108.1526    229.96008 
   31800    136.96917   -178.04806    137409.01   -36963.126    2689.7426   -39652.869    108.01334    235.72437 
   31850    137.25198    23.426827    137403.79   -36939.932    2695.2962   -39635.228    108.09915    236.21108 
   31900     138.8802   -209.50142    137426.84    -36944.24    2727.2706   -39671.511    108.30962    239.01327 
   31950    138.56209    -404.6069     137421.7   -36974.071    2721.0237   -39695.094    108.50892    238.46579 
   32000    136.83754   -221.17485    137374.66   -36975.827    2687.1576   -39662.984    108.70722    235.49783 
   32050    135.02431    70.835178    137449.19   -37009.975    2651.5503   -39661.526    108.71495    232.37726 
   32100    132.13363   -124.93809    137461.59   -37051.952    2594.7842   -39646.736    108.99674    227.40239 
   32150     133.4062   -385.59233    137366.54   -37062.027    2619.7745   -39681.801     109.2211    229.59249 
   32200     135.6421    -150.5791    137251.71   -37029.536    2663.6822   -39693.218    109.36168    233.44049 
   32250    132.57526   -281.00813    137277.99   -37041.671    2603.4568   -39645.128    109.56101    228.16244 
   32300    135.32516   -261.48726    137335.16   -37018.384    2657.4582   -39675.842    109.89149    232.89503 
   32350    136.49687   -389.57351     137260.2    -37019.68    2680.4678   -39700.148    109.96855    234.91155 
   32400     132.9748   -147.22477    137237.34   -36984.847    2611.3028    -39596.15    109.59556    228.85004 
   32450    132.40017   -315.55227    137236.42   -37083.563    2600.0184   -39683.581    109.74742     227.8611 
   32500    133.04439   -342.43074    137208.35   -37090.563    2612.6695   -39703.233    110.02268    228.96982 
   32550    129.54052   -437.03148    137003.16   -37124.828    2543.8619    -39668.69    110.25185    222.93964 
   32600    130.59893   -209.38721    137027.15    -37079.01    2564.6466   -39643.657    110.44313    224.76117 
   32650    133.97752   -305.90828    137098.98    -37022.18    2630.9937   -39653.173    110.50476    230.57572 
   32700     135.6868   -269.83208    137140.07   -37011.943    2664.5598   -39676.503    111.07931     233.5174 
   32750    132.05436   -225.46641    137169.38   -37026.517    2593.2277   -39619.745    111.35719    227.26597 
   32800    136.24206    -247.2142     137169.6   -37042.208     2675.464   -39717.672    111.27064    234.47302 
   32850    132.55869   -176.51143    137286.48    -37028.93    2603.1315   -39632.062     111.5054    228.13393 
   32900    132.96009   -381.72439    137273.22   -37070.014    2611.0139   -39681.028    111.64188    228.82473 
   32950    133.91935   -152.66196    137238.48   -37064.662    2629.8516   -39694.513    111.75936    230.47563 
   33000    133.75503   -262.75358     137317.6   -37049.672    2626.6247   -39676.297    112.02249    230.19283 
   33050    135.14766   -270.92724    137295.96   -37048.135    2653.9726   -39702.108    111.89548    232.58955 
   33100    133.87007   -221.71236    137301.37   -37121.988    2628.8838   -39750.872    111.99021    230.39081 
   33150    132.24909   -25.522756    137313.76   -37100.332    2597.0517   -39697.384    112.16851     227.6011 
   33200    132.76751   -68.586441    137294.28   -37144.928    2607.2322   -39752.161    112.37152     228.4933 
   33250    131.92919   -111.56297    137390.43   -37176.741    2590.7696   -39767.511    112.52775    227.05055 
   33300    129.65649   -280.99232    137474.71   -37229.701    2546.1393    -39775.84    112.67359    223.13923 
   33350     131.1947   -234.78711    137455.02   -37172.774    2576.3459    -39749.12    112.74319    225.78648 
   33400    133.00902   -404.53204    137395.49   -37123.111    2611.9747   -39735.086     113.0208    228.90893 
   33450    133.02191   -335.26571    137310.72   -37127.591    2612.2279   -39739.819    113.19088    228.93112 
   33500    134.04122   -143.40291    137258.02   -37084.954    2632.2447   -39717.199    113.44157    230.68536 
   33550    132.92347   -152.27581    137300.09   -37097.958    2610.2949   -39708.253     113.4663    228.76171 
   33600    133.48323   -147.47462    137309.28   -37084.741    2621.2872   -39706.028     113.8251    229.72506 
   33650    131.64589    189.53917    137251.79   -37148.457    2585.2062   -39733.663    114.07611    226.56299 
   33700     132.4658   -167.23975    137314.32   -37098.717    2601.3073   -39700.024    114.19294    227.97405 
   33750    133.37944   -142.04921    137302.97   -37142.988    2619.2489   -39762.237    114.06837    229.54643 
   33800    132.68629   -83.614413    137305.68   -37141.379    2605.6371   -39747.016    113.90295    228.35352 
   33850    133.66743   -276.40813    137296.83   -37174.712    2624.9043   -39799.616     114.0357    230.04206 
   33900    133.29366   -38.931999    137325.31   -37165.463    2617.5644   -39783.027    114.22397     229.3988 
   33950    135.14638   -307.77621    137388.42   -37157.616    2653.9475   -39811.563    114.45757    232.58735 
[...]
   92000    133.63901   -163.94471    137584.68   -37211.984    2624.3463    -39836.33    274.69951    229.99316 
   92050     133.5581    149.05331    137647.34   -37234.589    2622.7574   -39857.347    275.02665    229.85391 
   92100    132.35008   -34.125952    137709.32   -37287.636    2599.0348   -39886.671    275.18397     227.7749 
   92150    130.48682   -264.52954    137687.41   -37264.816     2562.445   -39827.261    275.08961    224.56823 
   92200    134.85871   -345.85536    137781.98    -37248.16    2648.2983   -39896.458    274.81064    232.09227 
   92250    132.92116   -521.55813    137738.28   -37236.421    2610.2495    -39846.67    275.13744    228.75774 
   92300    133.61325   -229.32051    137761.89   -37237.031    2623.8404   -39860.872    275.37779    229.94882 
   92350    129.67658   -161.00438    137736.71   -37249.023    2546.5337   -39795.557    275.51004    223.17379 
   92400    131.96176   -223.59641    137766.61   -37224.972    2591.4091   -39816.381    275.55124     227.1066 
   92450     134.4797   -355.47169     137772.9   -37134.029    2640.8555   -39774.884    275.56945    231.43999 
   92500    134.61381   -214.37355    137725.33   -37159.643     2643.489   -39803.132    275.49588    231.67079 
   92550    137.20045   -176.89026    137804.67   -37145.393    2694.2844   -39839.678    275.35572    236.12241 
   92600    133.60469   -14.391814    137897.12   -37200.454    2623.6724   -39824.127    275.65622     229.9341 
   92650    132.37368    113.09407    137943.39   -37182.521    2599.4984    -39782.02     275.3905    227.81553 
   92700    133.42759    -108.6772    138035.73   -37140.025    2620.1946    -39760.22    275.92026    229.62931 
   92750    133.04889   -97.069792    138104.49   -37156.541    2612.7578   -39769.299    276.10988    228.97756 
   92800    135.02948   -89.396326    138103.61   -37158.871    2651.6518   -39810.523    275.89886    232.38616 
   92850    133.39007   -189.40496    138166.61    -37159.03    2619.4577   -39778.488     276.3584    229.56472 
   92900    132.66182   -348.94737    138168.21   -37188.063    2605.1567    -39793.22    275.87087    228.31142 
   92950    133.40464   -210.54187    138166.81   -37180.239    2619.7438   -39799.983     276.2345     229.5898 
   93000     134.9202    -312.9097     138178.7   -37128.607    2649.5058   -39778.113    276.40378    232.19809 
   93050     132.8893   -232.01648    138195.27   -37111.376    2609.6237       -39721    276.91551    228.70289 
   93100    137.77638   -144.42664    138165.08   -37094.295    2705.5941    -39799.89    276.71849    237.11358 
   93150    135.07303   -292.68127    138158.48   -37043.602    2652.5069   -39696.109    276.55724     232.4611 
   93200    136.63394    -88.21714    138148.18   -37068.498    2683.1594   -39751.657    277.02908    235.14744 
   93250    132.92443   -240.43657    138140.46    -37144.22    2610.3137   -39754.534    277.11822    228.76336 
   93300    132.88681   -202.04982    138038.87   -37183.183    2609.5748   -39792.758    277.26661    228.69861 
   93350    134.18639   -373.95371    137949.65   -37166.689    2635.0955   -39801.785     277.6089     230.9352 
   93400    135.32673   -201.97195    137896.54   -37123.356     2657.489   -39780.845    278.01818    232.89773 
   93450    133.32891   -150.49371    137892.34   -37139.138    2618.2566   -39757.395    278.14905    229.45947 
   93500    136.15049   -367.09878    137937.39   -37156.698    2673.6658   -39830.363     277.8535    234.31543 
   93550    134.03232   -351.55462    137912.83   -37220.301    2632.0699   -39852.371    277.79424    230.67004 
   93600    133.85479   -511.75418    137831.26   -37234.408    2628.5837   -39862.991    277.57708    230.36451 
   93650    132.56047   -267.52125    137776.98    -37250.11    2603.1663   -39853.276    277.75663    228.13698 
   93700    131.90629    -60.13329    137906.88   -37220.006    2590.3198   -39810.326     277.9158    227.01113 
   93750    135.03536   -241.92668       137987   -37211.491    2651.7673   -39863.258    277.92763    232.39628 
   93800    135.79047   -240.82381    138090.65    -37205.27    2666.5957   -39871.866    278.55522    233.69582 
   93850    134.34724   -500.20752    138118.96   -37188.063    2638.2542   -39826.317    279.08192    231.21202 
   93900    133.96526    -230.3143    138164.27   -37246.353    2630.7531   -39877.106    279.16145    230.55464 
   93950    132.94363   -203.95452    138182.93   -37209.566    2610.6907   -39820.256    279.19509     228.7964 
   94000    135.62949   -364.41827    138195.65   -37155.439    2663.4345   -39818.873    279.10889    233.41878 
   94050    134.50161   -321.63042    138196.64   -37173.144    2641.2856   -39814.429    279.30266    231.47769 
   94100    134.57555   -300.96913    138202.57   -37149.232    2642.7377   -39791.969    279.50979    231.60495 
   94150    134.15129   -396.70627    138101.57   -37199.111    2634.4062   -39833.518    279.57397    230.87479 
   94200    134.27459   -279.29198    138075.48   -37241.293    2636.8276   -39878.121    279.37133      231.087 
   94250    133.16078   -397.46181    138047.91   -37274.952    2614.9551   -39889.907    279.40296    229.17012 
   94300    135.49169   -372.69871    137973.46   -37237.779    2660.7284   -39898.508     279.3356    233.18162 
   94350    132.12799   -26.614279    138011.36   -37223.211    2594.6735   -39817.885    279.37507    227.39268 
   94400    133.27499   -246.40714    137986.62   -37217.017    2617.1978   -39834.215     279.2503    229.36667 
   94450    134.42451   -506.79314    137935.48   -37177.182    2639.7716   -39816.953    279.56002      231.345 
   94500    133.59984   -329.42454    137930.12   -37204.363    2623.5771    -39827.94    279.82773    229.92574 
   94550    133.80618   -259.20419    137944.13   -37177.296    2627.6291   -39804.925    279.51553    230.28085 
   94600    135.36593   -321.75041    137985.32   -37196.587    2658.2588   -39854.846     279.6389    232.96519 
   94650    132.50776   -397.19611     138001.2   -37192.219    2602.1313    -39794.35    279.93315    228.04627 
   94700    130.52829   -258.01395    138038.45    -37220.65    2563.2592   -39783.909    280.06712    224.63959 
   94750    130.14262   -532.95389    138028.91   -37268.456    2555.6858   -39824.142     280.0444    223.97586 
   94800    132.44793   -165.52208       138053   -37248.836    2600.9563   -39849.792    279.94558     227.9433 
   94850    131.95586   -510.73796     138035.7   -37269.607    2591.2934   -39860.901    280.11504    227.09645 
   94900    133.00647    -287.6571    137951.52   -37268.698    2611.9247   -39880.622    280.13071    228.90455 
   94950    131.37611   -181.84094    137938.71   -37248.361    2579.9083    -39828.27    280.19502    226.09869 
   95000    133.17251   -476.69772     137914.8   -37233.766    2615.1853   -39848.951    280.29231    229.19031 
   95050    133.43986   -202.96911    137877.72   -37227.417    2620.4356   -39847.852    280.53763    229.65042 
   95100    132.51233    -267.8591    137826.97   -37234.404     2602.221   -39836.625    280.92323    228.05414 
   95150    131.72838   -164.30793    137843.22   -37248.422    2586.8261   -39835.248    280.91442    226.70495 
   95200    134.51498   -154.56503    137884.23   -37237.768    2641.5482   -39879.316    280.75252     231.5007 
   95250    133.21264   -160.78969    137917.88   -37232.147    2615.9735    -39848.12    281.45195    229.25937 
   95300     135.9116   -128.96936    137879.58    -37274.39    2668.9744   -39943.364    281.33113    233.90429 
   95350    133.96586   -6.7007435    137803.28   -37251.764    2630.7649   -39882.529    281.18332    230.55567 
   95400    133.10214   -124.00965    137737.01   -37289.943    2613.8035   -39903.746    281.23098     229.0692 
   95450    132.81794   -345.50374     137670.1   -37240.772    2608.2225   -39848.995    281.24088     228.5801 
   95500    131.77835    -6.101926    137632.87   -37219.287    2587.8075   -39807.095    281.36967    226.79096 
   95550    133.18761   -300.07217    137669.75   -37224.398     2615.482   -39839.879    281.56357     229.2163 
   95600    134.94171   -334.49288    137658.61   -37194.866    2649.9282   -39844.795    281.89374    232.23511 
   95650    134.60718   -68.263323    137548.61   -37169.719    2643.3588   -39813.078    281.80012    231.65938 
   95700     134.6176   -284.27154    137608.31   -37193.073    2643.5635   -39836.637    281.84391    231.67732 
   95750    136.32062   -492.29199    137556.46   -37150.099    2677.0066   -39827.105    281.59254    234.60821 
   95800    134.45201   -213.59538    137565.42   -37196.418    2640.3117    -39836.73    281.50906    231.39233 
   95850    132.21352    -416.0781     137540.3    -37191.74    2596.3532   -39788.093    282.13076    227.53988 
   95900     134.9838   -351.61914    137533.63   -37219.848    2650.7547   -39870.602    282.24604    232.30754 
   95950     131.6724   -421.57877    137522.15   -37237.489    2585.7268   -39823.216    282.50941    226.60861 
   96000     133.4693   -571.23298    137504.53   -37281.309    2621.0137   -39902.322    282.80723    229.70109 
   96050    131.11998   -206.96373    137506.63   -37251.392    2574.8787    -39826.27    282.42885     225.6579 
   96100    134.74693   -182.78679    137555.12    -37323.17    2646.1032   -39969.273    282.39551    231.89989 
   96150    130.87333   -4.6579014    137668.85     -37365.7    2570.0351   -39935.735    283.01115    225.23341 
   96200    131.06823    -254.8944    137737.22   -37354.808    2573.8624    -39928.67    283.36176    225.56884 
   96250    133.56553   -324.20592    137652.18   -37269.566    2622.9034   -39892.469    283.65406     229.8667 
   96300     130.5027   -153.25592    137721.53   -37277.264    2562.7568   -39840.021    283.99756    224.59556 
   96350    132.76428   -98.398421    137749.89   -37263.649    2607.1687   -39870.818    284.29625    228.48774 
   96400    132.19924   -272.00482    137752.63   -37246.155    2596.0728   -39842.228    284.80914    227.51531 
   96450    133.23897   -304.46841    137780.91   -37247.224    2616.4905   -39863.715    284.88252    229.30469 
   96500    134.07202    -20.22458    137680.01   -37207.883    2632.8495   -39840.733    285.41766    230.73836 
   96550    132.67807   -63.036117    137688.19   -37226.453    2605.4758   -39831.928     285.7666    228.33938 
   96600    131.94382   -218.66234    137670.99   -37245.352    2591.0569   -39836.408    285.42069    227.07573 
   96650    131.46795   -96.728858    137730.29   -37267.023    2581.7119   -39848.735    285.09249    226.25675 
   96700    129.76195     -285.004     137720.1   -37275.113    2548.2102   -39823.324    284.93932    223.32072 
   96750    130.15128   -198.79347    137697.65   -37272.691    2555.8558   -39828.547    284.97625    223.99076 
   96800    131.10196   -368.89726    137609.65   -37221.487    2574.5248   -39796.012    285.16764    225.62689 
   96850    131.51036   -96.697694    137504.28   -37253.879    2582.5447   -39836.424    285.44826    226.32974 
   96900    133.19122   -103.21836    137540.98   -37169.586    2615.5528   -39785.139    285.97307    229.22251 
   96950    133.30896    30.658022    137554.05   -37176.635    2617.8649     -39794.5    286.29345    229.42514 
   97000    135.28883   -208.18689    137596.79   -37160.452    2656.7449   -39817.197    286.25793    232.83251 
   97050    132.14749    -360.7563    137578.97   -37141.398    2595.0564   -39736.454    286.18655    227.42624 
   97100    131.39636   -307.16875    137618.41    -37197.18     2580.306   -39777.486    286.10374    226.13354 
   97150    130.60848   -232.67033    137708.17   -37188.334     2564.834   -39753.168    286.35853     224.7776 
   97200    131.38779   -21.091492    137790.97   -37152.907    2580.1377   -39733.044    286.42603    226.11879 
   97250    134.96683   -115.22662    137894.18   -37135.463    2650.4216   -39785.884    286.39128    232.27835 
   97300    131.92031   -454.42909    137889.94   -37124.394    2590.5953   -39714.989    286.60012    227.03527 
   97350    132.25968   -434.32965    137823.26   -37147.022    2597.2596   -39744.281    286.82563    227.61933 
   97400      133.718   -55.881523    137785.73   -37126.335    2625.8975   -39752.233    286.70976     230.1291 
   97450    136.18165   -322.48901    137774.88   -37088.976    2674.2776   -39763.253    287.12438    234.36904 
   97500     134.9818   -184.98313    137752.71   -37073.149    2650.7154   -39723.865    287.24233     232.3041 
   97550    136.53209   -300.31565    137776.22   -37069.759    2681.1594   -39750.919    287.37341    234.97216 
   97600    131.98749   -520.27459    137688.15   -37142.564    2591.9145   -39734.479    287.47041    227.15089 
   97650    132.69194   -323.60015    137624.26   -37092.187     2605.748   -39697.935    287.72187    228.36324 
   97700    135.03924   -195.49636    137636.64   -37078.742    2651.8435   -39730.586    287.79507    232.40296 
   97750     133.8655   -193.54031    137665.23   -37047.029     2628.794   -39675.823    287.75189    230.38294 
   97800    135.59039    -183.6689    137704.59   -37017.584    2662.6666   -39680.251    287.94475    233.35148 
   97850    133.91491   -275.79109    137643.35   -37090.087    2629.7642   -39719.851    288.25977    230.46797 
   97900    134.76849   -53.807557    137654.43   -37046.995    2646.5266   -39693.522    288.07084      231.937 
   97950    137.68451   -271.91995    137664.26   -37024.771      2703.79   -39728.561    288.30782    236.95547 
   98000    134.13225    -116.4496    137666.14   -36975.767    2634.0324   -39609.799    288.53889    230.84203 
   98050    135.23854    -289.8255    137666.57   -37020.443    2655.7572   -39676.201    288.86886    232.74595 
   98100    136.95474   -220.49684     137665.5   -37006.244    2689.4592   -39695.703     289.0524    235.69954 
   98150    133.58436   -55.046637    137618.73   -36998.647     2623.273    -39621.92    289.16353     229.8991 
   98200     132.1399   -233.62034    137483.55   -37062.381    2594.9073   -39657.289    289.02091    227.41318 
   98250    134.77702   -253.22732    137425.37   -37043.201     2646.694   -39689.896    289.36071    231.95167 
   98300    133.11091   -85.311913    137417.52   -37075.678    2613.9758   -39689.654    289.98989     229.0843 
   98350     133.7672   -232.09454     137353.5   -37118.207    2626.8637   -39745.071    289.72055    230.21377 
   98400    131.48775   -176.09653     137251.7   -37126.783    2582.1008   -39708.884    289.72659    226.29083 
   98450    132.64354   -155.43263    137214.75   -37131.186    2604.7976   -39735.984     289.9051    228.27994 
   98500    133.37327    9.7660882    137322.68   -37137.643    2619.1278   -39756.771    290.29123    229.53582 
   98550    134.02943   -285.29101    137321.04   -37074.159    2632.0132   -39706.173     290.3858    230.66507 
   98600    136.47479   -140.43778    137265.11   -37083.109    2680.0341   -39763.143    290.15057    234.87353 
   98650    132.13057    7.7576291    137355.23   -37087.778    2594.7241   -39682.503    290.35892    227.39712 
   98700     133.4332    -135.4851    137403.52   -37103.006    2620.3046    -39723.31     290.5444    229.63895 
   98750    133.23577    -94.43585    137410.38   -37109.271    2616.4276   -39725.698    290.25479    229.29917 
   98800    132.76366   -269.10171    137340.79   -37118.682    2607.1565   -39725.838    290.33672    228.48667 
   98850    135.60299   -95.290948    137362.85   -37096.709    2662.9142   -39759.623    290.82198    233.37318 
   98900    135.07638    28.567089    137370.25   -37084.288    2652.5727   -39736.861    291.27776    232.46686 
   98950    134.46804   -107.16107    137426.88   -37081.335    2640.6264   -39721.962    291.67022    231.41992 
   99000    133.76973   -212.35548    137415.43   -37083.649    2626.9133   -39710.562    292.28221    230.21812 
   99050    134.38351   -124.87699     137389.1   -37092.435    2638.9666   -39731.402    292.44242    231.27445 
   99100    132.06113   -23.161691    137400.09   -37104.655    2593.3605   -39698.015    292.65875    227.27762 
   99150    132.09116   -127.40092    137470.41   -37104.498    2593.9502   -39698.448    292.91773     227.3293 
   99200    132.88937   -198.41438    137504.47   -37101.425    2609.6252    -39711.05    293.07765    228.70302 
   99250    131.38647   -324.49796    137477.54   -37142.348    2580.1118    -39722.46    292.95452    226.11652 
   99300    132.83222     2.722686    137448.74   -37133.366     2608.503   -39741.869    293.57132    228.60467 
   99350    132.15668   -401.64456    137557.64   -37114.937     2595.237   -39710.174     293.2422    227.44206 
   99400    131.42408   -95.764672     137511.8   -37139.505    2580.8505   -39720.356    293.85389    226.18126 
   99450    134.11949     58.38775    137559.12   -37147.949    2633.7818    -39781.73    294.14444    230.82007 
   99500    131.69228     170.9558    137639.44   -37158.769    2586.1172   -39744.886    294.56556    226.64282 
   99550     129.5907   -40.973971    137665.76   -37198.269    2544.8472   -39743.116    294.56595    223.02599 
   99600     130.8027   -44.280384    137735.69   -37214.529     2568.648   -39783.177    294.80707    225.11185 
   99650    135.86886    -96.03093    137824.69   -37179.246    2668.1352   -39847.381    294.51382    233.83074 
   99700    133.02566   -45.618413    137915.42   -37227.417    2612.3016   -39839.718    294.34768    228.93758 
   99750    131.91316   -214.41672    137993.86    -37202.37    2590.4547   -39792.825    294.89247    227.02295 
   99800    132.24278   -208.67654    138028.67    -37228.98    2596.9278   -39825.908     295.2555    227.59024 
   99850     132.3522    118.93823    138077.31   -37269.657    2599.0765   -39868.733    295.30519    227.77855 
   99900    134.33773   -233.66947    138074.02    -37226.38    2638.0674   -39864.447    295.23169    231.19565 
   99950    131.70137   -228.38936    137927.28    -37210.19    2586.2957   -39796.486    295.56112    226.65847 
  100000     134.6144    33.189478    137832.27   -37221.407    2643.5007   -39864.908    295.95418    231.67181 
Loop time of 186.984 on 60 procs for 100000 steps with 6589 atoms

Performance: 231.036 ns/day, 0.104 hours/ns, 534.805 timesteps/s
99.5% CPU use with 60 MPI tasks x no OpenMP threads

MPI task timing breakdown:
Section |  min time  |  avg time  |  max time  |%varavg| %total
---------------------------------------------------------------
Pair    | 19.643     | 82.326     | 134.65     | 555.4 | 44.03
Neigh   | 1.2239     | 2.5465     | 7.1429     | 130.6 |  1.36
Comm    | 33.043     | 79.367     | 128.86     | 449.5 | 42.45
Output  | 0.21084    | 0.21454    | 0.22943    |   0.5 |  0.11
Modify  | 9.7879     | 21.121     | 35.884     | 252.2 | 11.30
Other   |            | 1.409      |            |       |  0.75

Nlocal:    109.817 ave 253 max 69 min
Histogram: 47 1 0 0 0 0 0 0 5 7
Nghost:    1018.67 ave 1344 max 687 min
Histogram: 24 0 0 0 0 0 0 24 0 12
Neighs:    0 ave 0 max 0 min
Histogram: 60 0 0 0 0 0 0 0 0 0
FullNghs:  13346.5 ave 46499 max 4316 min
Histogram: 48 0 0 0 0 0 0 0 3 9

Total # of neighbors = 800790
Ave neighs/atom = 121.534
Neighbor list builds = 5815
Dangerous builds = 0

write_data		${DIR}/data.eq-${NAME}-${TEMP}
write_data		run_4/data.eq-${NAME}-${TEMP}
write_data		run_4/data.eq-het_freeze_4-${TEMP}
write_data		run_4/data.eq-het_freeze_4-230
undump          1

reset_timestep  0

unfix           2
unfix           3
unfix           4


################################################
#######         Run Simulation         #########
################################################

log				${DIR}/log.run_${NAME}
log				run_4/log.run_${NAME}
log				run_4/log.run_het_freeze_4
