LAMMPS data file via write_data, version 16 Mar 2018, timestep = 100000

6589 atoms
2 atom types

0.0000000000000000e+00 4.9219999999999999e+01 xlo xhi
0.0000000000000000e+00 4.9019635930410494e+01 ylo yhi
1.5203044481256605e+00 5.8541695551875165e+01 zlo zhi

Masses

1 18.015
2 12.01

Atoms # atomic

4740 1 1.6867461740171246e+00 3.1649004594224768e+00 5.0788963087538725e+00 0 0 1
6207 1 3.4083768950221893e+00 1.9176366211459381e+00 6.5252371629466106e+00 -1 0 1
2139 1 1.4099674169848159e+01 2.1762125813183282e+00 2.7043804138779857e+00 -1 1 1
3092 1 6.3130365085212956e+00 2.6017600890436521e+00 5.0084633512922485e+00 0 0 1
3561 1 8.4208312707039514e+00 2.1879505323806110e+00 6.9952368246398526e+00 1 0 0
3222 1 1.0595264628141972e+01 6.6858895488883230e-01 6.2433509547164059e+00 0 0 1
3505 1 1.1739386913502848e+01 3.4516862229971750e+00 3.2978922129505879e+00 0 0 0
5238 1 7.9326949663965980e+00 2.9714745320274711e+00 2.4993403433301120e+00 1 0 0
1731 1 1.0029657619848045e+01 1.2957382358988423e+00 3.6946169182448614e+00 1 0 1
2981 1 1.1198412588073205e+01 4.7927911715179903e+00 5.8208839250242130e+00 1 0 1
4643 1 1.3506292799916837e+01 1.0667168733926657e+00 7.2267104196113996e+00 0 0 0
8 1 1.6400192877801423e+01 1.9568945841587755e+01 1.1596058986305540e+01 0 -1 0
218 1 5.9951426277936397e+00 1.1129978856212187e+01 2.1468948062161082e+00 1 0 0
1958 1 2.7374925825992609e+00 6.3351667005853267e+00 5.7763116628843703e+00 1 1 0
1916 1 5.1937734286024888e+00 5.9687930512569372e+00 7.4334444820484302e+00 1 1 0
3370 1 4.4158207020906293e+00 4.5170486254757840e+00 3.8375084144269458e+00 -1 -1 0
3451 1 6.9128387220941967e+00 5.5422847501784087e+00 3.0138979677610731e+00 2 1 0
1329 1 9.1307206677787516e+00 6.0813027252125655e+00 4.6730922661512135e+00 0 1 1
2018 1 8.8924289737644528e+00 8.7317154147502904e+00 4.9800459072663283e+00 0 -1 1
2171 1 1.1597865199975246e+01 7.0108240100481432e+00 2.7536065622710018e+00 -1 -1 0
1475 1 1.3366753181401682e+01 6.4666183101146117e+00 5.0623567334230977e+00 1 1 1
3244 1 3.6042277515495820e+00 8.6927560463597526e+00 4.8479030349614858e+00 0 0 0
6313 1 2.1302905083166586e+00 1.1034939507254885e+01 5.1920894643910867e+00 0 0 1
5510 1 6.3715788547401813e+00 9.0191999141669452e+00 3.8690844127303139e+00 0 0 1
421 1 7.0223578944856806e+00 1.1825526071782834e+01 5.3609981626480145e+00 1 1 0
4655 1 5.2605160179603061e-01 1.6159160902927582e+01 1.2319597782034952e+01 -1 0 1
2053 1 9.9269223142335701e+00 1.1965505887344786e+01 5.3750632145037098e+00 0 -1 0
3427 1 1.0964720347674438e+01 1.1760034403140574e+01 3.0353793945774243e+00 0 -2 0
1763 1 1.0824927108617437e+01 9.3642768377613610e+00 7.0071768753830108e+00 0 -1 0
4833 1 1.3934613253504265e+01 8.9868868651723126e+00 6.3821037181712050e+00 1 0 0
5046 1 1.4101304442064015e+01 1.0461891436357673e+01 3.7812440398130134e+00 1 -1 0
6339 1 1.2504376157367354e+01 1.3878775373927850e+01 5.3623501461936991e+00 0 1 0
2134 1 1.5721492295236128e+01 1.2767029887586300e+01 8.1835689706111836e+00 1 0 1
1423 1 1.4683445364408025e+01 2.2742224383378897e+01 8.3345218600357462e+00 -1 0 1
5411 1 3.2979129608901543e+00 1.3755900556929905e+01 5.5880359549316374e+00 -1 0 0
1403 1 1.3100822087981336e+00 1.5816316772725660e+01 6.0782122624341755e+00 1 0 1
3200 1 6.6389991056352891e+00 1.4545912674680062e+01 5.6618637263532428e+00 0 0 0
1673 1 5.0698919492610734e+00 1.3755078942102690e+01 3.1421074695013589e+00 1 1 1
593 1 7.6598927696160946e+00 1.4593177074691926e-01 1.2643839072898711e+01 1 1 0
1722 1 8.5111237914011859e+00 1.6470458578463511e+01 4.4160247242925248e+00 1 -1 0
1290 1 9.2916259887940935e+00 1.8593036070896407e+01 2.4119511497481065e+00 2 1 1
4667 1 1.2796701097581588e+01 1.7184093538412526e+01 5.2787585845658462e+00 1 0 1
1471 1 1.3848080237544766e+01 1.7239218150417358e+01 8.0002461801512474e+00 0 0 0
6229 1 2.3861792834971940e+00 1.8462606812699775e+01 2.6658520493550668e+00 1 0 1
6457 1 3.3131490748957702e+00 2.1054845967838485e+01 2.4161336540348417e+00 1 0 0
170 1 2.5836011259457035e+00 1.9423398666513595e+01 5.4300765014525680e+00 2 0 0
328 1 1.3517634523499927e+01 8.9029179239929466e+00 1.6188858876072032e+00 1 -1 0
1438 1 7.6468126974824280e+00 2.0306188009636742e+01 3.9480044656411231e+00 2 0 1
3743 1 7.3552790673383042e+00 1.8515416443391313e+01 5.9454020586964713e+00 0 -1 0
3448 1 1.1086307865322752e+01 1.5687171906236468e+01 3.3988529934947227e+00 0 0 0
108 1 1.5717025161437160e+01 4.4112825121364034e+00 2.1928548883733665e+00 -1 1 0
4962 1 1.0950133181400624e+01 1.9110730002655504e+01 4.7068941972144236e+00 1 0 0
1440 1 9.4799034998742044e+00 1.9483957301952035e+01 7.1165833700432666e+00 0 0 1
418 1 1.4976586836341383e+01 1.7314069466385455e+01 3.7811522006234770e+00 1 0 0
5127 1 1.7452020767408059e+00 2.5752463493482018e+00 2.3287862845605805e+00 0 0 0
5181 1 2.4823825264000212e+00 2.2488730011589158e+01 4.7774805405893979e+00 1 -1 0
4881 1 1.6021875399726984e+01 5.2555710162260434e+00 5.0230507076888697e+00 0 0 0
3381 1 1.4405832145261925e+00 8.2000350864817282e+00 3.1324706285831039e+00 1 0 0
4904 1 6.0295834445838290e+00 2.2262963886243007e+01 6.4633016589160484e+00 1 1 0
310 1 1.6215834030953122e+01 1.8202923482769148e+01 7.5367690359297015e+00 0 0 1
5088 1 9.9622749006412743e+00 2.0893783467765690e+01 1.2074080824525236e+01 0 1 0
4949 1 1.3079794959336354e+01 2.0993507640441681e+01 4.1768982793908318e+00 2 1 1
4779 1 1.1580134164049353e+01 2.2664270830898460e+01 5.9368599258803112e+00 0 1 1
547 1 1.2649944251440692e+01 3.7817852308479964e+00 1.2660936814233914e+01 2 1 1
1869 1 1.6076730038743225e+01 2.3990554475409919e+01 3.8459320929793437e+00 1 -1 0
5064 1 1.5337002941131338e+01 2.1832463056554687e+01 5.3937576533769747e+00 1 0 1
589 1 1.6212506225305663e+01 1.8513840012233820e+00 8.5251945636650177e+00 -1 1 1
3071 1 1.6925719342956957e+00 1.6528659791011500e+00 8.7739968196429956e+00 0 1 1
1990 1 3.7671753064814800e-01 4.4054696807331846e+00 9.7813272720982916e+00 0 1 0
4599 1 7.6646277843113992e+00 2.4216194730217914e+01 3.5731570049518915e+00 1 0 1
1863 1 5.4524416699256477e+00 3.4391880479562627e+00 8.1473685304536865e+00 1 0 0
1933 1 4.0452030064476050e+00 3.4976862027530369e+00 1.0561663069792679e+01 1 2 0
64 1 7.2012734647043155e+00 2.1087387476073953e+00 1.0173910128693482e+01 -1 -1 0
3399 1 1.1214292492452037e+01 2.6548834467252256e+00 1.0353842645348587e+01 -2 0 0
5378 1 9.0805860369279809e+00 4.4788370180560833e+00 8.2969655836330745e+00 1 1 0
3436 1 4.7445904453780061e+00 2.3724050143163439e+01 3.8957585358693421e+00 0 0 0
1341 1 1.6392679864470235e+01 1.0229173776135466e+01 6.7885769274498493e+00 0 0 1
20 1 1.2657518169543570e+01 3.3729274421874345e+00 8.1881374536415024e+00 0 0 0
2950 1 1.3313484556530524e+01 1.3412926005081241e+01 2.5040677323614151e+00 1 1 1
3760 1 9.6291663148150985e-01 6.9070546920974971e+00 8.1028527326356965e+00 1 0 1
4989 1 2.3008393725667702e+00 7.4119092455515903e+00 1.0672030748238228e+01 1 0 0
2109 1 4.9544292837770572e+00 7.4284304375059831e+00 9.8949201999331375e+00 2 1 0
5016 1 6.0234148146479676e+00 5.0564285220625447e+00 1.2188148185819946e+01 1 -1 0
5305 1 8.5955031234824784e+00 3.9801345677335833e+00 1.1531860817694657e+01 0 0 0
304 1 1.1609737571780672e+01 6.8665335512529513e+00 7.8899666524088978e+00 0 0 1
5421 1 1.0086373047510500e+01 6.5515959511534545e+00 1.0893227151527821e+01 2 2 0
5527 1 8.0074667604304075e+00 6.4129125335283339e+00 7.2559842361144398e+00 -1 0 1
130 1 1.7197280379230653e+00 9.9342187079153845e+00 1.1484584707147029e+01 0 -1 1
6332 1 1.5156894954369669e+01 1.3029819346751092e+01 5.2153907031613986e+00 0 0 1
2005 1 1.4930758278618676e+01 4.6919599117339814e+00 9.4040017544399142e+00 2 1 0
424 1 1.3951696162729915e+01 7.3317842625612508e+00 9.3950212691483586e+00 0 0 0
208 1 1.3612771680449455e+01 2.3406331260533893e+01 1.2331467342970289e+01 1 0 1
231 1 7.7001609623303702e-01 1.5425682220674210e+01 2.4063333078982239e+00 2 2 1
1688 1 9.7858160569959782e+00 2.1997716439170365e+01 8.2872361000565853e+00 1 -1 0
3059 1 3.5092184658035483e+00 1.1185794302261337e+01 9.7856244640552674e+00 0 0 1
2250 1 2.0771790281986915e+00 9.5938081014975065e+00 7.7867399784460138e+00 -1 0 1
294 1 7.6090042242775322e+00 1.1452497761004333e+01 8.4430067535821252e+00 0 1 0
4674 1 6.1273479930477350e+00 1.0057855627195359e+01 1.0145944129897027e+01 2 0 0
5494 1 7.0213880292232744e+00 1.4118626794895192e+01 9.5190213512544251e+00 1 1 1
5223 1 7.9533498149920598e+00 2.1326439427406513e+01 1.0475256861509610e+01 1 1 0
3841 1 8.8341932177997329e+00 8.3868858072771140e+00 9.0293155584964691e+00 -1 0 1
44 1 1.0230119027663081e+01 1.1294086323212241e+01 9.3081858912942330e+00 0 -1 1
23 1 1.2670815622826211e+01 1.1460581189562637e+01 1.1451072541918288e+01 -1 1 0
2954 1 1.5122201985211916e+01 1.0308336913295959e+01 9.9908794207239122e+00 1 -1 1
4586 1 2.7082132041110141e+00 1.3911929194172926e+01 9.5837676137908083e+00 1 0 1
3737 1 7.4885519398525409e+00 1.5418415389653626e+01 2.0741080477655904e+00 1 1 0
5002 1 3.1415721766064517e+00 1.5193989369489628e+01 1.1917845086663855e+01 1 2 0
2980 1 4.8373327147914305e+00 1.5081184398020909e+01 7.8576994135822753e+00 1 0 1
3690 1 8.7666360001645760e+00 1.4229334457082102e+01 1.1691306507231454e+01 1 0 0
4857 1 1.0720562142671673e+01 1.3748655254118283e+01 7.8624270791622806e+00 0 1 0
3570 1 8.8133949910081935e+00 1.5230492828701179e+01 7.6249816071208123e+00 0 1 0
1455 1 1.0456249397294599e+01 1.6537893605758825e+01 1.1549034239608893e+01 0 1 1
184 1 9.1963618549952386e+00 1.7325965894699483e+01 9.1952421838847727e+00 0 0 0
4682 1 8.7567543619216082e+00 2.2399515332097007e+01 5.2271251375886703e+00 1 0 1
1490 1 1.2882115446023739e+01 1.5276589130306688e+01 1.1321856940308271e+01 0 0 1
2223 1 1.3506808901760339e+01 1.4476885059941068e+01 8.7270148989666509e+00 0 1 1
161 1 2.0368785475958799e+00 2.1214401192588575e+01 9.8571952534714633e+00 2 1 0
1652 1 3.6014908807304163e-01 1.4165911785715180e+01 8.1583671104543036e+00 1 0 0
1306 1 2.5601530741090022e+00 1.9301003631285610e+01 1.1812030956787002e+01 2 0 1
6295 1 3.6199664783809991e+00 2.1094288621239006e+01 7.3324885822287591e+00 1 -1 1
26 1 3.3291270177791739e+00 1.7468864071032041e+01 7.6620499787140828e+00 0 0 1
2197 1 4.1829890972281030e+00 1.7408266765376894e+01 1.0719722066796994e+01 1 1 1
344 1 5.6884865490297205e+00 1.9169021788146807e+01 8.0485140950212646e+00 0 0 0
1686 1 7.0155056875895907e+00 1.8492482721563842e+01 1.0604920080152462e+01 0 1 0
1733 1 1.1816866300270851e+01 1.8866251674415675e+01 9.1327054268383456e+00 0 2 1
358 1 1.2040890083213261e+01 2.3051875091824012e+01 9.4003701481665427e+00 0 0 0
6253 1 9.8083512475353434e+00 9.2442289926565664e+00 2.2643196663080785e+00 2 2 1
4965 1 1.2782597900471924e+01 2.0814101024705572e+01 1.0970992819181086e+01 0 0 0
2028 1 1.5324952860155731e+01 6.7289061308609122e-01 4.8377795754165600e+00 0 1 0
4991 1 1.4528460394144217e+01 1.3233230612711447e+01 1.2875728889000609e+01 1 -1 1
507 1 3.6963170246377333e+00 2.3255726906585238e+01 1.0272979503294593e+01 0 -1 1
3847 1 7.7898666024863505e+00 2.4498940322459941e+01 1.1289375195244849e+01 1 -1 1
61 1 5.5371294349403533e+00 2.3316612732476099e+01 1.2547790375654685e+01 -1 1 1
3661 1 1.2647178245521971e+01 6.5826616200251964e+00 1.1872057579192914e+01 -1 1 0
6260 1 9.1197562979755009e+00 1.1627731321169614e+01 1.1623524622880005e+01 0 0 1
2964 1 5.8551982944228087e-01 1.8670589375122191e+01 8.8382057425070180e+00 0 2 1
4920 1 1.4867372663798085e+01 1.6927268967051567e+01 1.2524551389267927e+01 0 1 1
103 1 4.9830252125578109e+00 1.3436400197021554e+00 1.1884395396762594e+01 1 1 0
1524 1 5.9319537761072372e+00 2.0700348236231257e+01 1.7277719029207566e+00 1 0 1
4665 1 2.0469582288979611e+00 2.4493853051241960e+01 1.2683806655567734e+01 1 1 1
3803 1 1.3071372219458118e+01 8.9772465093992846e+00 1.2819360837225657e+01 0 0 1
3342 1 1.8390268420882254e+00 3.4323260539555207e+00 1.2663808344451345e+01 1 0 0
6514 1 1.3448786494717133e+01 1.9312825031195874e+01 1.3227013663956209e+01 1 -1 1
1679 1 7.8586709631085085e+00 1.9218690868217386e+01 2.3903406017295243e+01 -2 1 0
447 1 2.6779090314037433e+00 1.1505421398853097e+00 1.5109642773300186e+01 0 0 0
1812 1 5.9134893774522022e+00 4.2051767243145797e+00 1.4535428951046594e+01 0 1 0
5385 1 5.6974176557061762e+00 1.4667773302763851e+00 1.5287178983608161e+01 0 0 0
2263 1 1.0881591166611527e+01 6.3820757922537412e+00 2.3750554221244567e+01 0 1 1
5042 1 8.9997370433117450e+00 1.1663632496293783e+00 1.4653443594619509e+01 0 1 0
284 1 8.8268934490245545e+00 1.5504960984842451e+00 1.7595703615816408e+01 0 1 0
357 1 1.1071830570834184e+01 2.9016709528153424e+00 1.8525428888733021e+01 0 1 1
1904 1 1.3678946048539224e+01 3.3036112064760395e+00 1.5496706926682808e+01 1 1 0
6521 1 1.3567355498016898e+01 1.6002133954955728e+00 1.7537789257598750e+01 0 1 1
1960 1 3.2914652335823589e+00 2.4098077310112242e+01 2.0890188100248068e+01 1 0 0
1803 1 2.4660453459471332e-01 1.2917346271381529e+00 1.7038112118125841e+01 -1 1 1
3426 1 4.2905067476276075e+00 5.9706187356949334e+00 1.9393918423228179e+01 0 1 0
3147 1 1.5430741554310812e+00 3.8228200974632629e+00 1.7881755039113997e+01 -1 -1 1
1823 1 9.9681259078317943e+00 6.2994581698563823e-01 2.3862216199063131e+01 1 1 0
4790 1 4.2165224189659671e+00 6.8336822257626597e+00 1.6489079921680382e+01 1 1 1
6399 1 7.1598510463598037e+00 5.2694182523056439e+00 1.6608067025528975e+01 1 1 1
1604 1 9.0945218080774772e+00 8.0556961651882819e+00 1.3570240732030550e+01 1 0 0
3277 1 1.0053372239633257e+01 3.5408575401391227e+00 1.3698950171343219e+01 0 1 0
1759 1 9.7337700976098827e+00 5.7760846905192951e+00 1.5304865793228940e+01 0 0 1
1698 1 1.1294772569701635e+01 7.0850546334685163e+00 1.7111549722760380e+01 -1 1 0
2112 1 1.3469423844706828e+01 8.3071871161330328e+00 1.5839328702623993e+01 0 0 0
3807 1 1.5686336758458973e+01 5.5605607698107855e+00 1.8615208506497929e+01 1 -1 1
1325 1 4.2226913892631899e+00 1.1162211242269231e+01 1.7954234571169490e+01 0 1 1
1279 1 2.6037748925672930e+00 9.2689638217708925e+00 1.6711977814014887e+01 0 -1 0
2063 1 1.1367672276769829e+00 5.9818672981802337e+00 1.3196800513464899e+01 1 -1 1
5031 1 3.0244428688048424e+00 7.7476889455441755e+00 1.3990078076729315e+01 2 1 0
67 1 6.7749752375529955e+00 8.2933941066011911e+00 1.5947301591375831e+01 -1 1 0
3515 1 5.1917115388125605e+00 1.1835376127592829e+01 1.4668878772838511e+01 0 -1 0
3 1 6.9089249489007791e+00 1.0992223722298933e+01 1.7026799799488444e+01 1 0 1
1506 1 1.0673594679836446e+01 1.0377264988154030e+01 1.3848282913246912e+01 -1 1 1
563 1 1.1758939249658420e+01 1.3468894386923907e+01 1.6807915185856906e+01 0 2 1
4820 1 1.5892845447350078e+01 4.5227232189845692e+00 1.6161554169900590e+01 0 0 1
1585 1 1.1541174169404789e+01 1.0508260381722087e+01 1.7055347103573403e+01 -1 -1 1
1839 1 3.5238844447386453e+00 3.3713204597973374e+00 2.3811871937331720e+01 2 1 0
2232 1 1.5952456948082315e+01 9.5478009603145608e+00 1.3449440464815897e+01 0 2 1
3290 1 9.6034190015204668e-01 1.2396626842550452e+01 1.5454473960190139e+01 2 1 0
3407 1 2.5982850409237659e+00 1.3614263526700384e+01 1.7474608257974172e+01 0 0 0
6515 1 3.6115638963120804e+00 5.5444207073203400e-01 2.3479532372702277e+01 0 1 0
21 1 6.6962480594808147e+00 1.3803052723931406e+01 1.8184386704577967e+01 1 1 0
3405 1 8.8474390195034260e+00 1.2072243812274207e+01 1.5152886267084869e+01 0 -1 1
410 1 5.2120852458085096e+00 1.4318250305263682e+01 1.3803501712457754e+01 1 0 1
6202 1 4.9091877569030666e+00 1.5068791492803040e+01 1.6544032438888923e+01 0 0 1
5397 1 9.7336956843742328e+00 1.5222454839166462e+01 1.6107532449473091e+01 0 1 0
1712 1 8.5659655520072544e+00 1.5712298421480652e+01 1.8531921895357360e+01 -2 2 0
19 1 1.5800247601368985e+01 9.1245999396130433e+00 2.1036114668052420e+01 1 0 0
3275 1 1.4445369498056936e+01 1.2797325791603798e+01 1.5651182515747189e+01 0 1 0
1785 1 1.5938159074466560e+01 1.4803367884123467e+01 1.6911223406975974e+01 0 1 1
1433 1 1.5657651682272347e+01 5.8673228177390659e-02 2.3473979285694867e+01 0 -1 1
3475 1 2.2464939682408831e+00 1.8553316316664318e+01 1.6708873521924097e+01 1 0 1
147 1 5.1823951330311324e+00 1.7705282027181479e+01 1.6834528021878718e+01 -1 -1 1
5116 1 6.5088161100744442e+00 1.9202086141033710e+01 1.4844995945211105e+01 1 1 0
6428 1 7.7750808445799979e+00 1.4850203016235719e+01 1.3995236270325677e+01 1 0 1
5529 1 7.3297795405806259e+00 1.8261192744805015e+01 1.8508205998001660e+01 -1 0 0
3266 1 1.0479418964220645e+01 1.8098233736794100e+01 1.5774165777027761e+01 0 -1 0
2957 1 8.9786376357124560e+00 1.9906029082735998e+01 1.7279349260957268e+01 0 1 1
2067 1 8.6810769286587861e-02 1.6005870108342641e+00 2.3906448837601815e+01 1 0 0
320 1 1.5200139085839369e+01 1.6960619546832632e+01 1.5369973387256502e+01 1 -1 1
3669 1 1.3058751943327012e+01 1.8674976540640525e+01 1.6435066560212540e+01 -1 0 1
6474 1 5.3077963436974169e+00 5.7275041503505797e+00 2.4324934649043609e+01 0 -2 1
3285 1 2.2253086764177414e+00 2.1055949355607556e+01 1.5394319168883303e+01 1 0 1
5173 1 1.5993161439160611e+01 2.3643304548177868e+00 1.3497349075022866e+01 0 0 0
141 1 2.7744673669870039e+00 2.2437950767247195e+01 1.7785216266089446e+01 0 1 0
4852 1 7.4971114159241354e+00 5.7949582741279460e-01 2.2544707134471405e+01 2 1 1
2029 1 1.6349901602579770e+01 4.5437849778843038e+00 2.1364007547801602e+01 0 1 1
373 1 3.2971033968070653e+00 1.9841565859029110e+01 1.9079523848546057e+01 1 0 0
3114 1 1.0151905467803862e+01 2.3395417417937573e+01 1.7958913923282768e+01 1 -1 1
3733 1 9.9684801150741080e+00 2.2666356581419770e+01 1.4021925695017206e+01 0 -1 0
3710 1 7.9473620711507973e+00 2.1545255752375862e+01 1.5535900896732732e+01 -1 0 0
4858 1 9.5214795067926374e+00 2.1184942462079100e+01 1.9795004125139613e+01 1 0 1
1458 1 7.7164422859653525e-01 7.6826832233464790e+00 2.2716106591423554e+01 0 0 1
6197 1 4.3516303977043064e-01 5.9064740177678203e+00 1.6283238450538562e+01 2 1 1
6231 1 1.3504020131184980e+01 2.1148320354997370e+01 1.7261427366516820e+01 0 0 1
6491 1 1.1980666006876509e+01 2.3146309438337401e+01 1.5685718823597018e+01 0 0 1
1521 1 1.0612036387469823e+01 3.4904033617886050e+00 2.3891029283244492e+01 -1 1 1
6191 1 9.3736072606764420e+00 1.0498565319073258e+01 2.3901664159377528e+01 1 0 1
577 1 4.5613901229144922e+00 2.6430268218416337e+00 1.7959420715667807e+01 1 1 1
5249 1 1.3483297958712992e+01 2.3665763565091744e+01 2.3576849943064907e+01 1 0 0
399 1 1.6074290004481384e+01 2.3221507013969191e+01 2.1286623915303629e+01 0 0 0
2973 1 6.5768800752122445e+00 3.0478461309639098e+00 2.1710172749097246e+01 1 1 1
1322 1 6.9996241901032876e+00 3.5064540158355610e+00 1.8532900261970440e+01 1 0 1
6233 1 1.0090379232205876e+01 4.1238399841991891e+00 2.1035820914678201e+01 0 1 0
3501 1 2.8640155042683468e-01 7.8286042777245877e+00 1.8294665057760561e+01 0 0 0
4853 1 1.3350037218011472e+01 2.3265641646482081e+01 1.9361415332493102e+01 1 -1 1
3859 1 1.5994416198863602e+01 1.7636915432530131e+01 2.2718949861819123e+01 1 1 1
2125 1 5.8262995558598778e+00 2.1061940157112961e+01 2.3542907221796622e+01 -1 1 0
1752 1 3.1052117753478203e-01 2.2822924342412591e+01 1.4174477829951352e+01 0 -2 0
3202 1 1.3361038337543137e+01 1.2162246299057928e+01 2.3439523265249395e+01 2 -1 1
282 1 9.1397404869054544e+00 2.3637224923723124e+01 2.1437959900620843e+01 2 0 0
3099 1 1.0100948054007168e+00 4.8175306821974626e+00 2.0783425828216060e+01 0 0 1
3404 1 2.3406063127893635e+00 7.7222583452635734e+00 2.0158500569423975e+01 0 -1 1
4677 1 7.8395286155312141e+00 1.3451240828306915e+01 2.3964516745877994e+01 0 1 1
3560 1 3.7315668732089740e+00 3.4060689914428313e+00 2.1062152534569375e+01 2 1 0
3473 1 4.7022826436896512e+00 2.4227820415203595e+01 1.6788947325852899e+01 0 -1 0
5345 1 6.4908628067395684e+00 7.8761090954562913e+00 1.9003203921536954e+01 -1 0 0
438 1 6.9242039045451440e+00 9.1727705290935919e+00 2.3179251935961481e+01 2 0 1
3134 1 8.2545998617972547e+00 6.6623282095636567e+00 2.2874531549865193e+01 -1 0 1
2076 1 8.1938926140533805e+00 5.6718810641073505e+00 1.9997523349850365e+01 1 1 0
2202 1 9.9168268547152643e+00 7.6917208657490646e+00 1.9347509450010470e+01 0 0 1
118 1 4.4487362575688909e+00 2.0886956630547392e+01 1.3648242690027212e+01 0 -1 0
1697 1 1.2963571145586082e+01 5.1932895895010773e+00 1.8563817350213100e+01 0 0 1
1853 1 1.2557737671131715e+01 5.2829702383682866e+00 2.1351948615961028e+01 1 1 0
4823 1 1.4941652277953846e+01 3.8824048284646824e+00 2.3844155629960390e+01 -1 2 1
5049 1 2.9572352469811181e+00 9.3642720836325216e-02 2.0822676483354311e+01 0 1 0
3128 1 1.5727796816638986e+00 1.7185172665807883e+01 2.3766299218076949e+01 1 0 0
266 1 1.1380443342410207e+00 1.1897854217019251e+01 2.1278443486419484e+01 1 0 0
1517 1 3.7622005260249662e+00 1.0524916753128002e+01 2.0388009313431009e+01 0 -2 1
5054 1 1.0706773098006614e+01 1.8623084004859802e+01 1.3294151346195523e+01 0 1 0
4898 1 1.6284801683141907e+01 2.1359189023325658e+01 2.4086019908578795e+01 0 -1 0
5265 1 7.5566140041934009e+00 2.3901784189450449e+01 1.7068475449348970e+01 -1 0 0
3547 1 6.6383272553672734e+00 1.0298107381347226e+01 2.0596858472534546e+01 1 0 1
3329 1 6.7939002175747154e+00 1.3472422953433405e+01 2.1110119646256344e+01 2 0 1
3109 1 2.6000468587679912e+00 2.3569909232657558e+01 2.3417246260110655e+01 1 0 1
364 1 9.3817992677093098e+00 1.0465368626489001e+01 1.8943057883045171e+01 0 0 0
3794 1 1.1988147364044785e+01 7.9710390683983059e+00 2.0980877567937849e+01 0 0 0
4734 1 9.3591967035918202e+00 1.2313021356284414e+01 2.1249839084554672e+01 2 -2 1
4723 1 1.3302871246720914e+01 9.9769979017995443e+00 1.9116434972228181e+01 0 0 1
387 1 1.3759152000097309e+01 1.2057257481445630e+01 2.0580863939745960e+01 0 0 0
6392 1 1.3571478683344752e+01 2.1204108356751650e+01 2.1481494696233884e+01 -1 -1 1
3231 1 2.3301094508014839e-01 2.2776984447055323e+01 2.0313920597151540e+01 0 0 0
1871 1 2.7484908950507445e+00 1.0830320094148536e+01 1.4046343364769941e+01 1 0 0
1748 1 1.5543937021107972e+01 8.3893002907697074e+00 1.8045729286205244e+01 1 2 0
317 1 2.4563564230356691e+00 1.4238670988427303e+01 2.0261382435840346e+01 0 1 0
3482 1 1.6703446422231858e+00 1.6746578527703935e+01 2.1089278796400365e+01 2 -1 0
2050 1 4.3886925726118085e+00 1.3865924437507312e+01 2.2617595601106668e+01 -1 1 0
2106 1 7.1497085540355609e+00 1.6398844825785019e+01 2.1644327420496658e+01 1 0 0
4830 1 7.7067466156948115e+00 1.7488479324429260e+01 1.3229313407700047e+01 0 -1 0
3004 1 8.2372502543961201e-01 1.6291850952149634e+00 2.1248744098815116e+01 0 0 1
46 1 1.0019011474274969e+01 1.5223219855771335e+01 2.0811345864608736e+01 0 2 0
6355 1 2.8921486060039916e+00 1.0374083184511694e+01 2.3583766040963916e+01 1 2 1
1994 1 4.0894369722636199e+00 7.8327364311258840e+00 2.2794200187763774e+01 0 1 0
3035 1 4.4453424201026657e+00 1.8332894007116312e+01 2.3699159406930640e+01 2 0 0
6447 1 1.4433290471699982e+01 1.5227970733576818e+01 1.9156303924903238e+01 1 0 1
2958 1 1.2168557432348196e+01 1.3966114248514316e+01 1.9323307697210605e+01 1 0 1
580 1 3.3351977971539357e+00 4.1024753693261209e+00 1.5336174669187407e+01 0 0 0
146 1 8.7446255337601864e-01 2.0131518163602049e+01 2.0902627597410042e+01 1 0 1
1832 1 9.6540599173134769e+00 2.3066601213749557e+01 2.3885828420591984e+01 1 0 0
6452 1 5.5455654948779487e-01 1.9875338282721970e+01 2.3743407940623168e+01 2 1 0
3276 1 1.6334015323768476e+01 1.0786778222375181e+01 1.6288386787503470e+01 2 -1 1
6405 1 4.6937923978461500e+00 1.7753502885113516e+01 2.0842149078365384e+01 1 -1 1
121 1 7.6032289742566377e+00 1.9610509051221236e+01 2.0940715892994898e+01 1 1 1
5068 1 1.2537899452759696e+01 7.4476857775087291e-01 2.0549383053650097e+01 1 0 0
6394 1 1.1650473226616139e+01 1.7402773021646503e+01 2.1517199289202189e+01 1 -2 1
6425 1 1.0820721751678764e+01 1.9973523918166673e+01 2.1869009095972874e+01 1 1 1
4785 1 6.8333370108585534e+00 2.3366604980662224e+01 1.9710937800092225e+01 1 1 1
3770 1 1.5303547279290877e+01 1.9167337014423254e+01 2.0415825789819742e+01 0 1 1
3697 1 1.1026606999635100e+00 4.7608512917551247e+00 2.3562179270895538e+01 1 -1 0
289 1 1.3296617641495450e+01 1.7602965909618717e+01 1.9150401937035415e+01 0 0 0
397 1 4.9451016397535863e+00 2.1696809222175581e+01 2.0700684609190798e+01 -1 -1 0
254 1 1.2767829290223718e+01 7.8229011573449037e-01 1.3467302478036700e+01 1 1 1
323 1 1.0879833362719209e+00 1.8194907534276524e+01 1.4062491477525969e+01 0 0 0
4560 1 1.4458671024034825e+01 1.4660141883670175e+01 2.3949886503132991e+01 1 1 1
6484 1 1.6088546465471303e+01 1.5239203829688957e+01 2.1224996461814765e+01 -1 1 1
4846 1 5.4490593803556866e+00 1.5922105327062301e+01 2.4297142737532496e+01 0 2 1
1804 1 1.4984824566377558e+01 6.8666704632494993e+00 2.2606977891483812e+01 0 0 1
4562 1 1.3090022582307011e+01 2.0406058077177125e+00 2.3117434539475578e+01 1 1 0
6530 1 1.4547323249976303e+01 2.1748146110972804e+01 1.4356795496631245e+01 -1 1 1
1376 1 9.9065490806677953e-02 1.2731926408623318e+01 2.3698230308369240e+01 -1 -1 0
5481 1 1.1827731595820612e+01 9.1378746715233774e+00 2.3473442937816799e+01 1 1 0
4781 1 7.4707172802762205e+00 4.0008082966736502e+00 2.4174902964759500e+01 0 1 1
5260 1 1.6053957520553865e+01 2.1543757730754518e+01 1.8507829417980172e+01 0 1 0
5228 1 1.1115865204247932e+01 1.6016955700141683e+01 2.4264442422124912e+01 1 -1 0
5307 1 5.3029348846803552e+00 1.1541616404166328e+01 2.4139630577660871e+01 1 1 0
3493 1 6.9909212627303363e+00 2.3536918280614312e+01 2.4212344134189049e+01 1 0 0
5270 1 1.3289865468106742e+01 2.0632905634525066e+01 2.4227097171569749e+01 0 0 0
3744 1 1.3570825285208919e+01 1.7753146225573104e+01 2.4138488995155498e+01 1 0 0
3287 1 5.6781077966462101e+00 7.7761688163716736e+00 1.3124505053561423e+01 0 0 0
2230 1 6.8034247568669741e+00 1.0480315509982583e+01 1.2959085005033732e+01 1 -1 0
594 2 0.0000000000000000e+00 2.8417180249513345e+00 2.6830846355899382e+01 0 0 0
596 2 0.0000000000000000e+00 0.0000000000000000e+00 2.6830846355899382e+01 0 0 0
598 2 1.2305000000000001e+00 7.1042950623783474e-01 2.6830846355899382e+01 0 0 0
605 2 1.2305000000000001e+00 2.1312885187134998e+00 2.6830846355899382e+01 0 0 0
607 2 2.4610000000000003e+00 2.8417180249513345e+00 2.6830846355899382e+01 0 0 0
609 2 2.4610000000000003e+00 0.0000000000000000e+00 2.6830846355899382e+01 0 0 0
611 2 3.6915000000000004e+00 7.1042950623783474e-01 2.6830846355899382e+01 0 0 0
626 2 3.6914999999999996e+00 2.1312885187134998e+00 2.6830846355899382e+01 0 0 0
1088 2 1.5996500000000003e+01 2.2023314693372832e+01 3.3231153644101113e+01 0 0 0
628 2 4.9220000000000006e+00 2.8417180249513332e+00 2.6830846355899382e+01 0 0 0
630 2 4.9220000000000006e+00 0.0000000000000000e+00 2.6830846355899382e+01 0 0 0
632 2 6.1524999999999999e+00 7.1042950623783407e-01 2.6830846355899382e+01 0 0 0
655 2 6.1524999999999999e+00 2.1312885187134989e+00 2.6830846355899382e+01 0 0 0
657 2 7.3829999999999991e+00 2.8417180249513345e+00 2.6830846355899382e+01 0 0 0
659 2 7.3829999999999991e+00 0.0000000000000000e+00 2.6830846355899382e+01 0 0 0
1087 2 1.4765999999999998e+01 2.1312885187134999e+01 3.3231153644101113e+01 0 0 0
661 2 8.6134999999999984e+00 7.1042950623783407e-01 2.6830846355899382e+01 0 0 0
692 2 8.6134999999999984e+00 2.1312885187135002e+00 2.6830846355899382e+01 0 0 0
694 2 9.8440000000000012e+00 2.8417180249513332e+00 2.6830846355899382e+01 0 0 0
696 2 9.8440000000000012e+00 0.0000000000000000e+00 2.6830846355899382e+01 0 0 0
698 2 1.1074500000000002e+01 7.1042950623783330e-01 2.6830846355899382e+01 0 0 0
737 2 1.1074500000000002e+01 2.1312885187135002e+00 2.6830846355899382e+01 0 0 0
739 2 1.2305000000000000e+01 2.8417180249513332e+00 2.6830846355899382e+01 0 0 0
741 2 1.2305000000000000e+01 0.0000000000000000e+00 2.6830846355899382e+01 0 0 0
743 2 1.3535500000000001e+01 7.1042950623783518e-01 2.6830846355899382e+01 0 0 0
784 2 1.3535500000000001e+01 2.1312885187134984e+00 2.6830846355899382e+01 0 0 0
786 2 1.4765999999999998e+01 2.8417180249513350e+00 2.6830846355899382e+01 0 0 0
788 2 1.4765999999999998e+01 0.0000000000000000e+00 2.6830846355899382e+01 0 0 0
790 2 1.5996500000000003e+01 7.1042950623783518e-01 2.6830846355899382e+01 0 0 0
831 2 1.5996500000000003e+01 2.1312885187135002e+00 2.6830846355899382e+01 0 0 0
599 2 0.0000000000000000e+00 7.1042950623783341e+00 2.6830846355899382e+01 0 0 0
601 2 0.0000000000000000e+00 4.2625770374269996e+00 2.6830846355899382e+01 0 0 0
603 2 1.2305000000000001e+00 4.9730065436648339e+00 2.6830846355899382e+01 0 0 0
618 2 1.2305000000000001e+00 6.3938655561404980e+00 2.6830846355899382e+01 0 0 0
620 2 2.4610000000000003e+00 7.1042950623783341e+00 2.6830846355899382e+01 0 0 0
622 2 2.4610000000000003e+00 4.2625770374269996e+00 2.6830846355899382e+01 0 0 0
624 2 3.6914999999999996e+00 4.9730065436648339e+00 2.6830846355899382e+01 0 0 0
647 2 3.6914999999999996e+00 6.3938655561404980e+00 2.6830846355899382e+01 0 0 0
649 2 4.9220000000000006e+00 7.1042950623783341e+00 2.6830846355899382e+01 0 0 0
651 2 4.9220000000000006e+00 4.2625770374269978e+00 2.6830846355899382e+01 0 0 0
653 2 6.1524999999999999e+00 4.9730065436648339e+00 2.6830846355899382e+01 0 0 0
684 2 6.1524999999999999e+00 6.3938655561404980e+00 2.6830846355899382e+01 0 0 0
686 2 7.3830000000000009e+00 7.1042950623783341e+00 2.6830846355899382e+01 0 0 0
688 2 7.3829999999999991e+00 4.2625770374269996e+00 2.6830846355899382e+01 0 0 0
690 2 8.6135000000000002e+00 4.9730065436648339e+00 2.6830846355899382e+01 0 0 0
729 2 8.6135000000000002e+00 6.3938655561404980e+00 2.6830846355899382e+01 0 0 0
731 2 9.8440000000000012e+00 7.1042950623783341e+00 2.6830846355899382e+01 0 0 0
733 2 9.8440000000000012e+00 4.2625770374270004e+00 2.6830846355899382e+01 0 0 0
735 2 1.1074500000000002e+01 4.9730065436648339e+00 2.6830846355899382e+01 0 0 0
776 2 1.1074500000000002e+01 6.3938655561404980e+00 2.6830846355899382e+01 0 0 0
4656 1 3.0480787052248712e+00 2.1182567010839367e+01 2.4338981121106286e+01 0 1 1