LAMMPS data file via write_data, version 16 Mar 2018, timestep = 8000000

6589 atoms
2 atom types

0.0000000000000000e+00 4.9219999999999999e+01 xlo xhi
0.0000000000000000e+00 4.9019635930410494e+01 ylo yhi
-3.1669250739867039e-02 6.0093669250740653e+01 zlo zhi

Masses

1 18.015
2 12.01

Atoms # atomic

1931 1 3.7143047582647664e+00 2.2914871765187272e+00 1.4584633673331522e+00 3 2 0
1549 1 6.4591429631807387e+00 2.5250429494689342e+00 2.0488780747928961e+00 -1 -2 0
1869 1 9.8431834100254463e+00 1.0776806823262586e+00 2.6329684525240853e+00 2 -3 0
1865 1 1.0115179084050439e+01 3.8472765513957663e+00 2.6314592056403550e+00 2 1 1
1286 1 1.3495686046143653e+01 2.1218344158597171e+00 2.3844616143482709e+00 -1 2 1
4957 1 1.2782531238690014e+01 4.0784066711489397e-01 9.2883817506833459e+00 -2 -3 1
4947 1 2.4673746791308102e+00 4.5414298168865406e+00 2.2257973099070254e+00 1 0 1
2015 1 3.8512306922257387e+00 6.9783371333723547e+00 1.2969048576997795e+00 -1 -3 0
1810 1 6.4030481739194487e+00 7.1508018825328836e+00 2.2936982927366554e+00 -2 0 0
3474 1 7.7952871462210602e+00 4.9166094308798867e+00 1.3177592418581163e+00 4 0 1
1720 1 1.2423277969399003e+01 4.4141677240026409e+00 1.6242015692807166e+00 2 1 0
4608 1 1.3605025087658866e+01 6.8088638469824492e+00 2.2071542843229386e+00 0 1 1
5148 1 2.3528304980677519e+00 9.1372969424036494e+00 2.0056809913277385e+00 -1 -1 0
6292 1 3.6346707015300752e+00 1.1360928894660910e+01 1.0841066435936346e+00 -1 1 1
3547 1 6.3027600060418338e+00 1.1479838326635157e+01 1.9237473674396932e+00 1 -1 1
5478 1 7.8776495188760869e+00 9.2856629486322166e+00 1.1309510840371377e+00 3 -2 1
4662 1 1.0209268588712701e+01 1.0144952577113603e+01 2.3712266521574112e+00 1 -2 1
299 1 1.2339937970950480e+01 9.1387313888785666e+00 1.3651171217362719e+00 1 -3 0
6543 1 1.3796802836715552e+01 1.1305052443337704e+01 1.9433456190705389e+00 0 1 1
3045 1 1.5396608412005261e+01 2.1305429531188082e+01 9.7511541859543733e+00 0 -1 1
6555 1 2.5542614620848392e+00 1.3717601670650073e+01 2.0698710634717425e+00 -3 1 0
3170 1 3.7258919785446651e+00 1.6142025703385222e+01 9.0210368062292123e-01 0 0 1
4876 1 7.6088995531131207e+00 1.3866224712594326e+01 1.2316816143222462e+00 2 3 0
6438 1 6.2183190734533502e+00 1.6014531952754627e+01 2.0019908256904690e+00 -2 2 0
1695 1 1.0075373458985537e+01 1.3181337854394128e+01 2.4130104042669709e+00 0 2 0
1812 1 1.2357801110511835e+01 1.3578247361592677e+01 1.2889939222298972e+00 0 2 0
1571 1 1.3056989839972797e+01 1.5853624179438452e+01 2.2884041053872877e+00 -2 1 0
230 1 2.3057086231254607e+00 1.8508546705259551e+01 2.1807674919463738e+00 -2 1 1
301 1 3.7279913460228360e+00 2.0632632972337824e+01 1.1860250776405772e+00 -3 0 0
1351 1 7.5863389059354924e+00 1.8274032354037324e+01 1.1348145797029527e+00 -1 0 1
110 1 6.3716551098555616e+00 2.0590786677563532e+01 2.1218393979585679e+00 1 -2 0
2038 1 9.8252796577364858e+00 1.9160442060743748e+01 2.7071059509981281e+00 0 0 0
5321 1 1.1805628066791229e+01 1.7948857518881969e+01 1.0952352124518925e+00 -1 0 0
3324 1 2.4252266980368189e+00 7.8052868337278411e-02 4.7886642731735369e+00 -1 0 0
1773 1 2.3530235160836237e+00 2.2780598697578586e+01 1.9848768488387680e+00 0 -1 0
2937 1 7.8283844168137575e+00 2.2680732121268587e+01 1.0139324445926361e+00 1 -1 1
6286 1 1.0012770894629371e+01 2.1773850753099588e+01 2.4692305256249276e+00 1 -1 1
5211 1 1.2099291913245786e+01 2.2607097159929118e+01 9.5606648673036254e-01 2 -1 1
513 1 1.3525050681382369e+01 1.9984216019571502e+01 1.4521609188596023e+00 2 -2 0
440 1 7.5002534179661096e+00 1.0267460447893906e-01 5.8404357258653166e+00 -2 -1 0
242 1 1.6334127531379782e+01 1.1480186320344385e+01 1.5535325767167860e+00 -3 -2 0
3136 1 3.5974871355436484e+00 2.2047459452980771e+00 5.9373021425419257e+00 1 -2 1
3311 1 8.0034588091322423e+00 2.0317491143113116e+01 9.7845537548436745e+00 -2 2 1
4764 1 6.3444850171070328e+00 2.6080131978988246e+00 4.9020177350825076e+00 3 0 1
1960 1 1.1068747846547627e+01 2.6978256412013217e+00 6.3981682742978707e+00 1 1 0
3529 1 1.3876413724227731e+01 2.3615976418013481e+01 9.4162770703767986e+00 -1 1 0
4850 1 1.3502705826099984e+01 2.3738337760454988e+00 5.3122223215019897e+00 1 -1 0
1970 1 1.5540107932603309e+01 1.6719563797157807e+01 9.2228182406261112e+00 -3 4 0
2952 1 2.3979369502727894e+00 4.5325342957983583e+00 5.0998765394616612e+00 0 0 1
5114 1 3.5705562117232592e+00 6.9283663918370522e+00 6.0778773621278059e+00 3 0 0
5331 1 7.5011910716848780e+00 4.8375986195374692e+00 6.0690390337542039e+00 -3 1 0
2983 1 6.1115386240574665e+00 7.2292693276264153e+00 5.2259400766402448e+00 -2 -1 1
1354 1 9.9743469785543812e+00 4.9019419431552098e+00 5.0749685367033530e+00 0 0 1
5215 1 1.1265223983773096e+01 7.2292614441953384e+00 6.0626863789087242e+00 3 2 0
3469 1 1.3690672928131862e+01 6.9695497185904944e+00 4.9520344168581341e+00 0 4 1
1515 1 1.5104730241079533e+01 4.8077413157614108e+00 6.1059381400838610e+00 1 0 1
285 1 2.1528020648287183e+00 9.2021403801342174e+00 4.8157638756022152e+00 0 0 1
2067 1 3.2553031044038327e+00 1.1425514325557993e+01 5.8008774727001606e+00 -2 0 0
6542 1 5.9009279201252429e+00 1.1629472277664460e+01 4.6839124187483536e+00 1 0 0
4786 1 7.2982707259324870e+00 9.4890534357326288e+00 6.0248796196489884e+00 -3 -1 1
5465 1 1.0100498347193302e+01 9.3162141472378384e+00 4.9669827033608582e+00 3 1 0
1622 1 1.1340907783021860e+01 1.1346885908809275e+01 5.9125770213738083e+00 -1 0 0
197 1 1.4621792063469714e+01 9.4628041927061588e+00 5.8247718035294520e+00 -2 0 0
1476 1 1.3623693404254476e+01 1.1722491661572571e+01 4.8023501337792682e+00 2 -2 0
1845 1 2.0176821350302276e+00 1.3611295870142587e+01 4.8458405894687253e+00 3 2 0
1276 1 3.3170008134932183e+00 1.5943790104747968e+01 5.5399849809531059e+00 2 1 1
3057 1 7.4925158010845312e+00 1.3625097133698260e+01 5.8011409518885086e+00 -2 1 1
5494 1 5.9371275380136126e+00 1.5696819324439325e+01 4.6583983530892601e+00 -1 4 1
4849 1 1.0245232105003078e+01 1.3562143763289498e+01 5.0606722196310683e+00 1 0 1
3118 1 1.0843530314887651e+01 1.6059535675075946e+01 5.7753471042343154e+00 3 -1 0
6251 1 1.4474775187902516e+01 1.4122940254713669e+01 6.0928013544428250e+00 2 0 1
5145 1 2.1021193662124986e+00 1.8318514440981108e+01 4.9049801258488239e+00 0 1 1
6436 1 3.4517068413809944e+00 2.0579933233912556e+01 5.7651495147205090e+00 -1 4 1
5066 1 6.8656007878239063e+00 1.8330027706861280e+01 5.7540562405461131e+00 1 1 0
5511 1 5.9974284999745580e+00 2.0680988984852764e+01 4.7663857932002571e+00 0 -2 1
6193 1 9.6135059855419822e+00 1.8489870000993982e+01 5.3589117708449781e+00 2 2 1
1425 1 1.1246074087946779e+01 2.0436297250841054e+01 6.2372915063159384e+00 -2 -1 1
511 1 1.3460911947859820e+01 1.6478169838877697e+01 4.9224707241553132e+00 1 1 1
1367 1 1.3899341726626666e+01 1.9208321309810749e+01 5.9407549703800910e+00 -1 1 0
3355 1 2.2465993167919720e+00 2.2812162086285220e+01 4.7371014628663888e+00 -2 -2 0
3625 1 7.8189032240499410e+00 2.2539243586043568e+01 5.9694529501521796e+00 -1 1 0
3497 1 1.0466022885442888e+01 2.2515703506384291e+01 5.1770049846201536e+00 1 1 0
6231 1 1.1688941920552407e+01 1.8536113391539008e+01 9.9604341815501503e+00 -1 -1 1
56 1 1.0554728745181119e+01 2.0649007951646695e+01 8.9849673149672817e+00 1 1 1
9 1 1.0934751561726115e+00 2.0671328694162359e+00 9.4025894215261516e+00 0 1 0
3688 1 3.6238352874337645e+00 1.9138372635472050e+00 8.5926995447050629e+00 -2 3 0
6524 1 7.2914595573593122e+00 2.2618666036753574e+01 8.7142665615285413e+00 -1 0 1
6491 1 1.5135903316979157e+01 2.4199778862307633e-01 5.7721367964034096e+00 1 3 1
1459 1 4.6492708445119586e+00 2.2619450322619073e+01 9.5871276937662486e+00 1 3 1
1289 1 8.6610367788588345e+00 2.2833517843208204e+00 9.7502216317139823e+00 0 1 1
4882 1 1.1301413334900998e+01 2.6166050837121744e+00 9.2019571619670231e+00 1 1 1
1627 1 1.5700248115119640e+01 1.1643503859076947e+01 9.6587663950885130e+00 1 1 1
1775 1 1.1226820438764225e+01 2.2946786764674375e+01 1.0060444946882122e+01 -1 1 0
3764 1 1.4025016694603739e+01 1.9174097163802294e+01 8.7630271768487642e+00 0 0 1
1984 1 8.6112361391978398e-01 6.7072952725909118e+00 9.5781952593329702e+00 -1 0 0
2972 1 3.4250006660466279e+00 6.8248739298123633e+00 8.7852697496705083e+00 1 2 1
5055 1 7.4078202862764844e+00 4.5149375640587515e+00 8.6056954418884501e+00 -1 1 0
5384 1 4.6857637170815449e+00 4.5235372113615213e+00 9.4560581381155160e+00 -1 2 0
3512 1 8.2033504035453930e+00 7.0238347292298009e+00 9.7375748120414123e+00 0 -4 0
5045 1 1.0752668162364932e+01 7.0692998770610114e+00 8.8861812193897691e+00 2 -1 0
3810 1 1.2528067971980375e+01 5.0993927535945094e+00 9.6464185081079847e+00 -2 1 0
3855 1 1.5125550695077125e+01 5.0587546186802719e+00 8.7764585952979903e+00 -1 0 1
1948 1 1.6153275652451509e+01 2.4384250472505983e+01 2.2388368767302351e+00 5 -2 0
6379 1 2.1138325016147999e-01 1.1385138939110167e+01 9.4315579250325410e+00 0 0 1
3159 1 2.9178274407030225e+00 1.1188146837362996e+01 8.5334546034687300e+00 -1 1 1
1924 1 4.3036253471043073e+00 9.3561288015173716e+00 9.6529551685151471e+00 0 0 0
4749 1 6.9081544214538084e+00 9.5149327269550632e+00 8.7002944999040039e+00 1 1 1
1926 1 3.5604920626648604e+00 2.0307322916522040e+01 8.7758473709600562e+00 1 -2 0
4936 1 1.6263943640036896e+01 2.4264908707776463e+01 5.1912700553072888e+00 0 -1 1
3451 1 8.2856163035877923e+00 1.1605952017193880e+01 9.2536395188194813e+00 3 2 0
2993 1 1.1075420848320965e+01 1.1436819116551728e+01 8.8200725268771247e+00 2 2 1
1900 1 1.2205809081094291e+01 9.1536368601829210e+00 9.6737567579390316e+00 1 0 0
6546 1 1.6213958067640501e+01 2.1575287000540242e+00 1.6336752320651633e+00 1 2 1
3151 1 1.4560040610364045e+01 9.3401186020361013e+00 8.4820315752673761e+00 3 -1 1
4735 1 7.6827769438966942e-01 1.5855207979474921e+01 9.3214377710740663e+00 2 -1 1
502 1 3.5333658017114047e+00 1.5597698583496355e+01 8.3271375683357487e+00 0 0 0
6302 1 4.5848856759414973e+00 1.3342644242219874e+01 9.4873060960573792e+00 0 0 1
6293 1 7.1908442519473397e+00 1.3797477885834198e+01 8.4738872457846632e+00 0 3 1
4628 1 8.3563447000017561e+00 1.6015586446024784e+01 9.5227310997672383e+00 3 2 1
1513 1 1.1889127810808738e+01 1.3868099873092634e+01 9.7793496095269923e+00 -2 0 0
3734 1 1.0875804464411566e+01 1.6320182768408717e+01 8.7331966699269259e+00 3 0 0
2188 1 1.4469137075879779e+01 1.4130044816713964e+01 8.8458206812302720e+00 2 -1 1
1982 1 8.3646597247706733e-01 2.0400818296847945e+01 9.3842838213008601e+00 1 2 1
3463 1 4.4560641543298205e+00 1.8033202581857147e+01 9.5837938914284955e+00 3 0 1
1911 1 6.8743994270222606e+00 1.8044435404681035e+01 8.5142934379894530e+00 -3 0 0
3841 1 1.5912537671989814e+01 7.3760169413126864e+00 9.5556718784780710e+00 1 -1 1
1511 1 2.2755060297388301e+00 1.3444129764891452e-01 1.9459342867248468e+00 0 -1 0
4719 1 7.4751369952924014e+00 5.8981587939697100e-03 1.2889895058130780e+00 1 2 1
4610 1 1.5739295850417104e+01 1.5425030735769292e+01 1.2417792613002434e+00 1 -2 1
213 1 1.6118444725864101e+01 2.0149750783154445e+01 2.3439880278982783e+00 4 3 1
1815 1 1.5539797700817044e+01 7.6965942209857074e-01 8.4251574652554027e+00 0 0 1
4913 1 1.6405193245672404e+01 6.9174473803614465e+00 1.4724524478196443e+00 -1 -1 1
3609 1 1.0121580827844610e+01 4.0596523054751149e-01 5.1271958047944697e+00 2 1 1
5454 1 4.1444329306415844e+00 2.4467633392608089e+01 1.0018919855248143e+00 -2 -1 0
2939 1 1.5325855443301913e+01 2.1376460691598499e+01 1.2433812746748089e+01 1 0 1
5306 1 5.9758469578382050e+00 2.2294528863795207e+00 1.3064808164909133e+01 0 -1 0
1707 1 6.4047274975604118e+00 2.2781497621872617e+00 1.5957939342629340e+01 -1 -3 0
3566 1 1.5650441071086282e+01 1.2374532381819275e+01 1.2243657834194604e+01 2 -3 0
1934 1 1.6325314611862943e+01 2.7658409519175469e+00 1.2619444437394955e+01 -1 4 0
1554 1 1.3626667531681978e+01 2.7046632975872518e+00 1.3013261416345461e+01 -1 2 1
528 1 9.0159178173778787e-01 7.0585513626547947e+00 1.2400056102402583e+01 -1 -4 1
1922 1 2.2792924026820960e+00 4.6057195252313425e+00 1.3138654902290325e+01 -2 1 0
4961 1 2.4952643626607016e+00 4.4943928558422606e+00 1.5868100885276364e+01 -1 0 1
1733 1 1.5915922290421841e+01 2.4115589877631482e+01 2.2795169096326671e+01 0 4 1
3027 1 5.8617224957396852e+00 7.1835928639696096e+00 1.3449450539398851e+01 -1 1 1
1338 1 6.2078004454907498e+00 7.0805038126687725e+00 1.6478228004911312e+01 -1 -2 1
3367 1 1.6170878538356995e+01 7.3566955416289623e+00 2.0431042428580351e+01 2 0 0
6403 1 9.6152872005197434e+00 4.9142324123101293e+00 1.2984899516187710e+01 1 0 1
6514 1 9.7475503301797399e+00 4.6513974089932315e+00 1.6014049251833192e+01 2 -3 1
3243 1 1.6076371537631900e+01 1.9707612414819248e+01 2.3532785843440085e+01 -3 2 0
5404 1 1.3465366827789245e+01 7.1512195806058108e+00 1.3358094170568805e+01 0 0 0
3604 1 4.7775556466691818e+00 4.7097947117724361e+00 1.2293163793125881e+01 -2 2 0
354 1 2.1014965776922474e+00 9.3330328745789117e+00 1.3199996929506117e+01 -1 -2 0
3333 1 2.1996732652041322e+00 9.2321367439554756e+00 1.5806465324090935e+01 -2 0 1
5171 1 1.2656582643709125e+01 3.0714620477067783e-01 2.0717048691651083e+01 3 2 0
4739 1 5.5762756606995456e+00 1.1900574618861462e+01 1.3145686706713889e+01 2 0 0
3239 1 5.6497268656857988e+00 1.1744910478795973e+01 1.5783731941128455e+01 -2 1 1
2020 1 9.8236737139586534e+00 9.2887065790537093e+00 1.3535324455410318e+01 -2 0 0
426 1 9.6295089525500845e+00 9.3492105076023702e+00 1.6252766417069179e+01 2 2 0
4648 1 1.5371017966829054e+01 2.0545100734592115e+01 2.0714176045457165e+01 1 -1 1
4654 1 1.3142789838431343e+01 1.1644417495539738e+01 1.3482847719619633e+01 -1 -3 1
1579 1 1.3174443693158828e+01 1.1699666569347832e+01 1.6153190982304459e+01 0 0 0
162 1 1.2020579203617693e+01 1.8628356478247955e+01 1.2710774851870157e+01 2 1 0
4800 1 1.7482981438997682e+00 1.3937981292819444e+01 1.3257970189137934e+01 -1 -3 0
173 1 1.7318023014815342e+00 1.3809371681195286e+01 1.5946800078553583e+01 -1 4 0
6533 1 8.1668210771635652e-01 2.0398333286709050e+01 1.2100486943174719e+01 3 2 1
4612 1 5.7939212611566262e+00 1.6267655946603817e+01 1.3159235823228286e+01 -2 2 1
45 1 5.6777641214400925e+00 1.6319311061798977e+01 1.6031209753741695e+01 3 0 1
6537 1 1.7137155241661166e+00 8.8288942677202833e+00 2.3939060287169728e+01 0 0 1
3334 1 1.5986977447691132e+01 2.7656662475236202e+00 2.0511163711837415e+01 -1 1 0
1510 1 9.2119466327532606e+00 1.3927642429277265e+01 1.3438278659845837e+01 1 -2 1
1633 1 9.1862285859562505e+00 1.4213276349996777e+01 1.6150724537935204e+01 0 -1 1
3107 1 8.5830469211013867e+00 7.3867037638124335e+00 1.2455972366695349e+01 1 0 0
86 1 1.8046987915454882e+00 1.7994349627452785e+01 1.3154737146343656e+01 1 -2 0
2912 1 2.1078934166785239e+00 1.8203291392353783e+01 1.5746312869849429e+01 0 1 1
3649 1 1.6157392986785823e+01 7.5083840305109932e+00 1.2309687604818839e+01 0 -1 0
1840 1 5.9351289229815505e+00 2.0237167193526101e+01 1.3357101461713778e+01 3 1 0
5261 1 5.7266158027221055e+00 2.0339855214647525e+01 1.5974479441669072e+01 2 1 0
5361 1 1.2220411673806771e+01 2.1394647168496963e+01 2.3702145815491164e+01 -1 2 0
5069 1 1.2620486521711811e+01 3.3888375197503062e-01 1.2160538564536514e+01 -1 2 0
3253 1 9.5365284615832007e+00 1.8259706935475538e+01 1.3312651044808412e+01 3 2 1
5294 1 9.5208059667749385e+00 1.8272927507395892e+01 1.6081841278624907e+01 -1 0 1
2979 1 2.4870827520543046e+00 4.1664861073455519e+00 2.3653142872687038e+01 -3 0 1
421 1 1.3569560453124765e+01 1.6284444754011176e+01 1.3446160873528747e+01 0 2 0
1618 1 1.5919214857817838e+01 1.6793297874686800e+01 1.2120888084243832e+01 0 -3 0
120 1 1.8373945215235075e+00 2.2661444332931872e+01 1.3427120284600388e+01 -2 -1 0
4625 1 2.1172394401030870e+00 2.2915533638984233e+01 1.6005359580163091e+01 -1 2 1
1521 1 1.5541895511628281e+01 1.1944183805722083e+01 2.3725983103554025e+01 0 1 1
5450 1 1.0116177400005917e+01 2.2589499859788919e+01 1.3192169576326968e+01 -1 -1 0
276 1 9.4129153563086287e+00 2.2517714676539569e+01 1.5908171336578246e+01 0 -1 0
5431 1 4.4449694970960385e+00 2.2553829680876675e+01 1.2529717181344012e+01 2 2 1
458 1 1.6071342565994641e+01 7.3789150470557310e+00 2.3187786235164538e+01 2 0 0
6471 1 1.2737038812110470e+01 2.1244155543571662e+01 1.3426736256173591e+01 1 0 1
3613 1 3.5940042845336042e+00 2.1909438843639322e+00 1.6706688827268753e+01 -1 0 0
154 1 3.5589174922672711e+00 2.3226298948670232e+00 1.9381646497288070e+01 2 4 0
5146 1 9.6692876421057017e-01 2.3636624824384698e+00 1.2284959153539342e+01 0 2 0
3564 1 4.7662009459029022e+00 9.9492888526307485e-02 1.2127439879167010e+01 1 0 0
1431 1 1.3336091475509939e+01 2.4141018419112626e+01 1.5700722483495865e+01 0 2 1
2222 1 1.7306376150166698e+00 1.3907189787694151e+01 2.3999144901408560e+01 0 -3 1
456 1 1.1274373854336796e+01 2.4532214266498698e+00 1.6735493830863032e+01 0 2 1
2004 1 1.1481815010587200e+01 2.5119888087634759e+00 1.9605699865707603e+01 0 2 0
2998 1 1.3839449625420912e+01 2.5954958242382862e+00 1.5863633266884237e+01 -2 -1 1
3721 1 1.5387473395312224e+01 5.2475886554036499e-01 1.6999063496136650e+01 3 0 0
3048 1 8.6853181580875294e+00 2.5224017907048069e+00 1.2302223034144841e+01 -1 0 1
4852 1 3.4483490814930202e+00 6.8551498712231842e+00 1.6803194630278462e+01 1 1 1
3770 1 3.4352987268297177e+00 6.8893835611592316e+00 1.9543048307493798e+01 -1 2 1
5085 1 7.1912246476069583e+00 4.5775212383457751e+00 1.9669067330363639e+01 1 -1 0
1907 1 6.9976591437947713e+00 4.6234480592392782e+00 1.7042994326970106e+01 2 0 0
3207 1 1.0781743266261143e+01 7.0141699947990679e+00 1.7006585952612941e+01 1 1 0
2924 1 1.0963499638992671e+01 7.0738151110140715e+00 1.9757915133454254e+01 3 3 1
3756 1 1.3383639230701936e+01 7.3032734069820879e+00 1.6069751236938178e+01 -3 1 0
587 1 1.4646946137682917e+01 5.1867029059106740e+00 1.6757896336785503e+01 -2 0 1
90 1 1.4947088676710138e+01 5.1918770843143074e+00 1.9479279687157316e+01 -2 0 1
3616 1 3.1133783247050117e+00 1.1630996348721867e+01 1.6793692258236479e+01 -1 -1 1
6470 1 3.4274805808604998e+00 1.1571500230464176e+01 1.9653859788023595e+01 1 1 0
448 1 7.1494072983558006e+00 9.6650416919243316e+00 1.6944054940275496e+01 1 1 1
3123 1 7.0052260219573359e+00 9.3239846213575479e+00 1.9703984822039669e+01 -3 3 0
66 1 1.0544536697715483e+01 1.2016788793474307e+01 1.6935690250267946e+01 -1 1 1
1301 1 1.0712141901588275e+01 1.1622729181696270e+01 1.9698246942285802e+01 3 2 1
3115 1 1.4447177847004326e+01 9.3838365408273248e+00 1.7036482029867202e+01 1 1 0
6225 1 1.4602894244405789e+01 9.5499832136417524e+00 1.9662162167175556e+01 -1 2 1
5041 1 3.0602251516328045e+00 1.5923078177432684e+01 1.6931847975757830e+01 0 1 0
5205 1 3.2393581214993583e+00 1.6171417257328628e+01 1.9792939742633653e+01 0 0 0
4886 1 6.5113006248152780e+00 1.4006976617309546e+01 1.7032030115555553e+01 2 2 1
1787 1 6.7525929062589274e+00 1.4169746189675621e+01 1.9781904648489995e+01 2 2 0
2975 1 1.0953777968838946e+01 1.5905955856590577e+01 1.9823973290189922e+01 0 -1 1
6440 1 1.0789109413458837e+01 1.6266456849107932e+01 1.7191764173744684e+01 1 1 1
2141 1 1.4693465745791206e+01 1.4066811076726447e+01 1.6717075874568462e+01 0 -1 1
5257 1 1.4421031481952229e+01 1.4068689954835206e+01 1.9590469221929332e+01 0 0 0
2250 1 2.9794645723613500e+00 2.0549179177425877e+01 1.9545073695080958e+01 -3 1 1
3394 1 3.0602052264836197e+00 2.0733277736638012e+01 1.6900729062735213e+01 3 0 1
3315 1 7.2380629722887786e+00 1.8400016300356729e+01 1.7102147385488234e+01 -1 1 0
3237 1 7.2592566332684170e+00 1.8669739359796097e+01 1.9872474618770337e+01 0 -1 1
2966 1 9.9988547292500325e+00 2.1474889105793292e+01 1.9879014412651099e+01 2 -2 0
3849 1 1.3419083751014453e+01 1.6465602300727237e+01 1.6097184501540916e+01 0 0 1
5460 1 1.4509659178287860e+01 1.8751301115400508e+01 1.6740895588490385e+01 1 -2 1
85 1 1.4105143186251405e+01 1.8613600131164063e+01 1.9412541404763832e+01 -2 0 0
1321 1 8.5073162856504503e+00 1.1448317156593193e+01 1.2171984004282939e+01 2 1 1
6328 1 6.9784912127887306e+00 2.2554874944642698e+01 1.6943628507149363e+01 0 -1 1
4992 1 7.1649893775162345e+00 2.2654587178354618e+01 1.9788682422480562e+01 -2 -3 0
1747 1 1.0688394404246562e+01 2.0458779918691956e+01 1.7126061779460567e+01 0 2 0
1713 1 4.8168728040332951e+00 2.2618949308500124e+01 2.3412233269691541e+01 0 3 0
5266 1 1.3189651661634031e+01 2.1061752775992826e+01 1.6080665975730501e+01 0 2 0
430 1 1.5049449139691951e+01 2.2594793480101838e+01 1.8028214327326751e+01 2 -1 0
3528 1 8.2828086226340449e+00 2.0468622621965675e+01 1.2439584691071284e+01 -1 0 0
6218 1 1.0213446717479058e+00 2.0687444336597216e+00 2.0404384229950818e+01 1 -1 1
5526 1 1.1470510073050915e+00 2.0505811628670187e+00 2.3174188279842756e+01 -2 0 1
3670 1 1.5173935186611201e+01 1.8208340130279713e-01 1.9641060745777679e+01 1 -1 0
116 1 1.1918962976547986e+01 1.3951358602804920e+01 1.2615068467138135e+01 -2 3 0
386 1 4.3660220498595068e+00 1.8281432047607478e+01 1.2345322128289036e+01 -3 0 1
2148 1 8.8805484562302333e+00 2.2393579924410294e+00 2.0439049610554971e+01 3 0 1
3634 1 8.7209572459345601e+00 2.0440528433871461e+00 2.3276389948651563e+01 2 0 0
5060 1 4.1364990122128145e+00 1.4126145694891081e+01 1.2133441600617862e+01 1 0 0
4949 1 4.6330748864377993e+00 9.4526601876184824e+00 1.2345071117747606e+01 0 3 1
3450 1 1.2308766195036087e+01 9.4008598704439681e+00 1.2422741463974821e+01 1 -1 0
1896 1 1.5424807938169343e+01 1.6623788488925953e+01 2.0815510664690137e+01 -1 1 0
4903 1 8.9406322071828215e-01 6.5870183011215468e+00 2.0326129029153464e+01 -1 -1 1
3124 1 9.9359898223886156e-01 6.3668019693128386e+00 2.3121669118061504e+01 -3 2 1
6412 1 5.2207878758062272e+00 4.4142302730309018e+00 2.3171138710691679e+01 0 -2 0
5463 1 4.6746832166795960e+00 4.5158581785533265e+00 2.0443419538658222e+01 3 1 1
2235 1 8.3194604954269451e+00 7.0814181175741240e+00 2.0235023787938061e+01 3 1 1
6270 1 2.6405328646739101e-01 1.5922033112907565e+01 1.2133433979964879e+01 1 -1 1
4807 1 8.7318858487265523e+00 7.0789772700179459e+00 2.3145771164148655e+01 2 0 1
5545 1 1.2532632613129923e+01 4.8984946592375982e+00 2.0506071228724803e+01 0 -1 1
1755 1 7.8965602372736594e+00 1.6455529400359485e+01 2.3437462035454018e+01 -1 0 0
392 1 1.2498135067345872e+01 4.5790674923016201e+00 2.3271712769249575e+01 -2 0 0
1880 1 1.1575309645271567e+01 2.4300916459364174e+01 1.9682972470541046e+01 0 0 0
1284 1 8.1026389695126799e-01 1.1326299240390997e+01 2.3073383580947304e+01 -1 2 0
6432 1 8.8400623864920036e-01 1.1130544084711280e+01 2.0444561263068678e+01 0 2 0
3403 1 4.4992095090855901e+00 9.1292991262649998e+00 2.0745281664678405e+01 -3 0 1
5092 1 4.2826755666337393e+00 9.1107783403727272e+00 2.3466056079221950e+01 3 0 0
1681 1 7.9985194708689313e+00 1.1783325325420369e+01 2.0703868226500724e+01 0 -1 1
2045 1 8.0166359828287064e+00 1.1444598523394905e+01 2.3359713765566685e+01 1 0 0
6488 1 1.2014892581250095e+01 9.5004449179453889e+00 2.0523484775303682e+01 -2 1 1
3606 1 1.2211871499647659e+01 9.6032788091628678e+00 2.3320861934690164e+01 0 0 0
3790 1 1.2356568635960247e+01 4.9170447187737931e+00 1.2404284411432849e+01 3 4 1
6468 1 1.2693942409532839e+01 2.2020059225049355e+01 2.1025039737414456e+01 0 2 1
1791 1 7.0030964909519855e-01 1.6204521631095350e+01 2.3403330172842487e+01 0 -2 1
4883 1 7.2554540024391734e-01 1.5990903391928279e+01 2.0559039832747001e+01 1 0 1
5078 1 4.2886677003627440e+00 1.3941612339653513e+01 2.0649244231921102e+01 -1 2 0
3838 1 4.2220804581308418e+00 1.3866210961688088e+01 2.3237403831236744e+01 2 -1 1
6453 1 4.4762995170853355e+00 2.2712301780943061e+01 2.0780592964218968e+01 0 -1 1
6553 1 8.4131468802749403e+00 1.6344875164470281e+01 2.0793886753355903e+01 -1 1 1
1495 1 1.1887363828371292e+01 1.3696685416036527e+01 2.0849566454859485e+01 -3 -1 1
190 1 1.1862208835114624e+01 1.4019435456949610e+01 2.3502463200747613e+01 -1 3 1
4775 1 1.5679171754352744e+01 1.2027359186187702e+01 2.0952334258423694e+01 1 1 1
3677 1 6.9295862394779839e-01 2.0654540664747245e+01 2.3073452730269750e+01 0 0 0
307 1 2.7915865160223685e-01 2.0111750608732827e+01 2.0396605179738817e+01 -1 2 0
3132 1 6.1265755190566260e+00 6.8971876937951651e+00 2.3804375864725163e+01 1 1 1
3637 1 7.8663668765565093e+00 2.0386853664704503e+01 2.1810064703061101e+01 0 3 0
3567 1 4.0921150030451212e+00 1.8703909563588496e+01 2.3132183844742496e+01 -1 0 0
1631 1 4.4966644682147408e+00 1.8494625402828799e+01 2.0430760338337496e+01 0 0 1
3257 1 1.1070495002602529e+01 2.4509809140955742e+01 1.6858507981786222e+01 -1 1 1
4758 1 1.1479321798718448e+01 1.8960920115097505e+01 2.0512536617875305e+01 1 0 1
80 1 1.1547276047812920e+01 1.8657389168145979e+01 2.3176607856762182e+01 3 -3 0
3413 1 1.5321154503940866e+01 1.6763169043875234e+01 2.3434545855543437e+01 -2 -1 0
3423 1 8.3105830218632430e+00 1.6157136218719437e+01 1.2358110661980847e+01 1 0 1
6374 1 1.0354480875390175e+01 6.6130952615270466e-02 1.5868194081519770e+01 -4 -1 0
1872 1 1.0200158963339453e+01 1.8515502273562498e-01 1.3035423247237496e+01 2 2 1
2116 1 4.2136028411005205e-01 1.1508099270048492e+01 1.2255230269619270e+01 -5 -3 1
5437 1 7.3437143734246586e+00 1.3136703239982950e-01 1.9515757921643370e+01 0 0 0
324 1 4.7963851195733840e+00 4.4848722531526407e-02 2.0372220757812872e+01 -2 1 0
1847 1 1.4904348263743531e+01 2.4276574774473843e+01 2.0121799019156494e+01 -2 1 0
5159 1 2.1792224980957169e+00 2.2566871036657993e+01 2.3864870197748861e+01 1 2 0
4990 1 9.5640919115069796e+00 2.2151307693985064e+01 2.3972357691045367e+01 -1 0 0
594 2 0.0000000000000000e+00 2.8417180249513345e+00 2.6656646667268731e+01 0 0 0
596 2 0.0000000000000000e+00 0.0000000000000000e+00 2.6656646667268731e+01 0 0 0
598 2 1.2305000000000001e+00 7.1042950623783474e-01 2.6656646667268731e+01 0 0 0
605 2 1.2305000000000001e+00 2.1312885187134998e+00 2.6656646667268731e+01 0 0 0
607 2 2.4610000000000003e+00 2.8417180249513345e+00 2.6656646667268731e+01 0 0 0
609 2 2.4610000000000003e+00 0.0000000000000000e+00 2.6656646667268731e+01 0 0 0
611 2 3.6915000000000004e+00 7.1042950623783474e-01 2.6656646667268731e+01 0 0 0
626 2 3.6914999999999996e+00 2.1312885187134998e+00 2.6656646667268731e+01 0 0 0
628 2 4.9220000000000006e+00 2.8417180249513332e+00 2.6656646667268731e+01 0 0 0
630 2 4.9220000000000006e+00 0.0000000000000000e+00 2.6656646667268731e+01 0 0 0
632 2 6.1524999999999999e+00 7.1042950623783407e-01 2.6656646667268731e+01 0 0 0
655 2 6.1524999999999999e+00 2.1312885187134989e+00 2.6656646667268731e+01 0 0 0
657 2 7.3829999999999991e+00 2.8417180249513345e+00 2.6656646667268731e+01 0 0 0
659 2 7.3829999999999991e+00 0.0000000000000000e+00 2.6656646667268731e+01 0 0 0
661 2 8.6134999999999984e+00 7.1042950623783407e-01 2.6656646667268731e+01 0 0 0
692 2 8.6134999999999984e+00 2.1312885187135002e+00 2.6656646667268731e+01 0 0 0
694 2 9.8440000000000012e+00 2.8417180249513332e+00 2.6656646667268731e+01 0 0 0
696 2 9.8440000000000012e+00 0.0000000000000000e+00 2.6656646667268731e+01 0 0 0
698 2 1.1074500000000002e+01 7.1042950623783330e-01 2.6656646667268731e+01 0 0 0
737 2 1.1074500000000002e+01 2.1312885187135002e+00 2.6656646667268731e+01 0 0 0
484 1 9.7594307938456666e+00 9.3146391609736234e+00 2.4173300429806275e+01 -1 -3 1
739 2 1.2305000000000000e+01 2.8417180249513332e+00 2.6656646667268731e+01 0 0 0
741 2 1.2305000000000000e+01 0.0000000000000000e+00 2.6656646667268731e+01 0 0 0
743 2 1.3535500000000001e+01 7.1042950623783518e-01 2.6656646667268731e+01 0 0 0
784 2 1.3535500000000001e+01 2.1312885187134984e+00 2.6656646667268731e+01 0 0 0
786 2 1.4765999999999998e+01 2.8417180249513350e+00 2.6656646667268731e+01 0 0 0
788 2 1.4765999999999998e+01 0.0000000000000000e+00 2.6656646667268731e+01 0 0 0
790 2 1.5996500000000003e+01 7.1042950623783518e-01 2.6656646667268731e+01 0 0 0
831 2 1.5996500000000003e+01 2.1312885187135002e+00 2.6656646667268731e+01 0 0 0
3731 1 5.2721391375031530e+00 1.1447090506240748e+01 2.4287231621769241e+01 2 -2 0
599 2 0.0000000000000000e+00 7.1042950623783341e+00 2.6656646667268731e+01 0 0 0
601 2 0.0000000000000000e+00 4.2625770374269996e+00 2.6656646667268731e+01 0 0 0
603 2 1.2305000000000001e+00 4.9730065436648339e+00 2.6656646667268731e+01 0 0 0
618 2 1.2305000000000001e+00 6.3938655561404980e+00 2.6656646667268731e+01 0 0 0
620 2 2.4610000000000003e+00 7.1042950623783341e+00 2.6656646667268731e+01 0 0 0
622 2 2.4610000000000003e+00 4.2625770374269996e+00 2.6656646667268731e+01 0 0 0
624 2 3.6914999999999996e+00 4.9730065436648339e+00 2.6656646667268731e+01 0 0 0
647 2 3.6914999999999996e+00 6.3938655561404980e+00 2.6656646667268731e+01 0 0 0
288 1 9.4396571740836457e+00 1.5939643762680818e+01 3.5944304519780410e+01 -2 0 -1
649 2 4.9220000000000006e+00 7.1042950623783341e+00 2.6656646667268731e+01 0 0 0
651 2 4.9220000000000006e+00 4.2625770374269978e+00 2.6656646667268731e+01 0 0 0
653 2 6.1524999999999999e+00 4.9730065436648339e+00 2.6656646667268731e+01 0 0 0
684 2 6.1524999999999999e+00 6.3938655561404980e+00 2.6656646667268731e+01 0 0 0
686 2 7.3830000000000009e+00 7.1042950623783341e+00 2.6656646667268731e+01 0 0 0
688 2 7.3829999999999991e+00 4.2625770374269996e+00 2.6656646667268731e+01 0 0 0
690 2 8.6135000000000002e+00 4.9730065436648339e+00 2.6656646667268731e+01 0 0 0
729 2 8.6135000000000002e+00 6.3938655561404980e+00 2.6656646667268731e+01 0 0 0
731 2 9.8440000000000012e+00 7.1042950623783341e+00 2.6656646667268731e+01 0 0 0
733 2 9.8440000000000012e+00 4.2625770374270004e+00 2.6656646667268731e+01 0 0 0
735 2 1.1074500000000002e+01 4.9730065436648339e+00 2.6656646667268731e+01 0 0 0
776 2 1.1074500000000002e+01 6.3938655561404980e+00 2.6656646667268731e+01 0 0 0
4692 1 1.3035579878793920e+01 1.1667628780305748e+01 2.4433736447899850e+01 2 1 1
778 2 1.2305000000000000e+01 7.1042950623783341e+00 2.6656646667268731e+01 0 0 0
780 2 1.2305000000000000e+01 4.2625770374269978e+00 2.6656646667268731e+01 0 0 0
782 2 1.3535500000000001e+01 4.9730065436648339e+00 2.6656646667268731e+01 0 0 0