
# Create simulation box and atoms

read_data data.graphite_ML_1atm_e
  orthogonal box = (0 0 0.848635) to (49.22 49.0196 59.2134)
  3 by 2 by 5 MPI processor grid
  reading atoms ...
  6589 atoms
  reading velocities ...
  6589 velocities
group water type 1
3829 atoms in group water
group graphite type 2
2760 atoms in group graphite

# Define potential

pair_style sw
pair_coeff * * MLC_e.sw mW C


# Fix graphite atoms in place

fix 5 graphite setforce 0.0 0.0 0.0
velocity graphite set 0.0 0.0 0.0


# Equilibration of molecular water

# Add velocity/set timestep

velocity	    water create ${TEMP} ${SEED} rot yes dist gaussian
velocity	    water create 230 ${SEED} rot yes dist gaussian
velocity	    water create 230 3588 rot yes dist gaussian
timestep	    5.0

# Define output

compute			1 water msd
compute			3 water temp
thermo	    	50
thermo_style	custom step temp press vol etotal ke pe c_1[4] c_3

# Neighbor lists

neigh_modify    delay 0 every 1 check yes

# Set fixes

fix             1 water momentum 10 linear 1 1 1 rescale
fix             2 water nve
fix             3 water temp/csvr ${TEMP} ${TEMP} 500.0 ${SEED}
fix             3 water temp/csvr 230 ${TEMP} 500.0 ${SEED}
fix             3 water temp/csvr 230 230 500.0 ${SEED}
fix             3 water temp/csvr 230 230 500.0 3588
fix             4 water press/berendsen z ${PRES} ${PRES} 1000.0 modulus 20000
fix             4 water press/berendsen z 1 ${PRES} 1000.0 modulus 20000
fix             4 water press/berendsen z 1 1 1000.0 modulus 20000

# Run 0.5 ns equilibration

dump		    1 all atom 2000 ${DIR}/eq.${NAME}-${TEMP}.dump
dump		    1 all atom 2000 test_0/eq.${NAME}-${TEMP}.dump
dump		    1 all atom 2000 test_0/eq.het_freeze_0-${TEMP}.dump
dump		    1 all atom 2000 test_0/eq.het_freeze_0-230.dump

reset_timestep  0

run	            100000
Neighbor list info ...
  update every 1 steps, delay 0 steps, check yes
  max neighbors/atom: 2000, page size: 100000
  master list distance cutoff = 7.76
  ghost atom cutoff = 7.76
  binsize = 3.88, bins = 13 13 16
  1 neighbor lists, perpetual/occasional/extra = 1 0 0
  (1) pair sw, perpetual
      attributes: full, newton on
      pair build: full/bin/atomonly
      stencil: full/bin/3d
      bin: standard
Per MPI rank memory allocation (min/avg/max) = 4.121 | 4.231 | 4.564 Mbytes
Step Temp Press Volume TotEng KinEng PotEng c_1[4] c_3 
       0    133.64299   -536.31266     140819.3   -33204.401    2624.4244   -35828.825            0          230 
      50    174.83045   -1341.8108    140313.25   -33706.963    3433.2463   -37140.209   0.80322426    300.88375 
     100    172.10815   -1175.5788    139829.98   -34092.399    3379.7869   -37472.186     1.716465    296.19866 
     150    169.49583   -762.03537    139414.42   -34455.457    3328.4874   -37783.945    2.4774131    291.70286 
     200    161.82502   -754.98524    139091.89   -34804.551    3177.8513   -37982.402    3.2052653    278.50137 
     250    157.15358    -736.7646    138824.48   -35056.183    3086.1154   -38142.298    3.8109445     270.4618 
     300    155.77821   -880.39377    138523.59   -35294.141    3059.1065   -38353.247    4.4196912    268.09478 
     350    154.80027   -455.59373    138294.04   -35434.479    3039.9022   -38474.381    4.9435776    266.41176 
     400    149.62804   -690.55571    138110.48   -35614.244    2938.3321   -38552.576    5.4557777    257.51032 
     450    149.79849   -664.90295    137847.02   -35777.046    2941.6794   -38718.725    5.8982739    257.80368 
     500    143.63907   -737.70278    137660.77   -35923.808    2820.7232   -38744.531    6.2324632    247.20328 
     550    139.98989   -690.00534    137460.14   -36069.402    2749.0622   -38818.465    6.6010445    240.92304 
     600    139.62156   -304.32085    137331.23   -36163.038    2741.8291   -38904.867    6.8925434    240.28914 
     650    138.88616   -496.78294    137208.75   -36231.319    2727.3877   -38958.707     7.278768    239.02352 
     700    140.43686   -636.65623    137037.99   -36313.416    2757.8396   -39071.255    7.6915008    241.69228 
     750    138.89081   -531.04321    136964.84   -36366.728    2727.4789   -39094.207    7.9024021    239.03152 
     800    140.13279   -197.07773    136987.47   -36418.462    2751.8684    -39170.33    8.1537353    241.16897 
     850    138.42257    -401.5971    136958.55   -36469.425    2718.2838   -39187.709    8.4024539    238.22568 
     900    136.09443   -393.50652    136883.69   -36553.872    2672.5648   -39226.437    8.6432392    234.21894 
     950    137.40689   -145.66407     136915.4   -36549.334    2698.3383   -39247.672    8.9309113    236.47768 
    1000    137.78857    9.4766431    136866.05   -36556.579    2705.8336   -39262.412    9.2178315    237.13456 
    1050     138.6817   -127.10875    136861.13   -36545.409    2723.3725   -39268.781    9.4913697    238.67164 
    1100    140.24624   -146.29427    136872.35   -36539.588    2754.0963   -39293.684    9.7000405    241.36422 
    1150    137.80037   -584.90858    136762.18   -36669.216    2706.0654   -39375.281     9.859643    237.15488 
    1200    137.26177   -467.95855    136585.08   -36696.843    2695.4884   -39392.331    10.134192    236.22793 
    1250    137.68627   -313.88738    136510.73   -36706.399    2703.8247   -39410.224    10.365919     236.9585 
    1300    137.32822   -288.09235    136469.06   -36725.534    2696.7935   -39422.327    10.681449     236.3423 
    1350    136.48378   -193.92806    136328.61   -36753.634    2680.2108   -39433.845    10.967801    234.88902 
    1400    136.52224    -648.6158     136271.4   -36771.492    2680.9659   -39452.458    11.203393     234.9552 
    1450    136.76579   -174.34437    136194.02   -36767.548    2685.7488   -39453.297    11.421054    235.37436 
    1500    136.83161   -322.77539    136220.56   -36822.193    2687.0413   -39509.234    11.732768    235.48764 
    1550    137.04763   -169.76411     136243.3   -36823.928    2691.2834   -39515.211    11.982127     235.8594 
    1600    135.31251   -602.24073    136234.27   -36807.718    2657.2097   -39464.928    12.161152    232.87325 
    1650    136.04924   -370.71767    136213.29   -36808.446    2671.6773   -39480.124    12.285438    234.14117 
    1700    134.00565   -363.53265    136234.03   -36872.906    2631.5463   -39504.452    12.421202    230.62415 
    1750    135.06769   -296.43042    136179.25   -36856.616     2652.402   -39509.018    12.732014    232.45191 
    1800    132.22739   -85.424293    136160.63   -36943.138    2596.6255   -39539.763    12.988815    227.56376 
    1850    133.05986   -369.06526    136271.15   -36917.884    2612.9733   -39530.857    13.099565    228.99644 
    1900    132.64865   -58.472274    136263.43   -36959.562    2604.8979    -39564.46    13.245441    228.28873 
    1950    133.06475   -272.02853    136264.31   -37025.212    2613.0692   -39638.281    13.502676    229.00485 
    2000    133.91172   -276.57615    136256.91    -37038.69    2629.7016   -39668.392    13.753135    230.46249 
    2050    132.77047   -382.29035    136174.06   -37042.222    2607.2903   -39649.512    13.854944     228.4984 
    2100    133.71995   -413.39729    136213.85   -36998.833    2625.9359   -39624.769    14.091214    230.13246 
    2150    133.52654   -267.82172    136208.92   -37015.334    2622.1377   -39637.472    14.272815     229.7996 
    2200    135.53651   -88.743361    136195.77   -36979.736    2661.6086   -39641.345    14.425703    233.25876 
    2250    133.99706   -181.69668    136236.72   -37008.169    2631.3775   -39639.547    14.610971    230.60936 
    2300    132.50955   -350.31877    136227.31   -37031.767    2602.1664   -39633.934    14.724861    228.04934 
    2350    131.66067   -268.17648    136136.97   -37026.602    2585.4966   -39612.099    14.901996    226.58843 
    2400    132.03475   -274.39209    136072.17   -37090.936    2592.8425   -39683.778    15.148024    227.23221 
    2450    134.42252   -178.61981    136065.19   -37035.817    2639.7326   -39675.549    15.403283    231.34159 
    2500    132.86986   -95.928261    136112.08   -37034.126    2609.2421   -39643.368    15.676083    228.66945 
    2550    134.88287   -94.244276    136150.21   -36977.838    2648.7727    -39626.61    15.684973    232.13384 
    2600    131.54952   -303.28564    136229.22   -36998.206    2583.3137   -39581.519    15.801257    226.39713 
    2650    132.06991   -230.56112    136272.21    -37015.02     2593.533   -39608.553    15.928242    227.29274 
    2700    131.45118    -246.6516    136220.35   -37041.703    2581.3826   -39623.085     16.12636    226.22789 
    2750    132.52336   -86.626971    136271.61     -37029.4    2602.4377   -39631.837    16.357175    228.07312 
    2800    132.49767   -102.86955    136267.91   -37045.008    2601.9332   -39646.941    16.539496    228.02891 
    2850    131.77966   -155.09737    136295.03   -37001.951    2587.8333   -39589.784    16.676726    226.79322 
    2900    134.44974   -285.46289    136343.09   -37000.514    2640.2671   -39640.781     16.78697    231.38842 
    2950    134.52751   -407.98567    136376.96   -36923.618    2641.7943   -39565.412    16.959126    231.52227 
    3000     137.6327   -216.37565    136365.77   -36888.706    2702.7727   -39591.479    17.131772    236.86631 
    3050    135.42192   -151.24258     136421.2   -36912.298    2659.3583   -39571.656    17.223096    233.06154 
    3100    139.00501   -319.47058    136464.16   -36874.442    2729.7215   -39604.163     17.38324    239.22806 
    3150    133.03096   -132.54409    136446.15   -36977.006    2612.4056   -39589.412    17.659767    228.94669 
    3200    134.49662    99.826185    136592.18    -36995.03    2641.1877   -39636.218    17.834523    231.46911 
    3250    134.71738   -196.23961    136659.16   -36949.798    2645.5229    -39595.32    17.883263    231.84904 
    3300    136.88551   -174.77015    136638.27    -36978.24    2688.0997    -39666.34    18.143208    235.58039 
    3350    134.16752   -372.82439    136604.32   -37007.485    2634.7249    -39642.21    18.339811    230.90272 
    3400     136.1675   -344.48133    136576.69   -36996.303    2673.9997   -39670.302    18.547837    234.34469 
    3450    136.26914    -235.7239    136593.42   -37001.337    2675.9956   -39677.332    18.729756    234.51961 
    3500      133.502   -275.69944    136596.94   -36988.011    2621.6557   -39609.667    18.790028    229.75735 
    3550    135.96739   -28.682049    136714.15   -37001.071      2670.07   -39671.141    18.853126     234.0003 
    3600    135.10952    -12.43617    136813.76   -36991.433    2653.2236   -39644.657    18.990844    232.52391 
    3650    134.79768   -143.92768     136916.3   -37007.166    2647.0998   -39654.266    19.064301    231.98723 
    3700    134.16754   -240.44687    136958.35   -37018.453    2634.7254   -39653.178    19.212286    230.90277 
    3750    136.69514    25.111195    137025.26   -36950.216    2684.3613   -39634.577    19.319944    235.25276 
    3800    137.37663    -388.7733    137017.46   -36940.079     2697.744   -39637.823    19.416561    236.42561 
    3850    135.35501   -378.64875    137018.27   -36980.784    2658.0443   -39638.828    19.526815    232.94639 
    3900      133.548   -245.81026    136987.99   -37072.835     2622.559   -39695.394    19.711035    229.83652 
    3950    131.73299   -300.79272    136890.21   -37078.105    2586.9167   -39665.021    19.949838    226.71289 
    4000     131.8406   -367.34994    136874.41   -37027.228    2589.0298   -39616.258     20.07271    226.89808 
    4050     132.8754   -23.464935    136969.17   -37069.874    2609.3508   -39679.225    20.219587    228.67897 
    4100     133.0654   -183.54921    136897.36   -37099.433    2613.0819   -39712.515    20.416447    229.00597 
    4150    133.94998   -306.78422    136841.02   -37095.448     2630.453   -39725.901    20.624983    230.52834 
    4200     131.8519   -118.69769    136850.46   -37112.236    2589.2518   -39701.488    20.826868    226.91753 
    4250    130.40451   -388.70104    136855.16   -37119.725    2560.8286   -39680.553    21.027601    224.42657 
    4300    134.26259   -286.23299    136841.53   -37087.978    2636.5918    -39724.57    21.180322    231.06633 
    4350    132.83938   -323.12836    136829.39   -37119.558    2608.6434   -39728.201     21.40921    228.61698 
    4400    130.09241   -101.05702     136861.7   -37142.324    2554.6996   -39697.023    21.529887    223.88944 
    4450    132.19612   -80.905901    136944.27   -37125.243    2596.0114   -39721.255    21.560602    227.50994 
    4500    132.75478   -165.47711    136907.35   -37107.551    2606.9821   -39714.533    21.715978    228.47139 
    4550    131.87152   -351.06616    136862.75    -37134.52    2589.6371   -39724.157    21.961624     226.9513 
    4600    130.97384   -31.576601    136884.77   -37158.317    2572.0088   -39730.326    22.146433    225.40639 
    4650    130.50998   -71.324008    136964.58   -37125.925    2562.8997   -39688.824    22.387602    224.60808 
    4700    134.21897   -392.69596    136893.71   -37064.612    2635.7354   -39700.347    22.621212    230.99127 
    4750    133.48374   -253.14252    136947.64   -37101.182    2621.2972   -39722.479    22.838676    229.72593 
    4800    131.98735   -123.71419    137038.08    -37109.09    2591.9117   -39701.002    22.947695    227.15064 
    4850    133.61834   -391.18453    137096.57   -37101.119    2623.9404   -39725.059    23.072655    229.95758 
    4900    132.30415   -267.43573    137072.71   -37093.872     2598.133   -39692.005    23.261845    227.69586 
    4950     131.2414   -138.89419    136969.43   -37109.855     2577.263   -39687.118    23.220615    225.86686 
    5000    132.74445    -94.67002    136924.49   -37103.289    2606.7794   -39710.068    23.459436    228.45362 
    5050    132.17239   -59.748089    136935.14   -37061.785    2595.5454    -39657.33    23.578242     227.4691 
    5100    133.91438   -106.50937    136939.56   -37081.312    2629.7538   -39711.066    23.688737    230.46706 
    5150    135.20979    187.84037    136911.67   -37006.735    2655.1925   -39661.927    23.870873    232.69646 
    5200    133.98382   -17.069572    137125.51   -36975.082    2631.1176     -39606.2    23.880674    230.58658 
    5250    135.55782   -194.75006    137104.11   -37010.055     2662.027   -39672.082    23.892389    233.29543 
    5300    133.96152   -259.05048    137018.24   -37025.226    2630.6796   -39655.906    24.172414    230.54819 
    5350    133.51049    -153.7884    137078.75   -37036.177    2621.8224       -39658    24.316007    229.77197 
    5400    132.67478   -388.31893    136996.72   -37017.787    2605.4111   -39623.198    24.405082     228.3337 
    5450    135.37506   -351.61803    136904.85   -37025.042    2658.4381    -39683.48    24.580013    232.98091 
    5500    133.87439   -117.66085    136860.86   -37069.211    2628.9686    -39698.18    24.743236    230.39825 
    5550     135.1971   -153.64731    136872.07   -37100.467    2654.9434   -39755.411    24.971468    232.67463 
    5600    134.06731   -119.44645    136902.98   -37122.667     2632.757   -39755.424    25.163073    230.73025 
    5650    136.35714   -96.414377     136879.4   -37075.421    2677.7238   -39753.145    25.324084    234.67107 
    5700    135.70489     -101.103    136866.04   -37057.196    2664.9152   -39722.111    25.527677    233.54854 
    5750    136.48017   -187.75394    136813.96   -36985.306    2680.1398   -39665.446    25.702322     234.8828 
    5800    132.98549    -41.95633    136809.16   -37079.553    2611.5128   -39691.066    25.795968    228.86845 
    5850    134.87283    -57.28652    136875.71    -37105.87    2648.5756   -39754.445    25.940889    232.11657 
    5900    128.49053   -324.56522    136968.19   -37151.324    2523.2426   -39674.567    26.057713    221.13261 
    5950     132.5366   -138.98919    136920.42   -37121.514    2602.6977   -39724.211    26.213699    228.09591 
    6000    134.85036    34.515595     136913.7   -37073.637    2648.1342   -39721.771    26.403116    232.07789 
    6050     133.7553   -252.16258    136950.77   -37072.439    2626.6299   -39699.069    26.504141    230.19329 
    6100    134.06878   -187.26227    136953.97   -37044.692    2632.7859   -39677.478    26.750353    230.73279 
    6150    133.52299   -227.64175    136930.35   -37077.077    2622.0679   -39699.145    27.028597    229.79348 
    6200    134.22964   -133.90373    136890.28   -37084.443    2635.9448   -39720.388    27.205645    231.00962 
    6250    134.51436   -117.01821    136845.91    -37091.77    2641.5361   -39733.306    27.296746    231.49964 
    6300    134.53259    -138.6663    136847.66   -37044.769    2641.8941   -39686.663    27.388502    231.53101 
    6350    134.80001    24.282103    136933.28   -37050.774    2647.1455    -39697.92    27.357773    231.99124 
    6400    132.88905   -255.03419    136940.86   -37058.861     2609.619    -39668.48    27.531641    228.70248 
    6450    132.61154   -265.86121    136932.51   -37047.987    2604.1693   -39652.157    27.762861    228.22488 
    6500     133.0905   -244.79637    136901.75   -37083.076    2613.5749   -39696.651    27.988477    229.04917 
    6550    133.38541   -47.121577    136852.56   -37073.601    2619.3662   -39692.968    28.095011     229.5567 
    6600    133.79998   -198.57441    136907.57   -37140.516    2627.5073   -39768.023    28.083579    230.27018 
    6650    133.10002   -137.57036    136922.09   -37069.633    2613.7618   -39683.395    28.141311    229.06555 
    6700    132.22092    125.97139    136960.71    -37071.66    2596.4985   -39668.158     28.35333    227.55262 
    6750    133.39656    -100.9482    137030.91   -37027.054    2619.5851   -39646.639    28.510831     229.5759 
    6800    134.82338   -415.03712    137055.46   -37036.593    2647.6045   -39684.198    28.758637    232.03146 
    6850    132.77929   -378.59142    137023.09   -37040.524    2607.4634   -39647.988    28.951273    228.51357 
    6900    136.15902   -126.99602    136948.62   -37033.464    2673.8332   -39707.297    29.123415     234.3301 
    6950    134.09768   -213.56024    136937.81   -37015.455    2633.3535   -39648.808    29.254884    230.78253 
    7000    135.90629    33.886807    137010.22   -37025.923    2668.8701   -39694.793    29.316318    233.89515 
    7050    135.33837    -290.0572    137053.62   -37068.939    2657.7176   -39726.657    29.464935    232.91776 
    7100    135.57802   -111.89146    137153.69   -37035.926    2662.4238   -39698.349      29.5836     233.3302 
    7150    134.72527   -263.41683    137173.83   -37072.806    2645.6778   -39718.483    29.637707    231.86261 
    7200     132.4643   -114.30232    137139.44   -37100.003    2601.2779   -39701.281    30.011821    227.97148 
    7250    133.57302     -313.776    137225.58   -37106.739    2623.0503   -39729.789    30.036542    229.87958 
    7300    132.85138   -137.20881    137171.95   -37081.592    2608.8792   -39690.471      30.0891    228.63764 
    7350     132.0197   -239.01657    137144.85   -37130.227    2592.5471   -39722.774    30.232033    227.20633 
    7400    129.27842   -276.98806    137163.56   -37136.427    2538.7148   -39675.142     30.27565    222.48856 
    7450    132.43435    10.289428     137245.1   -37119.524    2600.6897   -39720.214    30.310766    227.91993 
    7500    132.75246   -100.40369    137257.03   -37078.501    2606.9367   -39685.437    30.481591    228.46741 
    7550    132.77966   -37.409643    137281.96    -37089.34    2607.4708   -39696.811    30.587392    228.51422 
    7600    133.19888   -280.62337    137272.21   -37065.558    2615.7032   -39681.261    30.676051    229.23569 
    7650    133.83047   -251.20366    137212.39   -37039.167    2628.1062   -39667.274    30.814959    230.32267 
    7700    133.13202   -355.79715    137255.77   -37014.104    2614.3903   -39628.495    30.949607    229.12063 
    7750    134.12014   -252.54931    137213.58   -37048.899    2633.7946   -39682.694    30.939731    230.82119 
    7800    131.66801   -318.37142     137274.9   -37087.027    2585.6406   -39672.668    31.104735    226.60105 
    7850    131.67404   -310.08642    137249.89   -37110.606     2585.759   -39696.365    31.423813    226.61143 
    7900    134.52943   -155.86493    137209.48   -37112.104     2641.832   -39753.936    31.665409    231.52557 
    7950    133.59013   -206.09257    137237.81   -37120.376    2623.3865   -39743.763    31.696626    229.90904 
    8000    130.29273   -399.72593    137234.29   -37095.535    2558.6334   -39654.169    31.659769    224.23419 
    8050    132.59513   -136.91377     137151.2   -37108.645     2603.847   -39712.492    31.804322    228.19663 
    8100    133.45248    -91.52914    137146.14   -37109.218    2620.6833   -39729.901    31.884833    229.67213 
    8150    134.36475    15.297364    137182.08   -37119.144    2638.5981   -39757.742    32.204081    231.24216 
    8200    135.69059   -167.22021    137153.05   -37092.824    2664.6343   -39757.459    32.463917    233.52393 
    8250    132.46845    -192.6854       137222   -37085.628    2601.3594   -39686.988    32.608893    227.97862 
    8300    133.37016   -231.00124    137263.16   -37075.069    2619.0667   -39694.135     32.77164    229.53046 
    8350    132.51516   -251.26532    137258.42   -37105.345    2602.2766   -39707.621    32.849286    228.05901 
    8400    133.68409   -207.05908    137322.08   -37140.894    2625.2315   -39766.126    32.879352    230.07073 
    8450    132.54575   -326.83666     137261.7   -37149.879    2602.8773   -39752.756    33.147546    228.11165 
    8500    133.33734   -199.86678     137266.1   -37118.644    2618.4221   -39737.066    33.250037    229.47397 
    8550    135.37596   -91.637955     137247.3   -37037.937    2658.4558   -39696.393    33.347187    232.98245 
    8600    137.66066    26.858716    137245.55   -36994.152    2703.3218   -39697.474     33.46626    236.91443 
    8650    135.31286    29.728224     137306.6   -37019.915    2657.2167   -39677.132    33.697064    232.87386 
    8700    132.84509   -435.27211    137295.91   -37002.881    2608.7557   -39611.637    33.989535    228.62682 
    8750    134.74693   -210.68851    137229.14   -37063.891    2646.1031   -39709.994    34.065171    231.89988 
    8800    135.41861   -55.793748    137261.31    -37017.84    2659.2932   -39677.133    34.147121    233.05584 
    8850    135.05291    109.72154    137237.63   -37013.013    2652.1118   -39665.125      34.3661    232.42648 
    8900    135.37039     51.22634    137291.11   -37070.121    2658.3464   -39728.468    34.373674    232.97287 
    8950    133.36436    84.692778    137314.68   -37057.681    2618.9528   -39676.633    34.351894    229.52047 
    9000    133.70139   -149.16078    137338.57   -37084.215    2625.5712   -39709.786    34.498491    230.10051 
    9050    135.05275   -164.93393    137365.83   -37037.581    2652.1088    -39689.69    34.662953    232.42621 
    9100    133.19118   -95.260862    137274.47   -37054.071    2615.5519   -39669.623    34.911819    229.22243 
    9150    135.79387   -228.01871    137255.73   -37048.971    2666.6626   -39715.634    34.980342    233.70168 
    9200    132.84961   -157.81354    137294.99   -37078.053    2608.8445   -39686.898    35.089581     228.6346 
    9250    129.95909   -250.10239    137248.83   -37081.869    2552.0817   -39633.951    35.200862    223.66001 
    9300     136.0908   -233.24245    137222.29   -37092.252    2672.4935   -39764.745    35.305842    234.21269 
    9350    131.48025   -119.50684    137132.88   -37045.044    2581.9535   -39626.997    35.465408    226.27792 
    9400    135.42154   -166.66435    137143.06   -37006.972    2659.3508   -39666.323    35.589568    233.06089 
    9450    134.06484   -68.662733    137102.16   -37009.236    2632.7086   -39641.945    35.715155    230.72601 
    9500    133.15146    18.296412    137112.77   -37088.641    2614.7719   -39703.413    35.807924    229.15407 
    9550    131.79701    -147.0127    137178.91   -37099.985    2588.1739   -39688.158    36.163653    226.82307 
    9600    134.22772   -222.99683    137169.01   -37108.008     2635.907   -39743.915    36.210692    231.00632 
    9650    133.87779   -246.42868    137199.64   -37119.609    2629.0354   -39748.644      36.3347     230.4041 
    9700     130.0655   -86.154829    137179.38   -37112.836    2554.1713   -39667.008    36.527051    223.84314 
    9750    131.84894   -5.9855349       137233   -37115.261    2589.1937   -39704.455    36.746668    226.91244 
    9800    131.08704   -292.98882    137217.91   -37059.142    2574.2317   -39633.374     36.91997     225.6012 
    9850    136.06688   -44.117098    137279.68   -37040.536    2672.0238    -39712.56    37.056654    234.17153 
    9900    135.57867    -239.1937    137272.93   -37043.588    2662.4365   -39706.025    37.120532    233.33132 
    9950    135.35854   -312.16399    137197.02   -37024.466    2658.1137    -39682.58    37.344493    232.95247 
   10000    135.48536   -191.25247    137199.45   -36991.646    2660.6042   -39652.251    37.518649    233.17073 
   10050     136.0009   -160.96671    137265.25   -37023.603    2670.7281   -39694.331     37.79081    234.05798 
   10100    134.98994    -126.2608    137253.39   -37064.831    2650.8753   -39715.706    37.944415    232.31811 
   10150     130.4671    28.346547    137292.17   -37101.514    2562.0577   -39663.571    38.249382    224.53429 
   10200    130.02413   -301.47084    137335.48   -37087.823    2553.3588   -39641.182    38.462523    223.77193 
   10250    131.45448   -306.80096    137308.68   -37119.844    2581.4475   -39701.291    38.603351    226.23358 
   10300    134.89258   -141.23784       137257   -37087.275    2648.9635   -39736.239    38.685601    232.15056 
   10350    134.86613   -293.95198    137206.35   -37109.263    2648.4439   -39757.707    38.874578    232.10503 
   10400    134.51727   -260.33715    137099.57   -37117.698    2641.5932   -39759.291    39.043686    231.50464 
   10450    134.23978   -269.19196    137072.17   -37137.619     2636.144   -39773.763    39.202501    231.02709 
   10500    133.29368   -336.16171    136989.28   -37089.587    2617.5648   -39707.151    39.276459    229.39884 
   10550    134.34379   -45.285741    136906.49   -37096.318    2638.1865   -39734.505    39.382997    231.20609 
   10600    136.56917   -158.45396    136950.91   -37101.769    2681.8874   -39783.657    39.554428    235.03596 
   10650    135.23581   -263.41784    136914.94   -37108.199    2655.7035   -39763.903    39.803263    232.74125 
   10700    134.30984   -371.21066    136896.94   -37074.155    2637.5199   -39711.675    39.983836    231.14766 
   10750    137.43221   -1.1112937    136841.36   -37080.436    2698.8355   -39779.272    40.307839    236.52126 
   10800     132.5387    233.68244    136877.32   -37106.071    2602.7388    -39708.81    40.369493    228.09951 
   10850    131.52996    55.309829    136942.27   -37117.335    2582.9296   -39700.264    40.438961    226.36346 
   10900    135.35238   -325.23085     136970.4   -37116.516    2657.9927   -39774.509    40.373086    232.94187 
   10950    134.72034   -149.31585    136986.27   -37101.548    2645.5809   -39747.129    40.482225    231.85412 
   11000    136.30696   -112.70768    137074.04   -37112.225    2676.7384   -39788.963    40.487771    234.58471 
   11050    134.32772   -478.89492    137104.54   -37104.518    2637.8709   -39742.389    40.699079    231.17843 
   11100    134.07915   -304.95692    137093.97   -37084.069    2632.9896   -39717.059    40.718715    230.75064 
   11150    132.68784   -165.55463    137067.96   -37153.444    2605.6676   -39759.111    40.886297    228.35619 
   11200    132.28577   -394.70958    137052.73   -37147.892    2597.7719   -39745.663    41.055354    227.66422 
   11250    131.86485   -156.51684    137016.93   -37115.607    2589.5061   -39705.113    41.176365    226.93982 
   11300    134.49476   -127.22001    136979.14   -37115.906    2641.1511   -39757.057    41.512445     231.4659 
   11350    131.13443   -209.05228    136987.12   -37081.002    2575.1625   -39656.164    41.683004    225.68277 
   11400    131.27135   -165.20004    136919.55   -37045.554    2577.8511   -39623.405    41.898576     225.9184 
   11450    133.89653   -234.64286    136884.94   -37096.451    2629.4033   -39725.855    42.026651    230.43634 
   11500    131.62441   -130.06277     136879.4   -37084.697    2584.7845   -39669.481    42.054439    226.52603 
   11550    136.16149   -220.23394    136941.98   -37058.957    2673.8817   -39732.838    42.300334    234.33436 
   11600    134.03974   -405.40697     136979.3   -37097.239    2632.2156   -39729.454    42.591607    230.68281 
   11650    134.07209   -308.52197    136951.61   -37143.729    2632.8508    -39776.58    42.780933    230.73848 
   11700    132.17315    -325.4729    136902.39   -37163.428    2595.5603   -39758.988    43.022156     227.4704 
   11750    135.01761   -280.30208    136894.82   -37145.029    2651.4187   -39796.448    43.041748    232.36573 
   11800    132.23755   -244.22972     136910.1   -37151.638    2596.8251   -39748.464    43.218445    227.58125 
   11850    131.77712   -371.01604    136924.15   -37165.961    2587.7834   -39753.744    43.210605    226.78884 
   11900    131.69401   -81.579744    136875.36   -37158.151    2586.1513   -39744.302    43.298353    226.64581 
   11950    133.14395   -224.93994     136932.1   -37156.113    2614.6245   -39770.737    43.649348    229.14115 
   12000    133.77686   -195.38211    136927.12   -37121.079    2627.0533   -39748.132    43.745431     230.2304 
   12050    135.07483   -65.677882    136997.38   -37147.188    2652.5423    -39799.73    43.811647     232.4642 
   12100    133.43228   -306.29866    137002.05   -37129.118    2620.2866   -39749.404    44.028449    229.63737 
   12150    133.26453   -93.681498    137040.85    -37169.16    2616.9924   -39786.152    44.139376    229.34867 
   12200    133.84543   -353.64423    137014.43   -37187.319    2628.3999   -39815.719     44.25101     230.3484 
   12250    131.79249   -208.32297    136989.22   -37178.062    2588.0852   -39766.147    44.393175     226.8153 
   12300    131.94591   -127.65754    137036.82   -37213.267    2591.0979   -39804.365    44.469569    227.07933 
   12350    130.14634   -107.61326    137049.31   -37219.567    2555.7587   -39775.325    44.592226    223.98226 
   12400    132.84192     51.31898     137051.3   -37169.805    2608.6933   -39778.499    44.823351    228.62136 
   12450    132.11883   -280.13974    137003.36   -37184.568    2594.4937   -39779.062    44.867965    227.37692 
   12500    134.93101   -454.98048    136949.17   -37172.608    2649.7181   -39822.326    45.138617    232.21669 
   12550    132.33551   -168.45594    136963.64   -37165.817    2598.7488   -39764.566    45.327986    227.74984 
   12600    131.09446    142.45302    137122.51   -37207.081    2574.3776   -39781.459    45.585078    225.61398 
   12650    133.31556   -196.71829    137210.85   -37185.172    2617.9944   -39803.167    45.572893    229.43649 
   12700    136.32557   -55.896734    137228.47   -37138.239    2677.1038   -39815.343    45.676242    234.61673 
   12750    132.72808   -5.9155268    137284.62   -37187.644    2606.4578   -39794.102    45.900367    228.42544 
   12800    132.07428   -108.85834    137243.46   -37161.629    2593.6188   -39755.247    46.009852    227.30025 
   12850    132.27711   -29.589211     137236.3   -37150.258    2597.6018    -39747.86    46.027081    227.64932 
   12900    132.35411   -210.79204    137198.91   -37164.211    2599.1139   -39763.325    46.156727    227.78183 
   12950    134.20658   -56.005467    137177.19   -37128.058    2635.4919    -39763.55    46.238375    230.96994 
   13000     134.5558   -241.51856    137236.37   -37126.373    2642.3499   -39768.723    46.229081    231.57096 
   13050    131.93274   -230.33605    137241.28   -37148.474    2590.8393   -39739.313     46.34966    227.05666 
   13100    134.33059   -185.29389    137229.45   -37122.281    2637.9273   -39760.208    46.305751    231.18337 
   13150    134.30241   -275.99847    137229.81   -37102.862    2637.3738   -39740.236    46.593682    231.13486 
   13200     132.9734   -126.10195    137230.67   -37148.587    2611.2753   -39759.862    46.686079    228.84764 
   13250    132.59795    -168.9318    137224.58   -37129.806    2603.9024   -39733.708    46.801531    228.20149 
   13300    130.92909   -516.86023    137172.04   -37181.658    2571.1301   -39752.788    46.807727    225.32938 
   13350    134.97951   -101.65081     137136.8   -37192.666    2650.6706   -39843.336    46.898985    232.30017 
   13400    133.00365   -351.64078    137137.13   -37204.956    2611.8694   -39816.825    47.084542     228.8997 
   13450    133.91934   -314.05149    137048.76   -37195.558    2629.8513    -39825.41    47.349174    230.47561 
   13500    131.83679   -224.87128    137013.21   -37157.813    2588.9551   -39746.768    47.459248    226.89153 
   13550    135.45238   -67.982582    137016.57   -37107.852    2659.9565   -39767.809    47.861723    233.11397 
   13600     133.5509   -173.36748    137061.57   -37079.092     2622.616   -39701.708    47.977421    229.84152 
   13650     135.9142   -80.834375    137164.68   -37044.279    2669.0255   -39713.305    48.184966    233.90876 
   13700    132.70729   -124.32462    137252.75   -37032.337    2606.0495   -39638.386    48.610297    228.38966 
   13750    133.81756   -120.72438    137279.08   -37043.572    2627.8525   -39671.424    48.883523    230.30043 
   13800    132.25881   -229.40547    137309.32   -37088.912    2597.2426   -39686.155    49.041497    227.61783 
   13850    136.11331   -155.55078    137337.48   -37062.971    2672.9356   -39735.907    49.247284    234.25144 
   13900    136.53441    35.830794    137343.69   -37064.881    2681.2049   -39746.085     49.26439    234.97614 
   13950    133.32524   -309.82908    137345.31   -37094.353    2618.1846   -39712.537    49.556018    229.45316 
   14000    134.72033   -141.00684    137234.64   -37092.748    2645.5808   -39738.329    49.779302    231.85411 
   14050    133.62096   -266.45044    137178.16   -37119.754    2623.9919   -39743.746    49.965177    229.96209 
   14100    134.16432    30.218214    137193.81   -37112.308    2634.6621    -39746.97    50.248829    230.89721 
   14150    133.93609   -274.73995     137198.7   -37118.428    2630.1803   -39748.609      50.5711    230.50444 
   14200    133.24727   -39.701623    137112.68   -37040.037    2616.6535   -39656.691    50.600515    229.31897 
   14250    135.38575    51.006799    137116.56   -37093.038    2658.6481   -39751.686    50.758358    232.99931 
   14300    135.68993   -487.67843     137058.3   -37115.883    2664.6213   -39780.504    50.806442    233.52279 
   14350    134.55971   -109.24341    136992.18   -37083.775    2642.4265   -39726.201    51.078787    231.57768 
   14400    134.42126    75.598404    136974.69   -37071.075    2639.7078   -39710.783    51.086724    231.33941 
   14450    134.86656    1.7934731    137050.41   -37053.937    2648.4524    -39702.39    51.022247    232.10577 
   14500    134.53826   -105.91899    137054.09    -37075.11    2642.0054   -39717.116    50.957886    231.54077 
   14550    132.23339   -158.18654    137060.24   -37072.454    2596.7433   -39669.197    51.073054    227.57407 
   14600    134.90406    -444.3453     137047.2   -37058.144    2649.1888   -39707.333    51.270849    232.17031 
   14650    132.96596   -141.45871    136971.84   -37059.088    2611.1293   -39670.217    51.493674    228.83484 
   14700    134.72326   -257.55165       137048   -37082.181    2645.6383    -39727.82    51.781708    231.85915 
   14750    132.29327   -383.64693    137062.16   -37058.858    2597.9192   -39656.777    52.007394    227.67713 
   14800    132.59708   -271.64888    137116.59   -37110.045    2603.8854   -39713.931    52.122923    228.19999 
   14850    133.33964   -474.70446    137054.12    -37108.57    2618.4674   -39727.038    52.416134    229.47794 
   14900    132.79757   -228.07429    136924.54   -37107.955    2607.8225   -39715.778    52.600958    228.54504 
   14950    132.33687    -270.7416     136960.2   -37066.681    2598.7754   -39665.456    52.627921    227.75216 
   15000    133.09442   -181.12211    137028.75   -37051.162    2613.6519   -39664.814    52.608537    229.05592 
   15050    132.49985    -293.1078    136988.83   -37048.757    2601.9759   -39650.733    52.752558    228.03265 
   15100    134.07448   -188.54732    136935.69    -37090.38    2632.8978   -39723.277    52.990036     230.7426 
   15150    135.03747   -273.25164    136963.66   -37007.513    2651.8088   -39659.322    53.128733    232.39992 
   15200    133.22758   -454.56353    136970.85   -37065.985    2616.2668   -39682.252    53.443821    229.28509 
   15250    133.82011   -431.93469    136860.87   -37053.119    2627.9026   -39681.021    53.666713    230.30483 
   15300    132.41993   -62.045055    136840.71   -37041.214    2600.4066   -39641.621    53.751544    227.89512 
   15350    130.46166   -187.38748     136793.7   -37077.069    2561.9508    -39639.02    53.860445    224.52492 
   15400    131.84004   -166.74068    136841.68    -37068.61    2589.0189   -39657.629     53.90636    226.89712 
   15450    131.97027   -354.06877    136812.23    -37088.57    2591.5763   -39680.146    54.116675    227.12125 
   15500    130.90161   -51.443159    136928.62   -37117.071    2570.5903   -39687.661    54.357981    225.28207 
   15550    132.32285   -6.2445938    137017.01   -37128.767       2598.5   -39727.267    54.607507    227.72803 
   15600    132.54648   -324.99523    137057.69   -37074.499    2602.8916   -39677.391    54.861647     228.1129 
   15650    133.62312   -183.05921     137050.9   -37037.156    2624.0342    -39661.19    55.169286     229.9658 
   15700    134.87433   -166.45339    137084.14   -37032.323     2648.605   -39680.928    55.166156    232.11914 
   15750    133.76393    -82.54476    137117.49   -37003.796    2626.7993   -39630.596    55.320427    230.20814 
   15800    138.07523   -48.482502    137181.81   -37024.402    2711.4629   -39735.865     55.67999     237.6279 
   15850    135.50475   -375.67895    137151.35   -37052.639    2660.9849   -39713.624    55.809574     233.2041 
   15900    135.37365   -196.00638    137162.43   -37071.488    2658.4104   -39729.898    55.942002    232.97847 
   15950    131.24756   -207.73634    137071.67   -37139.874     2577.384   -39717.258    56.044542    225.87746 
   16000    135.11711   -203.89172    137030.39   -37068.494    2653.3726   -39721.867    56.112289    232.53697 
   16050      133.462   -157.03498    137104.84   -37096.767    2620.8703   -39717.638    56.352645    229.68853 
   16100    134.77275   -35.614491    137197.04   -37073.501    2646.6101   -39720.111    56.469731    231.94432 
   16150    134.26571   -422.53605    137213.39   -37037.231    2636.6533   -39673.884    56.466037    231.07172 
   16200    132.29373   -237.50926    137190.08   -37093.052    2597.9282   -39690.981    56.503469    227.67792 
   16250    134.54087   -314.71143    137140.72   -37083.932    2642.0566   -39725.989    56.655873    231.54526 
   16300    129.73122   -183.21906     137148.2    -37105.01    2547.6068   -39652.617    56.947386    223.26784 
   16350    134.98282   -397.79957    137183.03   -37096.997    2650.7355   -39747.732      57.0614    232.30586 
   16400    132.44405   -312.56613    137095.39   -37124.264    2600.8801   -39725.144    57.417475    227.93662 
   16450    131.07502   -438.67106    137093.12   -37108.433    2573.9958   -39682.428    57.686464    225.58052 
   16500    132.82065   -137.89433    137063.59   -37086.253    2608.2756   -39694.529      57.9904    228.58475 
   16550    134.39783   -319.27467    137091.55   -37045.999    2639.2477   -39685.246    58.497469    231.29909 
   16600    133.39782   -100.18432    137086.01   -37058.465      2619.61   -39678.075    58.827961    229.57807 
   16650    133.63004   -327.81441     137079.5   -37024.163    2624.1701   -39648.333    58.805465    229.97772 
   16700    132.98535   -264.61173    137071.12   -37073.117      2611.51   -39684.627    59.002985    228.86821 
   16750    135.53814   -240.75436    137074.64    -37029.03    2661.6406   -39690.671    59.078786    233.26156 
   16800      134.645   -197.83939    137078.22   -37060.596    2644.1016   -39704.698    59.141545    231.72447 
   16850    134.89921   -323.70645    137135.95   -37026.527    2649.0935    -39675.62    59.479615    232.16196 
   16900    134.71116   -192.45186    137095.48   -36988.151    2645.4007   -39633.552    59.383988    231.83833 
   16950     138.2845    54.976143    137188.67   -36953.298    2715.5725   -39668.871    59.204837    237.98806 
   17000     135.2099   -207.85865    137222.12   -36952.638    2655.1948   -39607.833    59.289237    232.69667 
   17050    136.46915    -432.2939    137194.45    -36944.27    2679.9234   -39624.193    59.287418    234.86384 
   17100    136.04238   -244.43296    137220.11   -37023.749    2671.5427   -39695.291    59.171366    234.12936 
   17150    134.85775   -149.32824    137215.01   -37052.069    2648.2794   -39700.348    59.232793    232.09061 
   17200    134.45239   -67.049393    137201.03   -37090.465    2640.3191   -39730.784    59.427875    231.39299 
   17250    133.79979   -88.551352    137192.76   -37056.334    2627.5035   -39683.838    59.518455    230.26985 
   17300    133.75254    9.1194207    137199.63   -37102.811    2626.5757   -39729.386    59.881772    230.18854 
   17350    133.12288   -123.18256    137112.25   -37111.411    2614.2107   -39725.622    60.258055    229.10489 
   17400    134.64858   -386.29933    137074.12   -37060.756    2644.1717   -39704.927    60.434805    231.73062 
   17450    135.03678   -46.595538    137039.19   -37103.575    2651.7952    -39755.37    60.542725    232.39873 
   17500    133.60356    159.89144     137076.7   -37157.937    2623.6501   -39781.587    60.662615    229.93214 
   17550     130.2218   -453.22346    137029.52   -37194.047    2557.2406   -39751.287    60.873689    224.11213 
   17600    134.58252   -275.94342    136928.96    -37162.84    2642.8746   -39805.714     61.08214    231.61694 
   17650     132.5595   -54.523588    137028.58   -37169.041    2603.1474   -39772.188    61.330895    228.13532 
   17700    133.94447   -369.71333    136989.82    -37119.39    2630.3447   -39749.735    61.545118    230.51885 
   17750      133.089   -245.91531    137013.32   -37128.647    2613.5455   -39742.193    61.720741    229.04659 
   17800    132.94357   -330.06961    136988.45   -37109.627    2610.6896   -39720.317    61.832442     228.7963 
   17850    129.62266    -14.99458    137005.07   -37152.966    2545.4749   -39698.441    61.798371      223.081 
   17900     134.6625   -335.52477    136980.37   -37141.053    2644.4451   -39785.498    61.696493    231.75458 
   17950    133.25757    32.381049    137028.55   -37122.726    2616.8558   -39739.582    61.741245     229.3367 
   18000    130.54038   -259.00129     137069.2   -37120.922    2563.4967   -39684.419    61.613152     224.6604 
   18050    133.62164   -175.49831    137203.21   -37100.948    2624.0051   -39724.953    61.735982    229.96325 
   18100    133.88079   -75.553994    137271.63   -37036.057    2629.0943   -39665.151    62.056648    230.40926 
   18150    134.32581   -240.96321    137266.82   -37037.338    2637.8333   -39675.171    62.240152    231.17513 
   18200    135.57142   -285.86143    137312.18   -37016.919    2662.2941   -39679.213    62.321769    233.31883 
   18250    133.27918   -314.29292    137360.28   -37091.634    2617.2802   -39708.914    62.386433    229.37389 
   18300    132.72422   -497.85789    137263.88   -37093.256    2606.3821   -39699.639    62.444473     228.4188 
   18350    133.56488   -347.70335    137232.55   -37082.735    2622.8906   -39705.626    62.575204    229.86558 
   18400    131.25888   -230.97168    137195.45   -37098.324    2577.6064    -39675.93    62.646702    225.89695 
   18450    133.59554   -307.37285    137242.49   -37085.032    2623.4927   -39708.525    62.654757    229.91835 
   18500    136.15509   -164.57895    137241.48    -37045.26    2673.7559   -39719.016    62.813258    234.32333 
   18550    133.00347   -377.52954    137223.25   -37045.601    2611.8658   -39657.467    63.095021    228.89939 
   18600    133.10257   -445.17095    137129.67   -37085.839    2613.8118   -39699.651    63.086813    229.06993 
   18650    131.56931   -271.59684    137096.98   -37106.038    2583.7024   -39689.741    63.396198     226.4312 
   18700    134.91423   -40.422139    136975.28    -37073.46    2649.3885   -39722.848     63.66566    232.18781 
   18750    135.95628   -270.15702    136936.36   -37030.665     2669.852   -39700.517    63.856501    233.98119 
   18800    134.77317   -38.612988    136914.22    -37063.38    2646.6185   -39709.998    63.915782    231.94505 
   18850    136.12085    80.361679    136964.59    -37021.28    2673.0837   -39694.363     63.88551    234.26442 
   18900    136.81132   -25.973544    136985.72   -36993.127    2686.6427   -39679.769    64.150636    235.45271 
   18950    133.04836   -324.71833    137009.73     -37012.1    2612.7475   -39624.847    64.267219    228.97665 
   19000    132.05069   -374.49429    136979.78   -37014.908    2593.1555   -39608.064    64.118583    227.25965 
   19050    132.25293   -289.28341    137003.37   -37020.169     2597.127   -39617.296    64.157008     227.6077 
   19100     136.4352    -191.0052    136983.91   -37002.644    2679.2567   -39681.901    64.364921    234.80541 
   19150    135.89495   -96.117591    136919.81    -36973.11    2668.6475   -39641.758    64.615984    233.87564 
   19200    138.48234   -256.77742    136869.22   -36992.553    2719.4576   -39712.011    64.784058    238.32854 
   19250    133.79864   -189.18704    136830.95   -37020.144     2627.481   -39647.625    64.737958    230.26788 
   19300    134.87638   -233.62731    136767.28   -37061.022    2648.6452   -39709.667    64.719205    232.12267 
   19350    135.59514   -158.89274     136734.7   -37091.398      2662.76   -39754.158     64.90635    233.35967 
   19400    134.66453   -164.85048    136745.41   -37044.633    2644.4851   -39689.118    65.090354    231.75808 
   19450    132.52985   -245.45549     136802.5   -37042.076     2602.565   -39644.641    65.175436    228.08428 
   19500    136.64739   -265.73973    136765.74   -37018.878    2683.4236   -39702.302    65.187497    235.17058 
   19550     132.4267   -246.90654    136757.01   -37022.002    2600.5394   -39622.542    65.278169    227.90676 
   19600    134.33859   -172.44259    136670.17   -37099.582    2638.0843   -39737.667    65.631794    231.19713 
   19650    131.82442   -270.21477    136559.29   -37128.077    2588.7121   -39716.789    66.027904    226.87023 
   19700    131.34231    -220.9557    136523.34     -37168.1    2579.2447   -39747.344    66.406288    226.04053 
   19750    129.76031   -301.68972    136540.84   -37202.527     2548.178   -39750.705    66.509387     223.3179 
   19800    130.50387   -151.25585    136602.06   -37198.247    2562.7797   -39761.027    66.577432    224.59756 
   19850    131.06143   -275.02457    136642.89   -37167.752    2573.7288    -39741.48    66.739751    225.55712 
   19900    131.96941   -212.90645    136647.05   -37140.626    2591.5594   -39732.185    66.786465    227.11977 
   19950     129.7373   -261.46189     136645.3   -37123.698    2547.7261   -39671.424    66.917378     223.2783 
   20000      129.391   -195.16249    136730.18   -37153.805    2540.9256    -39694.73    67.054256    222.68231 
   20050    130.30765   -297.39738    136844.34   -37108.147    2558.9265   -39667.073    67.310519    224.25988 
   20100    132.97071   -204.71809    136840.24   -37111.935    2611.2226   -39723.158    67.399754    228.84302 
   20150    134.06133   -67.425364    136846.94   -37089.153    2632.6397   -39721.792    67.386148    230.71997 
   20200    134.67571    -321.9951    136915.03   -37067.677    2644.7046   -39712.381    67.465115    231.77732 
   20250    133.08728    45.820245    136948.84   -37044.487    2613.5116   -39657.999     67.68705    229.04362 
   20300    132.78352   -427.50635    137007.76   -37084.949    2607.5465   -39692.496     68.14285    228.52085 
   20350    135.58163   -303.09833    137018.25   -37075.849    2662.4946   -39738.343    68.381249    233.33641 
   20400    135.28227   -491.91928    137043.37   -37026.132     2656.616   -39682.748    68.755991    232.82122 
   20450    134.92385   -342.69388    136954.64    -36970.46    2649.5774   -39620.037    68.979916    232.20436 
   20500    135.25043   -256.39139    136968.81   -36977.514    2655.9908   -39633.505    69.355216    232.76642 
   20550    134.59973   -455.37504    136834.22    -36967.31    2643.2125   -39610.522    69.753428    231.64656 
   20600    134.11552   -364.73905       136762   -36996.087    2633.7038   -39629.791    70.021216    230.81323 
   20650    134.15854   -346.37468    136779.24   -37028.771    2634.5486   -39663.319    70.553555    230.88727 
   20700    132.31008   -461.16326    136847.07   -37044.308    2598.2494   -39642.557    70.835131    227.70606 
   20750    132.93122    -522.8508     136793.4   -37079.827     2610.447   -39690.274    71.036662    228.77504 
   20800    130.53834   -539.29811    136723.77   -37087.163    2563.4566   -39650.619    71.377623    224.65689 
   20850     133.3853   -279.96565    136615.17   -37081.663    2619.3639   -39701.027    71.574381    229.55651 
   20900    127.63898   -211.59339    136552.63   -37074.289    2506.5203   -39580.809    71.741881    219.66709 
   20950    133.53263   -148.22313     136569.8   -37052.435    2622.2572   -39674.692    71.686489    229.81007 
   21000    131.80128   -124.56551    136582.77    -37042.71    2588.2577   -39630.968    71.598045    226.83041 
   21050    131.45052    -209.7644    136581.41   -37073.997    2581.3696   -39655.367    71.616263    226.22676 
   21100    132.91697   -189.65639    136545.41    -37040.92    2610.1672   -39651.087    71.590188    228.75052 
   21150    132.75157   -265.37019    136598.29   -37044.333    2606.9191   -39651.252    71.771376    228.46587 
   21200    132.65857   -308.97555    136555.32   -37074.664    2605.0929   -39679.757    71.959693    228.30582 
   21250    131.08184   -334.90443    136550.49    -37042.92    2574.1298    -39617.05    72.029367    225.59226 
   21300     134.1854   -294.96115    136520.08   -37070.121    2635.0761   -39705.197    72.087523     230.9335 
   21350    132.12433   -165.52257    136513.81   -37050.996    2594.6016   -39645.598    72.100946    227.38638 
   21400    131.68393   -397.07295    136466.27   -37051.639    2585.9533   -39637.593    72.247159    226.62846 
   21450    133.32787   -8.3672612    136546.02   -37026.923    2618.2363    -39645.16     72.15741    229.45768 
   21500    133.50155   -142.96479    136606.14   -37021.357     2621.647   -39643.004    72.385313    229.75659 
   21550    135.46814   -155.63733    136664.07    -37051.12     2660.266   -39711.386    72.445401    233.14109 
   21600    134.45903   -314.74302    136748.37   -37028.369    2640.4495   -39668.819    72.624807    231.40441 
   21650    135.19011     -187.447    136821.74   -37009.789    2654.8062   -39664.595     72.82841    232.66261 
   21700    133.98211   -281.66334    136894.41     -37004.6    2631.0839   -39635.684    72.973038    230.58363 
   21750     135.3239   -184.89099    136948.37    -36964.61    2657.4335   -39622.043     73.03029    232.89286 
   21800    135.94191   -342.12673    136986.49   -36989.644    2669.5697   -39659.214    73.088041    233.95645 
   21850    132.35551   -362.27929     137016.7    -37065.41    2599.1415   -39664.552    73.223788    227.78425 
   21900     132.6764   -280.61413    137105.34   -37047.412     2605.443   -39652.855    73.418453    228.33651 
   21950    132.33772   -507.01102    137056.56   -37079.112    2598.7922   -39677.904    73.309526    227.75364 
   22000    133.69995   -208.49471     137057.4   -37027.901    2625.5431   -39653.444    73.692844    230.09804 
   22050    132.62697   -173.81805     137073.3   -37067.983    2604.4724   -39672.456    74.115732    228.25144 
   22100     132.5605   -278.05801    137075.32     -37078.1     2603.167   -39681.267    74.404073    228.13704 
   22150    130.82837    -297.3315    137151.29   -37137.774    2569.1522   -39706.927    74.558849    225.15604 
   22200    134.14472    55.580666    137198.71   -37101.777    2634.2771   -39736.054    74.558796    230.86348 
   22250    133.79715   -286.92696     137239.1   -37129.192    2627.4518   -39756.644    74.871769    230.26532 
   22300      131.476   -387.04371    137320.24   -37135.419    2581.8701   -39717.289    75.043536    226.27061 
   22350     132.5943   -252.72009    137253.38   -37104.092    2603.8306   -39707.923    75.270826     228.1952 
   22400    133.15274   -255.09639    137166.28    -37113.56    2614.7972   -39728.357    75.255032    229.15629 
   22450    133.25696   -126.88311    137170.21   -37127.472    2616.8438   -39744.316    75.405864    229.33565 
   22500    132.67776   -108.27812    137246.94   -37150.009    2605.4696   -39755.478      75.7121    228.33883 
   22550    133.23365   -378.01832    137286.71   -37104.885    2616.3859   -39721.271    75.775316    229.29552 
   22600    131.25292   -329.43775    137379.34   -37059.032    2577.4892   -39636.521    75.811133    225.88668 
   22650    135.86403   -436.69236     137317.8   -37056.869    2668.0402    -39724.91    75.988639    233.82241 
   22700    134.52881   -407.98907    137305.37   -37081.263    2641.8198   -39723.083    75.962729     231.5245 
   22750    134.92456   -179.60716     137328.9   -37056.035    2649.5914   -39705.627    76.072607     232.2056 
   22800    135.03918   -149.41124    137388.06   -37027.439    2651.8422   -39679.281    76.151427    232.40285 
   22850    133.67248   -321.84075    137380.92   -37084.657    2625.0036   -39709.661    76.263333    230.05076 
   22900    132.83674   -607.13402    137355.18   -37088.796    2608.5917   -39697.387    76.381318    228.61245 
   22950     131.8867    -354.2042     137362.9   -37123.973    2589.9351   -39713.908    76.542466    226.97742 
   23000    133.27976   -231.89123    137371.06   -37110.822    2617.2915   -39728.114    76.617725    229.37489 
   23050    133.12788   -414.75073    137323.01   -37113.941     2614.309    -39728.25    76.737852     229.1135 
   23100    131.44886   -331.06723     137275.6   -37103.538     2581.337   -39684.875    76.961147     226.2239 
   23150    132.51756   -279.70523     137238.3   -37111.752    2602.3238   -39714.076    77.171437    228.06314 
   23200    135.04811   -308.74695     137151.2   -37090.695    2652.0175   -39742.712    77.212623    232.41821 
   23250    134.43756   -135.29458    137069.64   -37053.599    2640.0278   -39693.627    77.345557    231.36745 
   23300    133.04025   -296.04886    137092.44    -37032.31    2612.5881   -39644.898    77.807415    228.96269 
   23350    133.54654    27.582404    137077.75   -37070.374    2622.5304   -39692.905    77.769418    229.83401 
   23400    136.07667   -46.823148    137206.68   -36987.438     2672.216   -39659.654    77.973195    234.18837 
   23450     136.7654   -138.08551     137328.2   -36952.431     2685.741   -39638.172    78.132342    235.37368 
   23500    137.75097   -355.07543    137378.28   -36976.215    2705.0953    -39681.31    78.212956    237.06986 
   23550      134.579   -411.22155     137292.5   -37005.579    2642.8055   -39648.385    78.422085    231.61089 
   23600    134.69221   -156.39194     137347.2   -37034.437    2645.0286   -39679.466    78.605122    231.80571 
   23650    133.45379   -389.65517    137342.69   -37044.552    2620.7091   -39665.261    78.516148     229.6744 
   23700    134.65376   -285.72266     137288.2   -37023.502    2644.2736   -39667.776    78.557152    231.73955 
   23750    136.41143   -247.86265    137259.45   -37015.332    2678.7898   -39694.122    78.680252    234.76449 
   23800    135.86221    -200.7886    137233.23     -36978.9    2668.0046   -39646.905    78.699939    233.81929 
   23850    132.57427   -142.80468    137181.33   -37030.251    2603.4374   -39633.688     78.98443    228.16074 
   23900    136.43944   -236.26947    137181.44   -37031.931    2679.3399   -39711.271     79.29101     234.8127 
   23950    136.21868   -80.601019    137306.86   -37020.239    2675.0047   -39695.244    79.547406    234.43277 
   24000    132.79416   -101.22228    137379.54   -37077.757    2607.7555   -39685.513    79.699337    228.53916 
   24050    135.26911   -201.38546    137427.07   -37020.828    2656.3574   -39677.186    80.329332    232.79855 
   24100    133.04561   -76.124932    137453.49   -37054.917    2612.6933    -39667.61    80.603362     228.9719 
   24150    133.36855    114.20628     137526.4   -37054.343    2619.0351   -39673.378    80.732981    229.52769 
   24200    135.52101   -122.57007     137718.4   -37049.874    2661.3043   -39711.178    80.727277    233.23209 
   24250    135.06592    -1.244586    137820.86   -37082.076    2652.3674   -39734.443    80.903968    232.44888 
   24300    134.22829   -520.32642    137962.11   -37036.365    2635.9183   -39672.284    81.159225    231.00731 
   24350    136.07648   -119.89571    137985.62   -37021.859    2672.2122   -39694.071    81.216685    234.18804 
   24400    135.10063   -219.70968    138099.15   -37060.673    2653.0491   -39713.723    81.487092    232.50861 
   24450    135.80672   -91.695771     138098.1   -37064.194    2666.9149   -39731.109    81.570499    233.72379 
   24500    134.44925   -143.65187    138082.16   -37086.853    2640.2574    -39727.11    81.774888    231.38757 
   24550    136.23759   -45.641404    138110.34   -37088.177    2675.3761   -39763.553    82.104918    234.46532 
   24600    135.11002   -164.72873    138108.95   -37034.744    2653.2334   -39687.978     82.42734    232.52477 
   24650    136.37176   -81.822453    138034.16   -37028.595    2678.0109   -39706.606    82.774619    234.69623 
   24700    132.83315   -350.09072    138103.94   -37070.463    2608.5211   -39678.984    83.001297    228.60626 
   24750     132.1223    -266.0389    138039.64   -37066.482    2594.5619   -39661.044    83.046022     227.3829 
   24800    135.16874   -322.84204    138105.31    -37050.54    2654.3865   -39704.927     83.35501    232.62583 
   24850    133.77532   -87.402741    138069.83   -37076.575    2627.0231   -39703.598    83.588612    230.22774 
   24900    133.12952    -390.5891    138181.37   -37117.938    2614.3411   -39732.279    83.755697    229.11631 
   24950    132.68092   -495.11025    138085.99   -37140.004    2605.5317   -39745.535    83.819404    228.34427 
   25000    134.38675    -257.0975    138051.95   -37144.128    2639.0302   -39783.158    83.873948    231.28002 
   25050    131.52128   -262.09011     137943.6   -37144.326    2582.7592   -39727.085    83.811841    226.34854 
   25100     135.3182   -461.24778    137828.09   -37113.539    2657.3214   -39770.861    83.750424    232.88304 
   25150    133.09241   -344.30999    137750.02   -37150.575    2613.6125   -39764.187    83.649937    229.05246 
   25200    133.91316    -547.2505    137739.13   -37176.946    2629.7299   -39806.676    83.649576    230.46496 
   25250    133.57478   -116.02647    137806.69   -37124.753    2623.0849   -39747.838    83.612195    229.88261 
   25300    136.17911   -497.32682    137805.85    -37099.35    2674.2277   -39773.578    83.652285    234.36468 
   25350     133.4923   -291.67262    137737.23   -37112.937    2621.4653   -39734.402     83.87517    229.74067 
   25400    133.55596   -113.68426    137733.78   -37153.743    2622.7154   -39776.459    83.909073    229.85022 
   25450    136.40614   -658.39222    137713.85   -37121.521    2678.6861   -39800.207    84.002537     234.7554 
   25500    137.84379   -311.55865    137669.14   -37107.548    2706.9181   -39814.466    84.118551     237.2296 
   25550    137.69118   -194.04635    137647.67   -37151.698    2703.9211   -39855.619    84.101011    236.96695 
   25600    133.50266   -360.55473    137713.58   -37173.982    2621.6687   -39795.651    84.250745     229.7585 
   25650    132.88895   -110.61249    137779.17   -37213.773     2609.617    -39823.39    84.250058     228.7023 
   25700    133.58406    -249.2499    137809.49   -37197.906    2623.2672   -39821.173    84.295166    229.89859 
   25750    134.46709   -135.33583     137792.1   -37145.111    2640.6078   -39785.719    84.586823    231.41829 
   25800    134.87649   -144.66326    137777.91   -37082.379    2648.6475   -39731.027    84.718883    232.12287 
   25850    134.42881   -407.38978    137835.56   -37140.224    2639.8561    -39780.08    85.033549     231.3524 
   25900    135.21739   -470.67562    137835.98   -37145.744    2655.3419   -39801.086    85.255824    232.70955 
   25950    131.81569   -228.21908    137783.94   -37157.521    2588.5408   -39746.062    85.251508    226.85522 
   26000    134.19481    -268.5797    137776.97   -37160.607    2635.2608   -39795.867    85.243792    230.94968 
   26050    134.97526   -66.631451    137709.23   -37141.815    2650.5869   -39792.402    85.448191    232.29284 
   26100    134.13712   -374.88527    137746.12    -37165.53    2634.1279   -39799.658    85.648794     230.8504 
   26150    135.70226   -313.52524    137775.62   -37126.233    2664.8634   -39791.097    85.888011    233.54401 
   26200    133.52565   -420.14587    137711.11   -37112.876    2622.1201   -39734.996    86.108788    229.79805 
   26250    132.29599   -171.19406    137703.12   -37073.673    2597.9726   -39671.646    86.448054    227.68181 
   26300    131.98025   -492.72355    137680.79   -37099.102    2591.7723   -39690.875    86.840617    227.13843 
   26350    134.62708   -434.00747    137556.34   -37073.891    2643.7496   -39717.641    87.124722    231.69363 
   26400    135.24841   -356.61641    137518.22   -37057.337     2655.951   -39713.288    87.355447    232.76294 
   26450    137.43584     -104.332     137427.3   -36999.249    2698.9069   -39698.156     87.70351    236.52752 
   26500    135.77298    -104.0517    137492.14   -37063.476    2666.2522   -39729.728    87.747171    233.66572 
   26550    138.10487   -199.18879    137465.22   -37091.058    2712.0449   -39803.103    87.796567    237.67891 
   26600     133.3791   -515.51783    137373.43   -37137.806    2619.2422   -39757.049    87.981799    229.54584 
   26650    136.29434    -84.95146    137325.71   -37100.996    2676.4905   -39777.486    88.265001    234.56298 
   26700    131.80025   -227.48005    137346.79   -37174.988    2588.2375   -39763.225    88.622932    226.82864 
   26750    130.21138   -25.185403     137399.1    -37139.86    2557.0359   -39696.896    88.955314    224.09419 
   26800    130.79719   -125.53186    137463.82   -37136.628    2568.5399   -39705.167    88.931503    225.10238 
   26850    132.09892    -157.6618    137518.96    -37137.85    2594.1027   -39731.953    89.009588    227.34266 
   26900    133.10979   -2.1561273    137502.72   -37128.982    2613.9537   -39742.936    89.096005    229.08237 
   26950    134.85873   -280.76884    137504.56   -37170.444    2648.2987   -39818.743    89.290491     232.0923 
   27000    132.22914    -244.3193     137464.6   -37166.066    2596.6598   -39762.726    89.394878    227.56676 
   27050    132.62676   -239.93664    137415.35   -37126.667    2604.4682   -39731.135    89.643288    228.25107 
   27100    132.73222   -356.48021    137366.19   -37124.801    2606.5392    -39731.34    89.993941    228.43257 
   27150     131.9928    -208.6087    137406.87   -37130.869    2592.0187   -39722.887    90.350186    227.16002 
   27200    131.46355   -252.14833    137379.62   -37156.843    2581.6254   -39738.468    90.606125    226.24917 
   27250    134.73598   -433.70275    137381.77    -37071.23    2645.8881   -39717.118    90.803911    231.88104 
   27300    132.13712   -47.583355    137358.65   -37112.219    2594.8528   -39707.072    91.005312    227.40839 
   27350    134.39052   -278.70654    137230.66   -37135.379    2639.1041   -39774.483    91.114876     231.2865 
   27400    135.01196   -256.65797    137177.91   -37088.177    2651.3078   -39739.485    91.557308    232.35601 
   27450    135.06348   -422.35858    137196.35   -37139.302    2652.3194   -39791.621    91.792517    232.44467 
   27500    137.42072   -197.77158    137037.39   -37082.642    2698.6099   -39781.252    91.806875    236.50148 
   27550    133.48535   -251.69493    137076.07   -37126.976    2621.3288   -39748.305    91.996638    229.72871 
   27600    133.89873   -46.212478    137076.96   -37102.238    2629.4466   -39731.684    92.455723    230.44014 
   27650    134.26022   -261.71018    137046.52   -37132.699    2636.5454   -39769.244    92.638517    231.06226 
   27700    133.72492   -8.9456173    137045.99   -37131.831    2626.0334   -39757.864    92.929858    230.14101 
   27750    134.84697   -404.18893    137057.68   -37125.758    2648.0677   -39773.826    92.777726    232.07206 
   27800    136.15691   -172.75187    137066.65   -37084.101    2673.7918   -39757.893    92.992265    234.32647 
   27850    137.64394   -97.481911    137068.69   -37065.271    2702.9933   -39768.264    93.173772    236.88565 
   27900    134.46394   -427.68784    137098.37   -37075.923     2640.546   -39716.469    93.177712    231.41287 
   27950    134.03746   -271.33015    136994.34   -37065.765    2632.1709   -39697.936    93.433469    230.67889 
   28000    136.21982    -21.00042    137030.67   -37044.275    2675.0272   -39719.302    93.487215    234.43474 
   28050    134.48843   -187.49166    137022.66   -37069.597    2641.0268   -39710.624    93.412338    231.45501 
   28100    134.21906   -103.58206    137070.44     -37099.4    2635.7371   -39735.137      93.4169    230.99143 
   28150    135.83326   -48.747675    137148.63   -37061.827    2667.4361   -39729.263    93.681519    233.76947 
   28200    133.81615   -94.283506    137204.61     -36990.2     2627.825   -39618.025    93.372362    230.29802 
   28250    135.06156   -144.56745    137248.42   -37032.861    2652.2817   -39685.143    93.199455    232.44137 
   28300    133.20548   -101.53469    137300.31   -37036.748    2615.8328   -39652.581    93.311202    229.24705 
   28350    134.94247   -283.60191    137277.19   -37032.426    2649.9431   -39682.369    93.695263    232.23641 
   28400    137.43934   -493.17442    137209.18   -37007.794    2698.9755    -39706.77    94.206498    236.53353 
   28450    135.34667   -27.029832    137225.66   -37072.717    2657.8807   -39730.598    94.438841    232.93205 
   28500    132.89214   -131.43004    137349.33   -37100.449    2609.6797   -39710.128    94.603277     228.7078 
   28550    132.15776   -318.72092     137401.7   -37090.777    2595.2581   -39686.036     94.78004    227.44391 
   28600    136.84232   -379.93225    137389.07   -37070.636    2687.2515   -39757.888    94.784326    235.50606 
   28650    134.43816   -227.75405    137378.68   -37052.004    2640.0397   -39692.044     94.83899    231.36849 
   28700    137.39201   -259.06568     137255.2   -37021.776     2698.046   -39719.822    95.313476    236.45207 
   28750    136.94293    41.325093    137285.19   -36968.362    2689.2273   -39657.589    95.431495    235.67922 
   28800    138.30976   -65.138956    137347.18   -36997.169    2716.0685   -39713.238    95.495077    238.03153 
   28850    133.12702   -235.83103    137375.22   -37012.926    2614.2922   -39627.218    95.546821    229.11203 
   28900    132.78002   -258.70013    137256.67   -37129.805    2607.4777   -39737.282    95.853002    228.51482 
   28950    132.77893   -226.96583    137235.29   -37148.641    2607.4565   -39756.098    96.055744    228.51296 
   29000    134.00099   -260.98985    137201.52   -37175.694    2631.4548   -39807.149    95.975625    230.61613 
   29050    130.23394   -214.21166    137158.54   -37209.056    2557.4791   -39766.535    96.130448    224.13303 
   29100     130.2348    45.771735    137243.06   -37190.375    2557.4958   -39747.871    96.388319     224.1345 
   29150    129.76536    -358.5505    137273.96   -37218.184    2548.2772   -39766.461    96.671046    223.32659 
   29200    130.53191   -38.259907     137256.5   -37182.238    2563.3304   -39745.568    96.852543    224.64582 
   29250    131.09788   -189.09813    137277.73   -37275.344    2574.4446   -39849.789    97.246583    225.61986 
   29300    132.18677   -336.61145    137297.11   -37272.228    2595.8279   -39868.056    97.347986    227.49385 
   29350    131.76976   -244.17459    137350.92   -37263.591    2587.6388    -39851.23    97.409501    226.77618 
   29400    131.91582   -207.32855    137349.93   -37254.355    2590.5069   -39844.862    97.485881    227.02753 
   29450    130.92277   -354.04987    137387.71   -37200.371    2571.0059   -39771.376    97.577193    225.31849 
   29500    132.27683   -209.84389    137465.93   -37216.064    2597.5964    -39813.66    97.733979    227.64884 
   29550    132.76484   -80.001692    137549.99   -37235.012    2607.1798   -39842.192    97.990284    228.48871 
   29600    133.68069   -248.71651    137537.95   -37219.521    2625.1648   -39844.685     98.36791    230.06489 
   29650    134.82974   -168.02892    137571.29   -37249.291    2647.7293   -39897.021    98.627829     232.0424 
   29700    131.90733   -13.521381    137617.59   -37182.795    2590.3403   -39773.136    98.884466    227.01293 
   29750    135.03848   -251.98583     137663.1   -37156.677    2651.8285   -39808.506    99.303403    232.40165 
   29800    135.70079   -222.26702    137754.32   -37145.939    2664.8346   -39810.773    99.428863    233.54148 
   29850    133.09148   -364.16263    137791.96   -37139.455    2613.5941    -39753.05    99.775597    229.05085 
   29900    132.47041   -343.93654    137806.68   -37152.725    2601.3978   -39754.123    100.12067    227.98198 
   29950     136.2223   -279.90705    137733.42   -37119.654    2675.0759    -39794.73    100.21684    234.43901 
   30000    134.31516   -402.02245    137697.19   -37114.347    2637.6243   -39751.972    100.41186    231.15681 
   30050    132.62171   -369.28081    137700.05   -37102.594     2604.369   -39706.963    100.31555    228.24238 
   30100    132.42892   -256.29978    137643.86    -37085.05    2600.5831   -39685.633    100.48502    227.91059 
   30150    134.93656   -36.180738    137691.43   -37023.036     2649.827   -39672.863    100.70066    232.22624 
   30200    137.67784   -292.71284    137695.22   -37002.695    2703.6592   -39706.354    100.93008      236.944 
   30250    133.95721   -370.44529    137708.33   -37022.886    2630.5949   -39653.481     100.9834    230.54078 
   30300     134.2913   -277.37533    137804.46   -37017.806    2637.1557   -39654.962    101.24805    231.11575 
   30350    136.83639   -334.47053     137882.8   -37013.647    2687.1351   -39700.782    101.24232    235.49586 
   30400     133.1075   -223.42421    137895.39   -37036.248    2613.9088   -39650.157      101.483    229.07843 
   30450    134.40477   -278.00452    137801.56     -37041.9    2639.3839   -39681.284    101.56774    231.31103 
   30500    134.86204   -354.62956    137694.18    -37021.85    2648.3636   -39670.213    101.61868    232.09799 
   30550    134.78835   -272.56447    137707.07   -36958.365    2646.9165   -39605.282      101.534    231.97116 
   30600    137.11185   -426.81948    137613.54   -36974.572    2692.5444   -39667.117    101.71427    235.96992 
   30650    135.57159    -282.5178    137575.12   -37051.537    2662.2976   -39713.834    102.05789    233.31914 
   30700    133.23148   -460.65632     137564.6   -37086.059    2616.3435   -39702.403    102.30664     229.2918 
   30750    132.45366   -122.62732    137647.61   -37159.177    2601.0688   -39760.246    102.46588    227.95316 
   30800    132.97663    41.586271    137712.54   -37121.008    2611.3387   -39732.347     102.8937    228.85319 
   30850    135.22956   -97.010761    137845.45   -37099.795    2655.5809   -39755.376    103.16925     232.7305 
   30900    131.61113   -349.31311    137836.21   -37118.691    2584.5236   -39703.215    103.70597    226.50317 
   30950    133.39007     27.45154    137819.08   -37147.513    2619.4578    -39766.97    103.82895    229.56473 
   31000    134.64048    87.417159    137825.59   -37125.503    2644.0127   -39769.516    104.03535    231.71668 
   31050    131.07093   -220.23402    137922.59   -37162.192    2573.9154   -39736.107    104.08821    225.57348 
   31100    132.10686   -224.24868     137971.7    -37192.75    2594.2586   -39787.009    104.22492    227.35633 
   31150    134.75927   -252.57172       137982   -37158.497    2646.3455   -39804.842     104.4025    231.92113 
   31200    134.44852   -204.92781    137895.32   -37131.907     2640.243    -39772.15    104.39359    231.38632 
   31250    133.32152   -295.86547    137905.58   -37046.523    2618.1115   -39664.635    104.65099    229.44675 
   31300    136.77886    -295.8849    137935.83    -37050.26    2686.0054   -39736.265    104.99703    235.39685 
   31350    133.87642   -359.85777     137942.2   -37041.951    2629.0084    -39670.96       105.11    230.40173 
   31400    134.22346   -173.61233    137876.62   -37099.211    2635.8235   -39735.034     105.1236    230.99899 
   31450    133.94466   -35.980936    137883.54   -37071.939    2630.3485   -39702.288    105.02707    230.51918 
   31500    133.98434   -467.11045     137811.2   -37126.606    2631.1277   -39757.734    105.24775    230.58746 
   31550    134.29645   -211.90136    137823.97   -37142.147    2637.2569   -39779.404    105.20413    231.12462 
   31600    135.52479   -331.42319    137787.77   -37139.259    2661.3785   -39800.638    105.53203     233.2386 
   31650    134.23114   -89.444909    137788.48   -37136.195    2635.9743   -39772.169    105.65057    231.01221 
   31700    133.00178   -254.11898    137794.29   -37092.892    2611.8327   -39704.724    105.82919    228.89648 
   31750    134.31597   -266.11409     137676.4   -37144.063    2637.6401   -39781.703    106.11483     231.1582 
   31800      133.587   -202.19108    137675.59   -37138.816    2623.3249   -39762.141    106.30676    229.90364 
   31850    134.02526   -36.324382    137724.99   -37145.034    2631.9313   -39776.966    106.37806    230.65789 
   31900    133.68518   -567.59313    137657.23    -37177.52    2625.2529   -39802.773     106.7261    230.07261 
   31950    134.78819    -181.6443    137529.94   -37107.355    2646.9135   -39754.269    107.01936     231.9709 
   32000     132.2262   -302.92973    137556.39   -37125.664    2596.6021   -39722.266    107.28579     227.5617 
   32050    132.40484   -95.707637    137486.84   -37149.422    2600.1101   -39749.532    107.53603    227.86914 
   32100    133.13529   -355.80856    137441.93   -37146.044    2614.4544   -39760.498    107.95621    229.12624 
   32150    130.92602   -241.52098    137349.08   -37158.499    2571.0698   -39729.568    108.23806     225.3241 
   32200    135.22636   -253.65973    137307.83   -37159.213    2655.5181   -39814.731    108.43346      232.725 
   32250    133.40568   -74.062553    137382.63    -37162.42    2619.7643   -39782.184    108.56577     229.5916 
   32300    131.28773   -43.823659    137453.98   -37170.403    2578.1729   -39748.576    108.65358    225.94659 
   32350    133.35002   -135.86253    137477.55   -37194.084    2618.6713   -39812.755     108.6352    229.49581 
   32400    132.55155   -197.48285    137462.71   -37134.145    2602.9913   -39737.136    108.61887    228.12164 
   32450    132.40256    15.975998    137554.38   -37147.812    2600.0654   -39747.877    108.68415    227.86522 
   32500    132.10107   -45.835233    137596.57   -37218.618    2594.1448   -39812.763    108.84722    227.34635 
   32550     131.4369   -316.28514    137512.44    -37166.79    2581.1022   -39747.892    108.70338    226.20332 
   32600    135.05394   -79.749931    137489.19   -37142.663    2652.1322   -39794.796    108.65497    232.42826 
   32650    132.92231   -324.35418    137544.99   -37149.554    2610.2721   -39759.826    109.09515    228.75971 
   32700    134.01456   -304.54652    137532.18   -37139.094    2631.7213   -39770.815    109.21596    230.63949 
   32750    133.62776   -62.761731    137547.94   -37130.928    2624.1254   -39755.054    109.19545     229.9738 
   32800    133.27168   -283.12163    137530.35    -37114.74    2617.1329   -39731.873    109.19274    229.36099 
   32850    134.52191   -276.73757     137482.1   -37142.905    2641.6843   -39784.589     109.4745    231.51263 
   32900    132.48295   -134.75394    137485.56   -37162.072     2601.644   -39763.716     109.5585    228.00356 
   32950    133.93005   -61.807054    137519.33   -37195.394    2630.0616   -39825.456    109.82052    230.49404 
   33000    134.18056    21.958457    137546.09   -37192.755     2634.981   -39827.736    109.85557    230.92516 
   33050    132.24974   -146.66202    137614.74   -37194.527    2597.0645   -39791.591    109.98489    227.60222 
   33100    129.69403   -229.45134    137555.68       -37214    2546.8764   -39760.876    110.41074    223.20383 
   33150    132.52859   -310.62172    137526.02   -37224.503    2602.5404   -39827.043    110.58728    228.08212 
   33200    132.85074   -194.42341    137455.48   -37205.132    2608.8666   -39813.999    110.75661    228.63654 
   33250    132.34412    97.984375    137525.81   -37154.974    2598.9177   -39753.892    110.82043    227.76464 
   33300    135.40562   -342.91849     137547.5   -37206.812    2659.0383   -39865.851    110.74601     233.0335 
   33350    132.93495   -306.03679    137517.35   -37238.509    2610.5202    -39849.03    111.06655    228.78146 
   33400    132.19453   -240.87656    137489.29   -37216.702    2595.9803   -39812.682     111.0644    227.50721 
   33450    131.05566   -500.90164     137510.4   -37266.805    2573.6156    -39840.42    111.22543     225.5472 
   33500    131.22777   -146.65715    137436.92   -37282.666    2576.9955   -39859.661    110.95368    225.84341 
   33550    132.65883   -409.69419    137389.28   -37228.329    2605.0979   -39833.427    111.20725    228.30626 
   33600    129.87602   -116.45764    137398.49   -37238.702    2550.4503   -39789.153    111.60509    223.51704 
   33650    132.28764    -419.6368    137476.67   -37241.094    2597.8087   -39838.903    111.75014    227.66745 
   33700    129.46313   -279.40208    137437.14   -37211.899    2542.3422   -39754.241    111.57548    222.80646 
   33750    129.94142   -16.146067    137430.94   -37280.673    2551.7346   -39832.407    111.91813    223.62959 
   33800    131.77659   -151.24136    137445.36    -37212.33    2587.7729   -39800.103    111.92364    226.78793 
   33850    128.62354   -271.99614     137459.5   -37240.496    2525.8547   -39766.351    111.96986    221.36152 
   33900    134.50952   -331.77859    137453.87   -37147.409    2641.4411    -39788.85    112.29002    231.49131 
   33950    133.33773   -206.14673    137467.22    -37152.68    2618.4298    -39771.11    112.51092    229.47465 
[...]
   92000    131.72467   -329.13747    137800.61   -37102.119    2586.7533   -39688.872     273.1064    226.69857 
   92050    134.05124    -218.1693    137729.68   -37080.019    2632.4415    -39712.46    272.98567     230.7026 
   92100    136.19019   -214.35537    137713.17   -37058.155    2674.4453   -39732.601    273.08277    234.38374 
   92150    133.72883   -211.86667     137724.9   -37057.249    2626.1101   -39683.359    272.91859    230.14773 
   92200    135.30121   -191.72994    137713.74   -37087.549    2656.9878   -39744.536    273.10573     232.8538 
   92250    132.16113    -431.2802    137626.95   -37071.631    2595.3244   -39666.955     273.4429    227.44972 
   92300    133.05793   -305.91337    137545.45   -37064.665    2612.9353     -39677.6    273.04227    228.99311 
   92350     134.5624   -314.04802    137561.39   -37029.428    2642.4794   -39671.908      273.264    231.58231 
   92400    135.16628   -260.83599    137590.91   -37027.259    2654.3382   -39681.597    273.29963     232.6216 
   92450    137.52911   -205.01223    137586.59   -37032.456    2700.7384   -39733.194    273.80865    236.68802 
   92500    135.11682   -196.91406    137571.09   -36989.704     2653.367   -39643.071    274.00024    232.53648 
   92550    135.23857   -48.965645     137612.8   -36959.106    2655.7578   -39614.864    274.34737      232.746 
   92600    135.79246   -422.41914    137684.71   -36972.715    2666.6347    -39639.35    274.37363    233.69924 
   92650    137.02325   -353.05108    137632.19   -37016.321    2690.8047   -39707.126    275.07136    235.81745 
   92700    136.14471   -187.40157    137639.54   -37039.025    2673.5523   -39712.577    275.15459    234.30548 
   92750    137.03796   -273.33296    137560.82   -37019.784    2691.0934   -39710.878    275.29562    235.84276 
   92800    134.71328   -206.86155    137680.46   -37016.067    2645.4423   -39661.509    275.64553    231.84197 
   92850     135.0973   -240.97281    137615.59   -37091.152    2652.9837   -39744.136    275.22704    232.50288 
   92900    134.91033   -145.70289    137669.97   -37119.141    2649.3119   -39768.453    275.31936     232.1811 
   92950    133.03804   -248.54361    137687.17   -37106.722    2612.5446   -39719.267    275.18546    228.95888 
   93000    132.33434   -199.50469    137719.52   -37097.884    2598.7258    -39696.61    275.22838    227.74782 
   93050     134.6946   -145.50684    137847.89   -37133.775    2645.0755   -39778.851    274.94185    231.80982 
   93100    133.57246    -211.5051    137822.44    -37171.26    2623.0394     -39794.3    274.87043    229.87862 
   93150    133.47803   -320.94074    137836.78   -37180.986    2621.1851   -39802.171    275.49582    229.71612 
   93200     134.3671   -434.24389    137783.28   -37169.482    2638.6442   -39808.127    275.79804     231.2462 
   93250     131.3327   -112.85314    137830.09   -37214.434    2579.0559    -39793.49    275.93864    226.02398 
   93300     131.8642   -209.65473    137840.93   -37201.196    2589.4933    -39790.69    275.75462     226.9387 
   93350    130.71092   -217.14473    137817.27   -37163.542    2566.8456   -39730.388    275.66822     224.9539 
   93400    134.29378   -278.23731    137899.43   -37181.749    2637.2043   -39818.953    275.78769    231.12001 
   93450    132.72789   -227.99631    137938.65   -37213.298    2606.4541   -39819.753    275.92516    228.42512 
   93500    131.09935    -435.7978    137910.94   -37222.853    2574.4735   -39797.326    275.83092    225.62239 
   93550    132.81981   -23.820739    137916.52   -37188.868    2608.2592   -39797.127    275.79192    228.58331 
   93600    132.76739   -271.78818    137983.12     -37202.5    2607.2298    -39809.73    276.07704     228.4931 
   93650    132.31947   -191.10719    137990.27   -37219.715    2598.4338   -39818.149    276.52522    227.72223 
   93700    132.45347    -109.4954    138080.27   -37212.142    2601.0652   -39813.208    276.46388    227.95284 
   93750    128.90522   -372.37326    138089.12   -37174.455    2531.3861   -39705.841    276.59821    221.84629 
   93800    132.42504   -306.75089    138069.96    -37145.95    2600.5069   -39746.457    277.00887    227.90391 
   93850    136.18103   -349.24326    138017.26   -37148.418    2674.2654   -39822.683     277.2912    234.36798 
   93900       135.02   -50.077413    138033.75   -37120.252    2651.4655   -39771.717    277.14597    232.36983 
   93950    132.92912   -193.72082    138089.46   -37154.676    2610.4058   -39765.082    277.54359    228.77143 
   94000    132.85482   -104.31132     138087.1   -37126.277    2608.9467   -39735.224    277.52835    228.64356 
   94050    134.25692   -8.5259383    138051.61    -37086.37    2636.4805   -39722.851    277.61746    231.05658 
   94100    135.50711    -125.7364    138068.99   -37086.023    2661.0313   -39747.054    277.79525    233.20816 
   94150    133.87084   -182.63975    138001.21   -37112.623    2628.8989   -39741.522     278.0118    230.39214 
   94200    132.06974   -243.39955    137957.34   -37120.724    2593.5295   -39714.253    277.85564    227.29243 
   94250    130.70036   -236.86672    137914.61   -37144.426    2566.6382   -39711.065    278.40055    224.93572 
   94300    131.43275    -115.5302    137945.46   -37151.126    2581.0207   -39732.146      278.476    226.19617 
   94350    133.12541   -384.38843    137916.04   -37105.618    2614.2604   -39719.879    278.35661    229.10924 
   94400    133.43883   -33.816351    137884.94   -37096.897    2620.4153   -39717.312    278.22903    229.64865 
   94450    134.48063   -386.97127     137902.5   -37073.728    2640.8738   -39714.602    278.19119    231.44159 
   94500    133.16949   -414.20405    137873.96   -37116.438    2615.1261   -39731.564     278.5688    229.18511 
   94550     134.4943   -157.54382     137846.5   -37090.977    2641.1422    -39732.12    279.17315    231.46511 
   94600    133.83721   -344.70262    137913.22   -37080.668    2628.2384   -39708.906    279.18512    230.33425 
   94650    133.92265   -333.70522    137867.61   -37130.573    2629.9162   -39760.489    279.70074    230.48129 
   94700    134.56662   -410.24407    137726.05   -37146.113    2642.5623   -39788.676    279.84393    231.58958 
   94750    133.10468    -230.0267    137730.34   -37138.743    2613.8534   -39752.596     279.7186    229.07358 
   94800    131.29622   -383.33852    137693.43   -37154.483    2578.3396   -39732.823    279.65598    225.96121 
   94850    133.78735    -402.1518    137695.24   -37191.555    2627.2594   -39818.814    279.52967    230.24846 
   94900    131.52381   -248.59251    137668.92   -37198.918    2582.8089   -39781.727    279.46453    226.35289 
   94950    131.85511   -169.57574    137610.71   -37208.709    2589.3148   -39798.024    280.17086    226.92306 
   95000    131.22206   -148.88818     137603.2   -37240.058    2576.8833   -39816.941    280.53351    225.83358 
   95050     127.9364   -299.11693    137670.19   -37293.155    2512.3608   -39805.515    280.92139    220.17894 
   95100    132.79762    169.88791    137746.12    -37277.33    2607.8235   -39885.154    280.85506    228.54513 
   95150    131.99509   -198.25877    137823.68   -37326.218    2592.0637   -39918.282    280.94225    227.16396 
   95200    131.95226   -294.45873    137862.31   -37301.181    2591.2226   -39892.403     281.2937    227.09026 
   95250    132.03812   -67.019118    137846.24   -37302.112    2592.9086   -39895.021    281.16586    227.23801 
   95300     135.0752   -182.84643    137876.55   -37255.272    2652.5497   -39907.822     281.5567    232.46485 
   95350    133.77836    -142.5305    137889.15   -37259.905    2627.0827   -39886.987    281.45125    230.23297 
   95400    132.33479   -267.07205     137913.1   -37248.148    2598.7345   -39846.882    281.56738    227.74858 
   95450    132.37449    15.155025    137923.91   -37291.307    2599.5142   -39890.822    281.34778    227.81692 
   95500    130.84688   -308.41014    137967.27   -37266.835    2569.5157   -39836.351    281.38499     225.1879 
   95550    134.35017   -72.549156    138084.65   -37176.093    2638.3117   -39814.404    282.16493    231.21706 
   95600    131.78521   -308.91713    138079.49   -37262.691    2587.9422   -39850.633    282.14502    226.80276 
   95650    132.15911   -337.68405    138032.14     -37239.7    2595.2846   -39834.985    282.28411    227.44624 
   95700    134.25042   -504.53282    137977.35   -37191.091    2636.3528   -39827.444    282.49465    231.04539 
   95750    131.52103   -271.58865    137959.42   -37165.821    2582.7543   -39748.576    282.40825     226.3481 
   95800    130.54627   -154.63569    138011.42   -37182.226    2563.6124   -39745.838    282.50333    224.67054 
   95850    132.37256   -505.22757    138003.11   -37182.033    2599.4762   -39781.509    282.62407    227.81358 
   95900    135.52788   -469.43405    137953.07   -37189.298    2661.4392   -39850.738    283.18708    233.24391 
   95950    135.76851   -290.51358    137940.55   -37176.154    2666.1645   -39842.318    283.36625    233.65803 
   96000    139.19997   -353.80112     137973.1   -37122.104    2733.5502   -39855.654    283.42883    239.56359 
   96050    136.92204    -85.60954    137949.06   -37117.346    2688.8171   -39806.163    283.40699    235.64326 
   96100    134.60367   -251.34012    137905.94   -37153.766    2643.2899   -39797.056     282.9293    231.65334 
   96150    136.66783    77.665873    137888.87   -37129.054     2683.825   -39812.879    283.03961    235.20576 
   96200    136.35397   -80.981639    137858.24   -37100.639    2677.6615   -39778.301    283.45441    234.66561 
   96250    133.28743   -362.14601    137795.03    -37118.01     2617.442   -39735.452    283.38663    229.38808 
   96300    133.27633   -136.37284       137711   -37139.156    2617.2241    -39756.38    283.74238    229.36898 
   96350     133.4245    -133.3141     137718.5    -37148.39    2620.1338   -39768.523    283.51674    229.62398 
   96400    132.54888   -13.733398    137726.79   -37138.055    2602.9387   -39740.994    283.50089    228.11703 
   96450    132.58332   -453.77787    137717.14   -37144.211    2603.6152   -39747.827    283.59723    228.17632 
   96500    133.81846   -373.17678    137701.13    -37171.69    2627.8703    -39799.56    283.86149      230.302 
   96550    134.57863   -261.86885    137662.72   -37111.856    2642.7981   -39754.654    283.84378    231.61024 
   96600    133.77077   -147.68799    137647.68   -37144.933    2626.9338   -39771.867    283.64135    230.21992 
   96650    135.64793   -342.14909    137682.11   -37105.033    2663.7967    -39768.83    283.72193    233.45052 
   96700     133.8256   -317.53168    137725.16   -37092.154    2628.0105   -39720.165    283.97646    230.31428 
   96750    133.73921     -341.571    137695.28   -37073.452    2626.3141   -39699.766    284.52387    230.16561 
   96800    136.31306    24.667124     137622.4   -37037.284    2676.8581   -39714.142    284.65198     234.5952 
   96850    136.23321    116.75678     137639.9   -37058.916      2675.29   -39734.206    285.47472    234.45778 
   96900    137.70607     63.32536    137706.96   -37037.891    2704.2134   -39742.105     285.4526    236.99257 
   96950    135.41117    186.23335    137796.12   -37061.041    2659.1473   -39720.188    285.54917    233.04305 
   97000    132.55026   -302.40672    137773.52   -37120.532    2602.9658   -39723.498    285.84479    228.11941 
   97050    135.48418   -377.84716    137647.01   -37147.871     2660.581   -39808.452    285.59225     233.1687 
   97100    133.90011   -17.632574     137677.1    -37141.62    2629.4736   -39771.094    285.85216     230.4425 
   97150    135.73816   -249.97899     137684.5   -37085.027    2665.5684   -39750.596    285.89647    233.60579 
   97200    133.67673    180.07706    137769.37   -37099.923     2625.087    -39725.01    286.07958    230.05807 
   97250    132.17248   -280.51315     137862.2   -37141.549    2595.5472   -39737.096    286.20441    227.46925 
   97300    132.64259   -88.752761    137883.53   -37164.246    2604.7791   -39769.026    286.32526    228.27832 
   97350    135.31662   -300.00946    137792.22   -37115.817    2657.2904   -39773.107    286.85316    232.88032 
   97400    133.77847   -340.35322    137798.51    -37075.72    2627.0849   -39702.805    287.11176    230.23316 
   97450    133.36141   -368.58196    137750.66   -37082.566    2618.8948    -39701.46    287.44342     229.5154 
   97500    133.73112   -168.85158    137700.65   -37072.237     2626.155   -39698.392    287.35382    230.15167 
   97550    136.32697   -146.97962    137670.74   -37055.112    2677.1314   -39732.243    287.69527    234.61915 
   97600    132.61272      -156.66    137594.68   -37109.368    2604.1924    -39713.56    287.78712     228.2269 
   97650      133.477   -370.24685    137589.49   -37090.341    2621.1648   -39711.506     287.9689    229.71434 
   97700    134.16663   -186.70381    137570.89   -37149.909    2634.7075   -39784.617     288.5664     230.9012 
   97750    131.69224   -385.89179    137559.86   -37165.871    2586.1164   -39751.987    288.68067    226.64276 
   97800     133.3799   -189.42787    137542.64   -37153.316     2619.258   -39772.574    288.58294    229.54723 
   97850    133.21455    -221.7455    137593.92   -37179.084    2616.0109   -39795.095     289.0873    229.26266 
   97900    131.28813   -394.26863    137517.21   -37217.296    2578.1808   -39795.477    289.23224    225.94729 
   97950    131.63884   -314.18523    137442.49   -37192.671    2585.0678   -39777.739    289.53963    226.55085 
   98000    132.67859   -153.08424    137512.95   -37188.515     2605.486   -39794.001    289.74335    228.34027 
   98050    132.41458   -137.86916    137661.58   -37197.672    2600.3014   -39797.973    290.19555    227.88591 
   98100    132.87212   -87.588236    137743.12   -37199.485    2609.2863   -39808.771    290.57226    228.67333 
   98150    132.93658   -290.82948    137909.69   -37197.705    2610.5523   -39808.258    291.10722    228.78427 
   98200    132.04745     -413.232    137893.89   -37245.951    2593.0918   -39839.043    291.23662    227.25407 
   98250    132.46421   -282.38293    137792.18   -37234.956    2601.2761   -39836.232    291.27135    227.97132 
   98300    132.81917   -248.69918     137791.4   -37264.074    2608.2466   -39872.321    291.42035    228.58221 
   98350    131.36243    -212.1197    137785.57   -37270.301    2579.6398    -39849.94    292.11543    226.07515 
   98400    134.77096   -363.44262    137756.94   -37239.175     2646.575    -39885.75    292.20135    231.94124 
   98450    134.20268   -92.567329    137708.83   -37232.734    2635.4154   -39868.149    292.55392    230.96324 
   98500    131.63778   -56.184083     137631.1   -37258.272     2585.047   -39843.319    293.11243    226.54903 
   98550    132.55238   -360.21861     137610.5   -37298.243    2603.0076   -39901.251    293.10987    228.12307 
   98600    134.13492   -150.14934    137584.07   -37248.014    2634.0848   -39882.099     293.3814    230.84662 
   98650    132.87203    70.825583    137585.33   -37236.801    2609.2846   -39846.085    293.31061    228.67318 
   98700    131.42598   -138.01664    137538.98   -37276.689    2580.8878   -39857.577    293.50645    226.18453 
   98750    133.61005   -200.95692    137538.53   -37278.122    2623.7776     -39901.9    293.45707    229.94332 
   98800    135.90216    75.673476    137535.69   -37257.709     2668.789   -39926.498    293.70134    233.88804 
   98850     130.6192   -439.56184    137538.98   -37274.966    2565.0445    -39840.01    294.21406    224.79605 
   98900    132.64203   -53.727846    137575.32   -37267.216    2604.7681   -39871.984    294.36812    228.27735 
   98950      130.216   -362.12424    137617.68   -37274.392    2557.1266   -39831.519    294.94587    224.10214 
   99000    130.55596   -124.63235    137568.55   -37242.096    2563.8026   -39805.898    295.72168    224.68721 
   99050    131.90011    -87.34656    137587.23   -37195.429    2590.1986   -39785.627    295.78401    227.00051 
   99100    135.50871   -99.368204    137641.69   -37146.394    2661.0626   -39807.457    296.00377    233.21091 
   99150    132.64813   -91.008643    137592.33   -37176.976    2604.8878   -39781.864    296.12582    228.28785 
   99200    131.81247   -206.68453    137623.66   -37157.906    2588.4775   -39746.384    295.83249    226.84967 
   99250    132.84171   -38.786561     137624.7   -37192.554    2608.6893   -39801.243    296.05857    228.62101 
   99300    133.26302   -222.86814     137613.6   -37149.361    2616.9628   -39766.324     296.2397    229.34608 
   99350    133.05025   -407.02697    137643.91   -37145.025    2612.7845    -39757.81    296.15335     228.9799 
   99400    134.11944   -442.84493    137618.32   -37127.049    2633.7808    -39760.83    296.26133    230.81998 
   99450     135.1261   -95.464643     137565.6   -37121.034    2653.5491   -39774.583     296.2794    232.55244 
   99500    133.41867    -309.8676    137546.21    -37106.95    2620.0193    -39726.97    296.78811    229.61395 
   99550    135.92077   -105.75341    137555.44   -37075.078    2669.1545   -39744.232     297.1904    233.92006 
   99600     134.0578   -123.95515     137603.5   -37112.231    2632.5704   -39744.801    296.89162     230.7139 
   99650    134.95203   -150.72892    137545.15   -37062.469    2650.1309     -39712.6    296.87935    232.25287 
   99700    135.26986    29.110088    137580.38   -37073.689    2656.3722   -39730.061    296.91886    232.79985 
   99750    136.07802    50.862514    137555.64   -37127.274    2672.2425   -39799.516    296.62853     234.1907 
   99800    135.02224   -296.00916    137599.25   -37113.639    2651.5096   -39765.148     296.5759     232.3737 
   99850    134.98647   -238.12789    137513.23    -37134.22    2650.8071   -39785.027    296.85229    232.31213 
   99900    134.08244   -184.01035    137486.29   -37136.254    2633.0542   -39769.308    297.18939     230.7563 
   99950    134.09656    -34.57044    137558.51   -37082.957    2633.3314   -39716.288    297.18322     230.7806 
  100000    134.76498   -329.31955    137578.16   -37092.957    2646.4576   -39739.414    297.49658    231.93095 
Loop time of 325.934 on 30 procs for 100000 steps with 6589 atoms

Performance: 132.542 ns/day, 0.181 hours/ns, 306.810 timesteps/s
99.6% CPU use with 30 MPI tasks x no OpenMP threads

MPI task timing breakdown:
Section |  min time  |  avg time  |  max time  |%varavg| %total
---------------------------------------------------------------
Pair    | 40.599     | 165.14     | 269.8      | 783.7 | 50.67
Neigh   | 2.532      | 5.0889     | 15.202     | 185.1 |  1.56
Comm    | 33.926     | 131.65     | 235.4      | 731.6 | 40.39
Output  | 0.16737    | 0.17676    | 0.27368    |   4.3 |  0.05
Modify  | 5.1629     | 22.466     | 46.372     | 403.9 |  6.89
Other   |            | 1.416      |            |       |  0.43

Nlocal:    219.633 ave 510 max 141 min
Histogram: 24 0 0 0 0 0 0 0 2 4
Nghost:    1396.67 ave 1801 max 946 min
Histogram: 12 0 0 0 0 0 0 2 11 5
Neighs:    0 ave 0 max 0 min
Histogram: 30 0 0 0 0 0 0 0 0 0
FullNghs:  26726.7 ave 94181 max 8552 min
Histogram: 24 0 0 0 0 0 0 0 2 4

Total # of neighbors = 801802
Ave neighs/atom = 121.688
Neighbor list builds = 5819
Dangerous builds = 0

write_data		${DIR}/data.eq-${NAME}-${TEMP}
write_data		test_0/data.eq-${NAME}-${TEMP}
write_data		test_0/data.eq-het_freeze_0-${TEMP}
write_data		test_0/data.eq-het_freeze_0-230
undump          1

reset_timestep  0

unfix           2
unfix           3
unfix           4


################################################
#######         Run Simulation         #########
################################################

log				${DIR}/log.run_${NAME}
log				test_0/log.run_${NAME}
log				test_0/log.run_het_freeze_0
