LAMMPS data file via write_data, version 16 Mar 2018, timestep = 100000

6750 atoms
2 atom types

0.0000000000000000e+00 4.9219999999999999e+01 xlo xhi
0.0000000000000000e+00 4.9019635930410494e+01 ylo yhi
4.3682159275134325e-01 5.9625178407248754e+01 zlo zhi

Masses

1 18.015
2 12.01

Atoms # atomic

3192 1 2.4492871060014516e+00 2.2637739257911589e+00 4.3038987974454805e+00 1 0 1
4779 1 1.7395793037435614e+00 3.7438443945314708e+00 2.0150439828156994e+00 1 0 1
6602 1 7.4997918827499159e+00 2.2052498610672715e+00 3.3380201729273860e+00 1 1 0
6721 1 3.9588167383991468e+00 9.0217154193387150e-01 1.2098512654585106e+01 1 0 1
4855 1 5.8586164184093437e-01 7.9308267572309044e+00 7.5722987561111665e-01 1 1 1
116 1 1.0167729402052936e+01 1.9615489086893205e+00 1.3334562513375783e+00 0 1 0
1694 1 4.2969944882971278e+00 6.2580074003987862e+00 3.9897862108105122e+00 0 0 1
93 1 3.2619987208016501e+00 8.8771863733737497e+00 5.7935629272114912e+00 1 1 0
177 1 1.1990266274726356e+01 5.2219409129016334e+00 9.4719790655100287e+00 0 0 0
409 1 5.7466362813680272e+00 6.0751913451424295e+00 1.3418814601202289e+00 1 0 1
6728 1 5.5514376024981953e+00 1.0096423299346879e+01 4.6727896019436574e+00 1 1 1
2113 1 9.4449128966272511e+00 6.2440054442519353e+00 2.0400878372329334e+00 1 1 0
2141 1 8.7377027944143375e+00 8.4899386761840745e+00 1.4821686799852044e+01 0 1 0
5026 1 7.9046618942357449e+00 4.1739094033494100e+00 9.4893289223526900e-01 1 1 1
2123 1 9.8723786910282243e+00 6.8495119255516004e+00 5.1342028038455565e+00 1 1 0
3884 1 2.5548540815795173e-01 1.0906402473633765e+00 5.2948269316577221e+00 0 0 0
5610 1 4.7219817433220950e+00 5.1800187206874186e+00 1.4652629456123671e+01 1 0 1
6515 1 5.5045656006245833e+00 1.5608470665043521e+00 1.5853957421340705e+00 2 -1 1
3787 1 9.0251370253903129e+00 8.9148346331164152e+00 1.1218951745655865e+01 -1 1 0
1868 1 1.0514763695837321e+01 1.2140124722074445e+01 1.4442785182398090e+01 -1 1 0
1327 1 1.0839673883968455e+01 4.3106077826338440e-01 5.9553674933345953e+00 -1 1 1
6634 1 9.4876588838191473e+00 1.0883541403533846e+01 1.8705774624434310e+00 1 1 0
1656 1 9.5938062525983270e+00 1.0330195564517531e+01 4.7860179083703134e+00 0 1 1
1759 1 1.8481011569979777e+00 1.1279153593180196e+01 1.4494608380472627e+01 0 1 0
5541 1 1.0796055093776697e+01 9.8282042763775621e+00 1.2780325867297822e+01 -1 1 0
3257 1 2.2145556868981933e+00 3.2385789090212818e+00 7.3999923189219157e+00 1 0 1
95 1 5.3354090723580310e+00 4.6811146869364668e+00 1.0606943510592069e+01 0 0 0
1734 1 2.2774320628920068e+00 7.8479156832553254e-01 8.7885877847138119e+00 0 0 0
3050 1 6.5566080334972012e+00 1.3796118334516179e+00 7.9363290779724904e+00 0 1 0
3580 1 6.7088020928400560e+00 3.4472210715492917e+00 5.7366996614167149e+00 0 1 0
5247 1 4.4651958181119111e+00 2.3195742051463637e+00 9.6001617853128440e+00 0 2 1
5546 1 1.2182297645700759e+01 2.5091483806014350e+00 3.5559987897794234e+00 1 1 1
6495 1 8.2731698867171755e+00 5.2080349365558458e+00 6.8671598560046805e+00 0 2 0
5043 1 9.5711414587036483e+00 3.7817984705628147e+00 8.8935342942281270e+00 1 0 1
2262 1 4.1322482185257590e+00 3.6307185766781114e+00 6.3744769309908456e-01 0 2 1
216 1 2.8399107636661363e+00 7.2249945808290859e+00 9.1232154168012070e+00 0 0 0
3485 1 4.9471543087262875e+00 6.0969293400665645e+00 8.3998324439591272e+00 2 0 0
6683 1 6.8089751107617069e-01 8.3513073822487627e+00 5.1128455990461719e+00 1 0 0
2152 1 7.6774338770940913e+00 8.4146682100001087e+00 3.8699980443265929e+00 1 0 0
1548 1 4.3447838794312581e+00 4.6955290429815086e+00 6.1382315137147669e+00 1 1 1
3226 1 7.2749545750809892e+00 7.3056596004656686e+00 8.3997347662241477e+00 0 1 1
5419 1 7.7713186741327345e+00 9.8261532609915694e+00 7.1740328643551443e+00 1 0 0
2005 1 4.6459947107081199e+00 1.1079624680980865e+01 1.5135622636446222e+01 0 0 0
6663 1 2.2156203099827851e+00 9.7450900840274972e+00 8.1643790954098918e+00 0 0 1
3536 1 1.2051622191269367e+01 7.3500077171750995e+00 1.3956942764139898e+01 1 0 0
3320 1 4.1572611884106223e+00 1.0950294527751755e+01 9.5899037543778327e+00 2 0 0
3466 1 1.0886360661176695e+01 1.2019636039480449e+01 9.4913473007273996e+00 1 -1 0
129 1 1.5383917521310866e+00 6.4595446646966392e+00 2.8802021685461292e+00 0 1 0
3093 1 1.0459003518595802e+01 9.4204086140915386e+00 8.7541519431064732e+00 0 1 1
281 1 1.3315731265636022e+00 3.3267033065622829e+00 1.3714221108206926e+01 0 -1 0
5037 1 6.3098720571011775e+00 7.3020573420834394e+00 1.3709478753270218e+01 0 0 1
5591 1 1.1748575050942987e+01 1.1338734741356600e+01 1.2514746762304787e+00 0 0 1
3488 1 1.2407528604251454e+00 1.1415025376117054e+00 1.2459676977157123e+01 1 1 0
2151 1 6.8741991662629482e+00 1.6741133802753070e+00 1.2778057000638700e+01 1 1 0
3943 1 5.5061468370637661e+00 2.7835267007834013e+00 1.4936065354953143e+01 1 1 1
5265 1 8.3654619114222424e+00 3.8958818992588422e+00 1.1481726558362544e+01 0 -1 1
285 1 1.2184529539531660e+01 1.0288467659563240e+01 5.4485462614282039e+00 0 0 0
6486 1 1.0800421799449250e+01 3.0724583245016710e+00 1.2759411540101004e+01 2 0 1
5348 1 7.0495025163792260e+00 1.0724766806662132e+01 1.1363653729092004e+01 -1 0 0
4798 1 3.2992969641483345e+00 5.1176453367497734e+00 1.2580226455869589e+01 1 1 1
596 1 2.4862935811417133e+00 7.8413648122748851e+00 1.2042266024144018e+01 0 0 1
187 1 7.7145877369647327e+00 6.8342510890336436e+00 1.1482393409375206e+01 0 0 0
193 1 4.8449838979241848e+00 9.4274443014657763e+00 1.2741522322559735e+01 -1 0 0
146 1 7.2942814154456910e+00 8.9162997844826322e+00 5.8706554614522966e-01 2 0 0
1690 1 4.1946925047385601e+00 3.8113724914414726e-01 3.5102676890356994e+00 0 1 0
2071 1 1.0760590895118824e+00 5.0797280362433881e+00 8.7396973512639597e+00 -1 1 0
4694 1 1.2155312462532633e+01 1.4576012023894034e+00 1.0664817872717796e+01 0 1 1
6507 1 9.6818511462629964e+00 1.0506466673456158e+00 8.5824263490462975e+00 0 0 1
5316 1 6.1066659341232281e+00 1.2109101182842553e+01 8.2310762798215933e+00 0 0 0
1417 1 3.5748263547523926e+00 1.5686269192660343e+00 1.8773917741966880e+01 -2 1 1
3948 1 2.3103710093639540e+00 3.1121244815055005e+00 1.6439055226401091e+01 0 1 1
3455 1 7.7765463882383106e+00 2.8417995281930555e+00 2.4485918136423919e+01 1 0 1
4843 1 6.6965012514609086e+00 2.4515274794677899e+00 1.8331853986129385e+01 1 1 1
3853 1 1.0777504375128709e+01 6.8300973592482936e+00 1.6295930159376837e+01 0 0 0
2006 1 3.6508105184992030e+00 5.9276522020374001e-01 1.5939263651868769e+01 -1 1 0
1888 1 1.0911345041137951e+01 3.0719907650067526e+00 1.7845177801676449e+01 0 -1 0
4997 1 7.7917326899754986e+00 9.6173341544515765e+00 1.7168535166008823e+01 1 1 1
798 2 1.1074500000000002e+01 9.2355835810918343e+00 2.6813205315004868e+01 0 0 0
1691 1 1.8948790333958074e+00 5.9767660541169594e+00 1.7075720341077528e+01 0 0 1
3737 1 8.7537033433461231e-01 6.8546392417855957e+00 1.9291777129391619e+01 1 -1 0
1844 1 4.6768657890268388e+00 6.7017699639616248e+00 1.7125651855974120e+01 1 0 0
4758 1 5.1285151099464308e+00 5.8509922909562304e+00 1.9573466055320267e+01 1 -1 1
5474 1 7.3897492405826437e-02 1.6402699479149903e+00 2.1219435847134132e+01 0 0 0
196 1 8.8521154389286298e+00 3.1855539101670018e+00 1.9588881133552118e+01 0 -1 0
2190 1 5.2282003363666014e+00 9.3427799692844715e+00 1.7274418081677908e+01 -1 1 0
228 1 1.1889183174785876e+01 3.9065210690099330e+00 2.2878179210560383e+01 0 0 1
3851 1 4.2687618266682454e+00 1.2123627684954000e+01 1.8832875359365399e+01 0 0 0
394 1 3.9518620692863254e-01 9.7496980839020697e+00 2.0137980560590684e+01 1 1 0
2314 1 1.1066190244440209e+01 7.2456679650791511e-01 2.4106391323557574e+01 1 1 1
1464 1 9.8692175512917544e+00 8.4672136713056378e+00 1.8568882215168088e+01 0 0 0
1523 1 7.6010625180322524e+00 5.5817001166563518e+00 1.6173922512358260e+01 1 -1 1
4870 1 8.4851539658323301e+00 5.9300488558339035e+00 1.9298705074211650e+01 1 -1 1
1564 1 2.4959441566782186e+00 2.9689918429213522e+00 2.1091863347833311e+01 1 0 0
6656 1 2.9649814961640644e+00 2.5387777953456205e+00 2.3743972720073664e+01 0 0 1
2114 1 8.7646651791678587e-01 4.5324799825424673e+00 2.4383638803701686e+01 1 0 0
5032 1 5.6588434385595203e+00 3.5690267729808882e+00 2.0687565971691043e+01 1 1 0
3660 1 5.5702755272130640e+00 3.5785294253140942e+00 2.3370799734135552e+01 2 0 0
3369 1 9.9085369486752306e+00 3.6885819993879845e+00 1.5369407061868465e+01 2 1 0
6633 1 1.2145265985397215e+01 5.4782266836614841e+00 1.8656377584936777e+01 0 1 1
3756 1 2.7417387400963142e+00 5.7274442797564848e+00 2.0803734696135486e+01 1 -1 0
5369 1 3.0171445435730915e+00 6.3802657576363755e+00 2.3447132586975503e+01 0 1 0
61 1 5.7048543405850989e+00 6.5435713694617572e+00 2.3845584229665850e+01 2 1 1
1852 1 7.0283202793006669e+00 7.3789685843546229e+00 2.0744143447161868e+01 0 0 1
3761 1 7.7456275624636746e+00 8.2237863525696842e+00 2.3713526463602239e+01 0 0 0
6678 1 1.1278502023153489e+01 1.1150287988647287e+01 1.6761086483936943e+01 0 1 1
3272 1 1.0860933994816197e+01 5.9306623042979600e+00 2.1136302735937587e+01 1 1 1
4978 1 1.1705445304316898e+01 8.5958916294588690e+00 2.1048153904453347e+01 0 0 0
6347 1 1.0810067229261689e+01 8.5396182417316346e+00 2.3822914397152537e+01 1 1 1
5615 1 2.2058610981499096e+00 8.8037088795101361e+00 2.3511523077461170e+01 0 1 0
5623 1 4.3156700558734595e+00 1.0513621451799231e+01 2.2927623310968240e+01 -1 2 0
841 2 1.2304999999999998e+01 1.1366872099805333e+01 2.6813205315004868e+01 0 0 0
5478 1 6.0945266616198364e+00 9.9948336138102416e+00 2.0475097044462132e+01 1 1 0
6690 1 6.4718438464388175e+00 1.0659802710396177e+01 2.4331925207587105e+01 0 0 0
275 1 9.4270649175792567e+00 2.1529740176683165e+00 2.2302987635141967e+01 1 -1 0
115 1 1.1650586911995459e+01 1.1348930372638772e+01 2.4527225269374970e+01 1 1 0
4804 1 1.0230612788718648e+01 1.1091523445630777e+01 1.9617299372436939e+01 1 0 1
618 2 0.0000000000000000e+00 2.8417180249513345e+00 2.6813205315004868e+01 0 0 0
620 2 0.0000000000000000e+00 0.0000000000000000e+00 2.6813205315004868e+01 0 0 0
622 2 1.2305000000000001e+00 7.1042950623783474e-01 2.6813205315004868e+01 0 0 0
629 2 1.2305000000000001e+00 2.1312885187134998e+00 2.6813205315004868e+01 0 0 0
631 2 2.4610000000000003e+00 2.8417180249513345e+00 2.6813205315004868e+01 0 0 0
633 2 2.4610000000000003e+00 0.0000000000000000e+00 2.6813205315004868e+01 0 0 0
635 2 3.6915000000000004e+00 7.1042950623783474e-01 2.6813205315004868e+01 0 0 0
650 2 3.6914999999999996e+00 2.1312885187134998e+00 2.6813205315004868e+01 0 0 0
652 2 4.9220000000000006e+00 2.8417180249513332e+00 2.6813205315004868e+01 0 0 0
654 2 4.9220000000000006e+00 0.0000000000000000e+00 2.6813205315004868e+01 0 0 0
656 2 6.1524999999999999e+00 7.1042950623783407e-01 2.6813205315004868e+01 0 0 0
679 2 6.1524999999999999e+00 2.1312885187134989e+00 2.6813205315004868e+01 0 0 0
681 2 7.3829999999999991e+00 2.8417180249513345e+00 2.6813205315004868e+01 0 0 0
683 2 7.3829999999999991e+00 0.0000000000000000e+00 2.6813205315004868e+01 0 0 0
685 2 8.6134999999999984e+00 7.1042950623783407e-01 2.6813205315004868e+01 0 0 0
716 2 8.6134999999999984e+00 2.1312885187135002e+00 2.6813205315004868e+01 0 0 0
718 2 9.8440000000000012e+00 2.8417180249513332e+00 2.6813205315004868e+01 0 0 0
720 2 9.8440000000000012e+00 0.0000000000000000e+00 2.6813205315004868e+01 0 0 0
722 2 1.1074500000000002e+01 7.1042950623783330e-01 2.6813205315004868e+01 0 0 0
761 2 1.1074500000000002e+01 2.1312885187135002e+00 2.6813205315004868e+01 0 0 0
623 2 0.0000000000000000e+00 7.1042950623783341e+00 2.6813205315004868e+01 0 0 0
625 2 0.0000000000000000e+00 4.2625770374269996e+00 2.6813205315004868e+01 0 0 0
627 2 1.2305000000000001e+00 4.9730065436648339e+00 2.6813205315004868e+01 0 0 0
642 2 1.2305000000000001e+00 6.3938655561404980e+00 2.6813205315004868e+01 0 0 0
644 2 2.4610000000000003e+00 7.1042950623783341e+00 2.6813205315004868e+01 0 0 0
646 2 2.4610000000000003e+00 4.2625770374269996e+00 2.6813205315004868e+01 0 0 0
648 2 3.6914999999999996e+00 4.9730065436648339e+00 2.6813205315004868e+01 0 0 0
671 2 3.6914999999999996e+00 6.3938655561404980e+00 2.6813205315004868e+01 0 0 0
673 2 4.9220000000000006e+00 7.1042950623783341e+00 2.6813205315004868e+01 0 0 0
675 2 4.9220000000000006e+00 4.2625770374269978e+00 2.6813205315004868e+01 0 0 0
677 2 6.1524999999999999e+00 4.9730065436648339e+00 2.6813205315004868e+01 0 0 0
708 2 6.1524999999999999e+00 6.3938655561404980e+00 2.6813205315004868e+01 0 0 0
710 2 7.3830000000000009e+00 7.1042950623783341e+00 2.6813205315004868e+01 0 0 0
712 2 7.3829999999999991e+00 4.2625770374269996e+00 2.6813205315004868e+01 0 0 0
714 2 8.6135000000000002e+00 4.9730065436648339e+00 2.6813205315004868e+01 0 0 0
753 2 8.6135000000000002e+00 6.3938655561404980e+00 2.6813205315004868e+01 0 0 0
755 2 9.8440000000000012e+00 7.1042950623783341e+00 2.6813205315004868e+01 0 0 0
757 2 9.8440000000000012e+00 4.2625770374270004e+00 2.6813205315004868e+01 0 0 0
759 2 1.1074500000000002e+01 4.9730065436648339e+00 2.6813205315004868e+01 0 0 0
800 2 1.1074500000000002e+01 6.3938655561404980e+00 2.6813205315004868e+01 0 0 0
669 2 3.6915000000000004e+00 9.2355835810918343e+00 2.6813205315004868e+01 0 0 0
700 2 3.6914999999999996e+00 1.0656442593567499e+01 2.6813205315004868e+01 0 0 0
636 2 0.0000000000000000e+00 1.1366872099805333e+01 2.6813205315004868e+01 0 0 0
638 2 0.0000000000000000e+00 8.5251540748539991e+00 2.6813205315004868e+01 0 0 0
640 2 1.2305000000000001e+00 9.2355835810918343e+00 2.6813205315004868e+01 0 0 0
663 2 1.2305000000000001e+00 1.0656442593567498e+01 2.6813205315004868e+01 0 0 0
665 2 2.4610000000000003e+00 1.1366872099805333e+01 2.6813205315004868e+01 0 0 0
667 2 2.4610000000000003e+00 8.5251540748539991e+00 2.6813205315004868e+01 0 0 0
706 2 6.1524999999999999e+00 9.2355835810918343e+00 2.6813205315004868e+01 0 0 0
749 2 7.3830000000000009e+00 8.5251540748539991e+00 2.6813205315004868e+01 0 0 0
747 2 7.3829999999999991e+00 1.1366872099805333e+01 2.6813205315004868e+01 0 0 0
704 2 4.9220000000000006e+00 8.5251540748539991e+00 2.6813205315004868e+01 0 0 0
702 2 4.9220000000000006e+00 1.1366872099805333e+01 2.6813205315004868e+01 0 0 0
745 2 6.1524999999999999e+00 1.0656442593567499e+01 2.6813205315004868e+01 0 0 0
794 2 9.8440000000000012e+00 1.1366872099805333e+01 2.6813205315004868e+01 0 0 0
796 2 9.8440000000000012e+00 8.5251540748539956e+00 2.6813205315004868e+01 0 0 0
839 2 1.1074500000000002e+01 1.0656442593567498e+01 2.6813205315004868e+01 0 0 0
792 2 8.6134999999999984e+00 1.0656442593567498e+01 2.6813205315004868e+01 0 0 0
751 2 8.6134999999999984e+00 9.2355835810918343e+00 2.6813205315004868e+01 0 0 0
5451 1 7.9870042672143162e+00 1.7675565185910667e+00 1.6164016838847999e+01 0 1 0
3158 1 8.7922702829200050e-01 7.0050116039981222e-02 1.8260658268609962e+01 -1 1 1
6590 1 2.1783547078224954e+00 1.1876850511010026e+01 2.0589709141160885e+01 1 0 1
5342 1 7.8329204682972433e+00 1.2018371876641774e+01 2.0825284150145222e+01 1 0 0
335 1 1.2112743204930895e+01 6.3394113717032958e+00 2.4560255952294607e+01 -1 -1 0
2309 1 4.2228437770366645e+00 2.6870482542410107e-01 2.3538754480467510e+01 0 2 1
6681 1 6.7973830910958801e+00 2.8475772678452232e-01 2.4367758988484738e+01 0 2 1
619 2 0.0000000000000000e+00 1.4208590124756650e+00 3.0031000000000155e+01 0 0 0
621 2 0.0000000000000000e+00 0.0000000000000000e+00 3.0031000000000155e+01 0 0 0
628 2 1.2305000000000001e+00 3.5521475311891644e+00 3.0031000000000155e+01 0 0 0
630 2 1.2305000000000001e+00 2.1312885187134998e+00 3.0031000000000155e+01 0 0 0
632 2 2.4610000000000003e+00 1.4208590124756650e+00 3.0031000000000155e+01 0 0 0
634 2 2.4610000000000003e+00 0.0000000000000000e+00 3.0031000000000155e+01 0 0 0
649 2 3.6914999999999996e+00 3.5521475311891644e+00 3.0031000000000155e+01 0 0 0
651 2 3.6914999999999996e+00 2.1312885187134998e+00 3.0031000000000155e+01 0 0 0
947 2 0.0000000000000000e+00 2.8417180249513345e+00 3.3248794684994998e+01 0 0 0
948 2 0.0000000000000000e+00 0.0000000000000000e+00 3.3248794684994998e+01 0 0 0
949 2 1.2305000000000001e+00 7.1042950623783474e-01 3.3248794684994998e+01 0 0 0
953 2 1.2305000000000001e+00 2.1312885187134998e+00 3.3248794684994998e+01 0 0 0
954 2 2.4610000000000003e+00 2.8417180249513345e+00 3.3248794684994998e+01 0 0 0
955 2 2.4610000000000003e+00 0.0000000000000000e+00 3.3248794684994998e+01 0 0 0
956 2 3.6915000000000004e+00 7.1042950623783474e-01 3.3248794684994998e+01 0 0 0
964 2 3.6914999999999996e+00 2.1312885187134998e+00 3.3248794684994998e+01 0 0 0
653 2 4.9220000000000006e+00 1.4208590124756650e+00 3.0031000000000155e+01 0 0 0
655 2 4.9220000000000006e+00 0.0000000000000000e+00 3.0031000000000155e+01 0 0 0
678 2 6.1524999999999999e+00 3.5521475311891644e+00 3.0031000000000155e+01 0 0 0
680 2 6.1524999999999999e+00 2.1312885187134989e+00 3.0031000000000155e+01 0 0 0
682 2 7.3829999999999991e+00 1.4208590124756659e+00 3.0031000000000155e+01 0 0 0
684 2 7.3829999999999991e+00 0.0000000000000000e+00 3.0031000000000155e+01 0 0 0
965 2 4.9220000000000006e+00 2.8417180249513332e+00 3.3248794684994998e+01 0 0 0
966 2 4.9220000000000006e+00 0.0000000000000000e+00 3.3248794684994998e+01 0 0 0
967 2 6.1524999999999999e+00 7.1042950623783407e-01 3.3248794684994998e+01 0 0 0
979 2 6.1524999999999999e+00 2.1312885187134989e+00 3.3248794684994998e+01 0 0 0
980 2 7.3829999999999991e+00 2.8417180249513345e+00 3.3248794684994998e+01 0 0 0
981 2 7.3829999999999991e+00 0.0000000000000000e+00 3.3248794684994998e+01 0 0 0
715 2 8.6134999999999984e+00 3.5521475311891657e+00 3.0031000000000155e+01 0 0 0
717 2 8.6134999999999984e+00 2.1312885187135002e+00 3.0031000000000155e+01 0 0 0
719 2 9.8440000000000012e+00 1.4208590124756659e+00 3.0031000000000155e+01 0 0 0
721 2 9.8440000000000012e+00 0.0000000000000000e+00 3.0031000000000155e+01 0 0 0
760 2 1.1074500000000002e+01 3.5521475311891644e+00 3.0031000000000155e+01 0 0 0
762 2 1.1074500000000002e+01 2.1312885187135002e+00 3.0031000000000155e+01 0 0 0
982 2 8.6134999999999984e+00 7.1042950623783407e-01 3.3248794684994998e+01 0 0 0
998 2 8.6134999999999984e+00 2.1312885187135002e+00 3.3248794684994998e+01 0 0 0
999 2 9.8440000000000012e+00 2.8417180249513332e+00 3.3248794684994998e+01 0 0 0
1000 2 9.8440000000000012e+00 0.0000000000000000e+00 3.3248794684994998e+01 0 0 0
1001 2 1.1074500000000002e+01 7.1042950623783330e-01 3.3248794684994998e+01 0 0 0
1021 2 1.1074500000000002e+01 2.1312885187135002e+00 3.3248794684994998e+01 0 0 0
624 2 0.0000000000000000e+00 5.6834360499026637e+00 3.0031000000000155e+01 0 0 0
626 2 0.0000000000000000e+00 4.2625770374269996e+00 3.0031000000000155e+01 0 0 0
641 2 1.2305000000000001e+00 7.8147245686161639e+00 3.0031000000000155e+01 0 0 0
643 2 1.2305000000000001e+00 6.3938655561404980e+00 3.0031000000000155e+01 0 0 0
645 2 2.4610000000000003e+00 5.6834360499026637e+00 3.0031000000000155e+01 0 0 0
647 2 2.4610000000000003e+00 4.2625770374269996e+00 3.0031000000000155e+01 0 0 0
670 2 3.6914999999999996e+00 7.8147245686161639e+00 3.0031000000000155e+01 0 0 0
672 2 3.6914999999999996e+00 6.3938655561404980e+00 3.0031000000000155e+01 0 0 0
950 2 0.0000000000000000e+00 7.1042950623783341e+00 3.3248794684994998e+01 0 0 0
951 2 0.0000000000000000e+00 4.2625770374269996e+00 3.3248794684994998e+01 0 0 0
952 2 1.2305000000000001e+00 4.9730065436648339e+00 3.3248794684994998e+01 0 0 0
960 2 1.2305000000000001e+00 6.3938655561404980e+00 3.3248794684994998e+01 0 0 0
961 2 2.4610000000000003e+00 7.1042950623783341e+00 3.3248794684994998e+01 0 0 0
962 2 2.4610000000000003e+00 4.2625770374269996e+00 3.3248794684994998e+01 0 0 0
963 2 3.6914999999999996e+00 4.9730065436648339e+00 3.3248794684994998e+01 0 0 0
975 2 3.6914999999999996e+00 6.3938655561404980e+00 3.3248794684994998e+01 0 0 0
674 2 4.9220000000000006e+00 5.6834360499026637e+00 3.0031000000000155e+01 0 0 0
676 2 4.9220000000000006e+00 4.2625770374269978e+00 3.0031000000000155e+01 0 0 0
707 2 6.1524999999999999e+00 7.8147245686161639e+00 3.0031000000000155e+01 0 0 0
709 2 6.1524999999999999e+00 6.3938655561404980e+00 3.0031000000000155e+01 0 0 0
711 2 7.3829999999999991e+00 5.6834360499026637e+00 3.0031000000000155e+01 0 0 0
713 2 7.3829999999999991e+00 4.2625770374269996e+00 3.0031000000000155e+01 0 0 0
976 2 4.9220000000000006e+00 7.1042950623783341e+00 3.3248794684994998e+01 0 0 0
977 2 4.9220000000000006e+00 4.2625770374269978e+00 3.3248794684994998e+01 0 0 0
978 2 6.1524999999999999e+00 4.9730065436648339e+00 3.3248794684994998e+01 0 0 0
994 2 6.1524999999999999e+00 6.3938655561404980e+00 3.3248794684994998e+01 0 0 0
995 2 7.3830000000000009e+00 7.1042950623783341e+00 3.3248794684994998e+01 0 0 0
996 2 7.3829999999999991e+00 4.2625770374269996e+00 3.3248794684994998e+01 0 0 0
752 2 8.6135000000000002e+00 7.8147245686161639e+00 3.0031000000000155e+01 0 0 0
754 2 8.6135000000000002e+00 6.3938655561404980e+00 3.0031000000000155e+01 0 0 0
756 2 9.8440000000000012e+00 5.6834360499026637e+00 3.0031000000000155e+01 0 0 0
758 2 9.8440000000000012e+00 4.2625770374270004e+00 3.0031000000000155e+01 0 0 0
799 2 1.1074500000000002e+01 7.8147245686161639e+00 3.0031000000000155e+01 0 0 0
801 2 1.1074500000000002e+01 6.3938655561404980e+00 3.0031000000000155e+01 0 0 0
997 2 8.6135000000000002e+00 4.9730065436648339e+00 3.3248794684994998e+01 0 0 0
1017 2 8.6135000000000002e+00 6.3938655561404980e+00 3.3248794684994998e+01 0 0 0
1018 2 9.8440000000000012e+00 7.1042950623783341e+00 3.3248794684994998e+01 0 0 0
1019 2 9.8440000000000012e+00 4.2625770374270004e+00 3.3248794684994998e+01 0 0 0
1020 2 1.1074500000000002e+01 4.9730065436648339e+00 3.3248794684994998e+01 0 0 0
1041 2 1.1074500000000002e+01 6.3938655561404980e+00 3.3248794684994998e+01 0 0 0
637 2 0.0000000000000000e+00 9.9460130873296642e+00 3.0031000000000155e+01 0 0 0
639 2 0.0000000000000000e+00 8.5251540748539991e+00 3.0031000000000155e+01 0 0 0
662 2 1.2305000000000001e+00 1.2077301606043163e+01 3.0031000000000155e+01 0 0 0
664 2 1.2305000000000001e+00 1.0656442593567498e+01 3.0031000000000155e+01 0 0 0
666 2 2.4610000000000003e+00 9.9460130873296642e+00 3.0031000000000155e+01 0 0 0
668 2 2.4610000000000003e+00 8.5251540748539991e+00 3.0031000000000155e+01 0 0 0
699 2 3.6914999999999996e+00 1.2077301606043163e+01 3.0031000000000155e+01 0 0 0
701 2 3.6914999999999996e+00 1.0656442593567499e+01 3.0031000000000155e+01 0 0 0
957 2 0.0000000000000000e+00 1.1366872099805333e+01 3.3248794684994998e+01 0 0 0
958 2 0.0000000000000000e+00 8.5251540748539991e+00 3.3248794684994998e+01 0 0 0
959 2 1.2305000000000001e+00 9.2355835810918343e+00 3.3248794684994998e+01 0 0 0
971 2 1.2305000000000001e+00 1.0656442593567498e+01 3.3248794684994998e+01 0 0 0
972 2 2.4610000000000003e+00 1.1366872099805333e+01 3.3248794684994998e+01 0 0 0
973 2 2.4610000000000003e+00 8.5251540748539991e+00 3.3248794684994998e+01 0 0 0
974 2 3.6915000000000004e+00 9.2355835810918343e+00 3.3248794684994998e+01 0 0 0
990 2 3.6914999999999996e+00 1.0656442593567499e+01 3.3248794684994998e+01 0 0 0
703 2 4.9220000000000006e+00 9.9460130873296642e+00 3.0031000000000155e+01 0 0 0
705 2 4.9220000000000006e+00 8.5251540748539991e+00 3.0031000000000155e+01 0 0 0
744 2 6.1524999999999999e+00 1.2077301606043163e+01 3.0031000000000155e+01 0 0 0
746 2 6.1524999999999999e+00 1.0656442593567499e+01 3.0031000000000155e+01 0 0 0
748 2 7.3830000000000009e+00 9.9460130873296642e+00 3.0031000000000155e+01 0 0 0
750 2 7.3830000000000009e+00 8.5251540748539991e+00 3.0031000000000155e+01 0 0 0
991 2 4.9220000000000006e+00 1.1366872099805333e+01 3.3248794684994998e+01 0 0 0
992 2 4.9220000000000006e+00 8.5251540748539991e+00 3.3248794684994998e+01 0 0 0
993 2 6.1524999999999999e+00 9.2355835810918343e+00 3.3248794684994998e+01 0 0 0
1013 2 6.1524999999999999e+00 1.0656442593567499e+01 3.3248794684994998e+01 0 0 0
1014 2 7.3829999999999991e+00 1.1366872099805333e+01 3.3248794684994998e+01 0 0 0
1015 2 7.3830000000000009e+00 8.5251540748539991e+00 3.3248794684994998e+01 0 0 0
791 2 8.6135000000000002e+00 1.2077301606043163e+01 3.0031000000000155e+01 0 0 0
793 2 8.6134999999999984e+00 1.0656442593567498e+01 3.0031000000000155e+01 0 0 0
795 2 9.8440000000000012e+00 9.9460130873296642e+00 3.0031000000000155e+01 0 0 0
797 2 9.8440000000000012e+00 8.5251540748539956e+00 3.0031000000000155e+01 0 0 0
838 2 1.1074500000000002e+01 1.2077301606043163e+01 3.0031000000000155e+01 0 0 0
840 2 1.1074500000000002e+01 1.0656442593567498e+01 3.0031000000000155e+01 0 0 0
1016 2 8.6134999999999984e+00 9.2355835810918343e+00 3.3248794684994998e+01 0 0 0
1037 2 8.6134999999999984e+00 1.0656442593567498e+01 3.3248794684994998e+01 0 0 0
1038 2 9.8440000000000012e+00 1.1366872099805333e+01 3.3248794684994998e+01 0 0 0
1039 2 9.8440000000000012e+00 8.5251540748539956e+00 3.3248794684994998e+01 0 0 0
1040 2 1.1074500000000002e+01 9.2355835810918343e+00 3.3248794684994998e+01 0 0 0
1061 2 1.1074500000000002e+01 1.0656442593567498e+01 3.3248794684994998e+01 0 0 0
1062 2 1.2304999999999998e+01 1.1366872099805333e+01 3.3248794684994998e+01 0 0 0
4856 1 1.1566279805551583e+01 9.9999241385710427e+00 4.3412196984323657e+01 2 2 0
5053 1 9.5234916760368868e+00 3.5820434624773263e+00 4.0657487074560038e+01 0 1 0
5464 1 2.4605491309934253e+00 2.1560656117786121e+00 4.4209175211909596e+01 1 0 -1
6438 1 7.2528754073614081e+00 3.6152261157542842e+00 3.5874927183027609e+01 0 0 0
2335 1 3.9194952862036376e+00 2.4244935992258965e+00 3.5631286482638764e+01 0 -1 0
3072 1 9.3721920669177461e+00 7.3254094678926884e-01 3.7150032408164734e+01 1 1 0
1623 1 5.3605697413595177e+00 5.6717915753342512e+00 4.3098307512041984e+01 1 0 0
3239 1 6.2596442852721594e+00 1.0534267316524511e+01 4.1447826508816689e+01 1 0 0
2145 1 9.0994793579662971e+00 1.2168588653228760e+01 4.1098576854926748e+01 0 0 -1
245 1 1.1731837771973403e+00 2.9154024696918861e+00 3.6460355619403870e+01 1 0 -1
3362 1 1.1153853906851785e+01 1.1974521615003065e+01 3.6135579784471581e+01 0 0 0
266 1 9.6127329245279058e-01 5.4005509818811728e+00 3.5642736997445546e+01 0 1 -1
135 1 6.8737869505631917e+00 6.2508643519067935e+00 3.8832483696184951e+01 0 -1 -1
5576 1 3.1192695200901372e+00 6.8156812498004866e+00 3.7214615986920251e+01 1 0 0
1345 1 6.0549195359195052e+00 6.6346564225187681e+00 3.6429766369594262e+01 1 0 0
3041 1 9.6611823475281859e+00 7.3838770756368328e+00 3.8957274696123235e+01 0 1 0
2046 1 9.9895034120707713e+00 7.9262869760392141e+00 3.6315484225692529e+01 0 1 -1
3282 1 1.0192495847539746e+01 5.0650842606369535e+00 3.5930307671596132e+01 0 2 -1
3577 1 5.1996746129299320e-01 1.0974068318538167e+01 3.8476589469768179e+01 0 0 -1
6367 1 1.1631027545836128e+01 7.0044682743407831e+00 4.4453670194549041e+01 0 1 0
1453 1 2.8366367030527848e+00 1.0311056150470586e+01 3.8722224221003714e+01 1 -1 0
1429 1 2.7387874540099837e+00 9.3303310596058449e+00 3.5948813533285829e+01 -1 1 0
1812 1 7.8011480096831045e+00 9.9739446440244865e+00 3.8871015703995603e+01 0 1 -1
1850 1 4.9138120321110872e+00 1.1165090457053557e+01 3.5803617700507388e+01 1 0 -1
6444 1 7.0661156220680796e+00 9.1432583269609324e+00 3.6283433230167887e+01 1 0 0
332 1 9.2348098229488329e+00 1.2129432495537024e+01 3.7893952844887934e+01 0 0 -1
3978 1 7.2891318571430226e+00 1.2194897943960452e+01 4.3754758574738844e+01 -1 0 0
1465 1 2.4520461206062265e+00 9.3077930213539215e+00 4.3259680556773148e+01 1 1 0
1919 1 2.3322362471264926e+00 2.7823070706683897e+00 3.9415028940896448e+01 0 0 -1
1668 1 9.1492242931338357e+00 6.1781970167578546e+00 4.3479748399955781e+01 1 0 0
3007 1 1.0172965984025181e+01 3.4249182690601647e+00 3.7990205293841441e+01 1 1 0
5091 1 7.0450070751976499e+00 1.0199440005830658e+00 3.5567223649810423e+01 -1 2 -1
6700 1 9.7150509160765672e+00 7.9267725437132330e-01 4.1594193849785867e+01 1 1 0
1660 1 4.1533678271284593e+00 4.3063130802792200e+00 3.7765561066839389e+01 2 0 -1
124 1 7.6068926544174689e+00 3.7753015570913298e+00 4.2658264985615659e+01 0 0 -1
4839 1 6.8497683696958642e+00 3.4452604444722441e+00 3.8749752584262424e+01 0 0 0
88 1 7.5877780601565075e+00 8.1765114846089695e+00 4.2668335088243651e+01 1 1 -1
3464 1 3.2908302574446449e+00 3.7904098785322340e+00 4.2130121100962029e+01 1 0 -1
1848 1 2.2335118555903279e+00 6.5191405299185723e+00 4.2608348619892624e+01 2 1 -1
2162 1 5.6333380278345544e+00 2.4497631126615200e+00 4.0927135044089106e+01 2 0 -1
3598 1 5.5686667875893292e+00 7.3741849764813141e+00 4.1008922363356689e+01 0 1 0
5612 1 1.1024425743568084e+01 5.8841781056428024e+00 4.1033676000262375e+01 1 2 -1
5256 1 3.6046759389106366e+00 1.0613138840095797e+01 4.1456587587567199e+01 0 1 -1
4775 1 3.1315094017197778e+00 7.8844098867193786e+00 3.9815353250450656e+01 0 2 0
6461 1 7.9918185928019776e+00 7.7496194041638589e-01 4.3762082704351769e+01 1 1 -1
474 1 1.0103928832163451e+01 9.3224719232090631e+00 4.1223987219048432e+01 1 -1 0
3864 1 1.3669096083149171e-01 9.8588010104661734e+00 3.5672382019493284e+01 0 -1 -1
3048 1 3.2020603501515539e+00 4.9728480725150892e-01 3.8361974068717643e+01 2 0 0
4682 1 2.9427949958595804e-03 1.0375908843106808e+01 4.2485682197273896e+01 1 -1 0
5524 1 3.3856654022122561e-02 2.5655017278054233e+00 4.0505090334827742e+01 2 2 -1
2078 1 4.4499586421302695e-02 2.0571393406788827e+00 4.4799924149429366e+01 0 1 -1
3107 1 2.7845072398375019e+00 3.4458706399710004e+00 4.6785674985353623e+01 0 0 0
1886 1 2.0480430117274135e+00 1.9018203835510781e+00 4.9573139390647974e+01 -1 0 -1
3171 1 6.4370513735454171e+00 3.1804138751605154e-01 4.9724318828199202e+01 0 1 0
5521 1 5.3071268978166675e+00 4.2475758430848192e+00 4.7913844064289719e+01 0 1 -1
5073 1 8.7303703685976064e+00 8.6328428341231778e+00 5.7584524089091602e+01 1 2 0
6603 1 1.1728382239947079e+01 6.7596703813923567e+00 5.9612033291610622e+01 0 -1 0
139 1 3.4483909364441062e-01 9.5178262915621623e+00 4.6757290276350417e+01 0 0 0
4794 1 6.8762920032988517e-01 5.3592856625104535e+00 4.7501567130949169e+01 1 2 0
3173 1 3.1845028160098661e+00 7.0802566679019625e+00 4.7710623572757292e+01 1 1 0