LAMMPS data file via write_data, version 16 Mar 2018, timestep = 6000000

6750 atoms
2 atom types

0.0000000000000000e+00 4.9219999999999999e+01 xlo xhi
0.0000000000000000e+00 4.9019635930410494e+01 ylo yhi
3.5892660126826215e-01 5.9703073398716185e+01 zlo zhi

Masses

1 18.015
2 12.01

Atoms # atomic

6564 1 1.6517959776519706e+00 9.0532752398645200e-01 1.8918648681023276e+00 4 0 1
3478 1 3.5683155542313592e+00 2.1312083717745827e+00 2.7832334848901743e+00 -4 1 0
3038 1 3.4447632753435986e+00 2.5555959544637128e+00 5.6069840830307820e+00 -1 1 1
2262 1 6.0958276555777386e+00 1.5772154494746100e+00 1.4815043403190440e+00 0 2 1
1989 1 8.2631852761702778e+00 2.9578102741054138e+00 2.3736064889369177e+00 0 4 0
555 1 1.0605422696146817e+01 2.3265063106545303e+00 1.5704390514889099e+00 1 0 1
3547 1 7.4449655838091167e-01 5.2932318479924332e+00 2.7324475873736276e+00 2 0 0
269 1 3.0407606727756331e+00 4.5375130731900839e+00 1.6540022819833173e+00 -1 2 0
5062 1 4.5417201583048411e-01 7.7368301050888295e+00 1.6798585730870366e+00 0 3 1
1557 1 5.2338611817930341e+00 5.7517615002418605e+00 2.6344459092641430e+00 4 5 1
5140 1 7.9961928928389261e+00 5.5182783568298497e+00 1.7952963880268200e+00 3 2 0
5463 1 9.8825072498083610e+00 7.0871501205649183e+00 2.7359012916292262e+00 -1 -2 0
143 1 9.7023680478143000e+00 7.0506477966305603e+00 5.5454610919683498e+00 -3 1 0
3726 1 2.6086001577051605e+00 9.2583398404185857e+00 2.8001311453772257e+00 1 4 0
6352 1 2.4617313392657727e+00 1.2071803357082574e+01 8.7524277953841185e+00 0 -1 1
6392 1 5.0492428412487147e+00 8.4113277941229985e+00 1.7914912612699903e+00 0 0 1
11 1 7.0725206714953543e+00 1.0240453426967557e+01 2.4393957384693183e+00 0 -1 0
4689 1 6.9964500425044358e+00 9.9538624972983829e+00 5.1196384064250724e+00 1 -1 1
431 1 1.1593493427581890e+01 1.0919207334757948e+01 2.9644105542303723e+00 2 -1 0
3806 1 9.4198360118779352e+00 9.3917234134233869e+00 1.3505440342418946e+00 2 -6 0
3318 1 1.1594866329918169e+01 1.1015235303267552e+01 5.6689981468787298e+00 1 -1 1
3314 1 1.6948132077796980e+00 7.8859561030468139e-01 9.6565081112862732e+00 -1 1 1
6404 1 1.5010607173130150e+00 1.0139556553406663e+00 6.6684502807310633e+00 -4 -1 0
311 1 3.6352242737727591e+00 2.3854941391067950e+00 1.0127173483388946e+01 2 -3 0
5038 1 6.1463481272926321e+00 1.2585372140455298e+00 9.2364345254836024e+00 4 -2 1
3687 1 5.7416626388392675e+00 1.6228481145644114e+00 6.6231416584356975e+00 -2 -1 0
5306 1 8.0597032213829127e+00 2.9950135260204758e+00 1.0186911356634891e+01 1 3 0
1343 1 7.7709604271231116e+00 3.0125589720071067e+00 5.5250463241552632e+00 0 1 1
3432 1 1.0422818421797222e+01 2.1518581304281215e+00 9.3496419731691045e+00 -1 0 0
5024 1 1.0197600347863467e+01 2.2528468735862068e+00 6.5216233235143379e+00 1 0 1
1866 1 4.6460616469568644e-01 5.6590552335022020e+00 5.5008593722231769e+00 2 -1 0
4965 1 2.9762765609030577e+00 4.8692911396499925e+00 6.5532877802506437e+00 1 3 1
5551 1 3.0559293025088174e+00 4.7076066262329235e+00 9.2464967123269641e+00 2 -2 1
248 1 5.7890346872161580e-01 7.8954906676536050e+00 9.2303479669832118e+00 0 -1 0
5445 1 9.4424571436295113e-01 5.6392024802124077e+00 1.0245927404561368e+01 1 -1 0
3906 1 4.0580798873272589e-01 8.0491854387348010e+00 6.6305391016997142e+00 3 0 0
243 1 5.1073098776687882e+00 5.9711263460494681e+00 5.3212212040572533e+00 0 1 0
4743 1 7.2995119165231692e+00 5.3363607409563967e+00 6.4674696253951396e+00 1 1 0
5494 1 5.0920387642493079e+00 6.1522577855168032e+00 1.0085387787020858e+01 0 0 0
1995 1 7.5139440657271557e+00 5.4127213179903464e+00 9.3570075062502216e+00 2 1 0
1764 1 9.9553943272198939e+00 6.7974942959478568e+00 1.0112733468347770e+01 -1 -1 0
4989 1 1.1709308965306949e+01 8.3923165160601609e+00 1.3414049851797870e+01 -1 4 0
5341 1 1.2289629943157465e+01 6.2329038279908691e+00 6.2970335814030847e+00 1 -1 0
2012 1 1.2228056033832511e+01 6.1759018429591794e+00 1.6206399096616899e+00 -2 0 1
4709 1 2.4888530214999638e+00 9.4397512445043503e+00 5.6189343506395133e+00 2 -2 1
5257 1 2.4974109472757120e+00 9.5469500855746858e+00 1.0020784991461360e+01 -1 1 0
4838 1 4.5581355392461411e+00 1.1163741331654229e+01 1.3572287055045102e+01 -2 -1 1
6380 1 7.2474566623493990e+00 1.0356888189254349e+01 9.9670303075944560e+00 3 0 1
4766 1 5.0055265231186956e+00 8.5279355079490369e+00 9.0630135615365983e+00 -1 2 1
1537 1 4.9352422023692135e+00 8.5145915416542337e+00 6.3935185357655611e+00 5 2 1
3211 1 1.1447797440471929e+01 1.1191937966972890e+01 9.5982260916895825e+00 -2 4 1
6373 1 9.6630173136196991e+00 9.2489829468491092e+00 9.0451520867937791e+00 -1 0 1
1946 1 9.4338920941862234e+00 9.5107901142995885e+00 6.3538262559592456e+00 -1 2 0
126 1 1.1062448284213253e+00 3.1754857278183493e+00 1.3763375704136187e+01 2 -1 0
5534 1 3.4326921647012396e+00 2.3471092999056138e+00 1.2919276993285873e+01 1 2 0
6406 1 7.8177561421359378e+00 3.1560585864322199e+00 1.2817762092625868e+01 2 4 1
3500 1 5.3722523497940093e+00 3.5525229569261492e+00 1.3871323674081957e+01 -1 2 0
6633 1 2.1759810123513517e+00 1.2141531352384479e+01 5.9885276048670972e+00 2 -1 1
5194 1 1.1787167622517259e+01 1.0771792861912305e+01 1.2458344539061898e+01 -1 1 0
523 1 8.9279011733135605e-01 5.9021448380074046e+00 1.2870277138399130e+01 1 -4 1
4764 1 3.2503745620785356e+00 6.9017038980221139e+00 1.3626085681788018e+01 1 1 1
1416 1 7.3656527420405435e+00 7.8222372778874254e+00 1.3621905936222436e+01 -1 0 1
5583 1 5.7163630636789513e+00 6.1006244358641117e+00 1.2661863880712723e+01 -1 1 1
6703 1 1.0055448229740769e+01 4.5426462794911666e+00 1.3891221611119200e+01 0 1 1
3161 1 9.9512474261649526e+00 6.8782698722318640e+00 1.2697973064356120e+01 -2 1 1
4868 1 2.7312688351179086e+00 9.4568067559921634e+00 1.2653483744150421e+01 1 -1 0
2249 1 6.8994512327181434e+00 1.0489170772410251e+01 1.2552844698298426e+01 -1 2 1
56 1 1.2251653651170027e+01 5.9644537342965309e+00 9.0360027673015892e+00 1 4 0
6375 1 9.2544992934004231e+00 1.1543434865001776e+01 1.3317494299647759e+01 1 3 1
169 1 2.4343106699512194e+00 1.2069894234933871e+01 2.3033767867237964e+00 0 1 0
1580 1 4.1460002627491449e-01 1.0701353282021770e+01 1.3645968555006917e+01 0 2 0
1896 1 8.2559391443998908e+00 7.8413772045315977e-01 1.4008447005598967e+01 -1 1 0
415 1 1.2150932427086033e+01 3.3963761465762157e+00 1.2670135260515186e+01 -1 2 0
378 1 3.9620041516771249e+00 9.5339437290817841e-03 1.3901346349336958e+01 -2 4 1
3348 1 1.0764009045373670e+00 3.2096254181511141e+00 1.6553951694039014e+01 -1 -2 1
2031 1 3.2799811617084575e+00 2.5052925986271961e+00 1.7487168651912409e+01 1 1 0
5609 1 3.5630420348983440e+00 2.6125518376335908e+00 2.0080616830602420e+01 -1 1 0
3925 1 7.8593424281962658e+00 3.1074517651422631e+00 2.0299497853654838e+01 1 -1 1
5607 1 5.3433104993787905e+00 3.5621616143133399e+00 1.6410891753668679e+01 -1 3 1
3745 1 7.6366819398721777e+00 3.2727405528755704e+00 1.7625242684487265e+01 2 -1 0
1441 1 8.3736462819181465e+00 8.3716361361189717e-01 1.6822459739476567e+01 -1 3 1
3169 1 9.7910520632848197e-01 5.7694097915463400e+00 1.7424289767507094e+01 -3 3 1
6460 1 2.9908684007069986e+00 7.0029062009546559e+00 1.6338048687719052e+01 -1 2 0
5529 1 9.0309968414538511e-01 5.3682379054062590e+00 2.0033229120719557e+01 2 0 0
6598 1 5.1708012708669004e+00 6.6284294235359615e+00 1.7443864156426340e+01 -1 0 1
3668 1 7.2013711885571023e+00 7.8846537479612335e+00 1.6514720730189037e+01 0 0 1
6551 1 5.2715265548805839e+00 6.3379493256986112e+00 2.0063926089348364e+01 1 -1 1
1318 1 1.0128253073261327e+01 4.5276081688822734e+00 1.6717990247377692e+01 1 4 1
3795 1 9.7078345713870533e+00 7.1823090414568052e+00 1.7115642868208525e+01 2 1 0
4967 1 9.5751238904765810e+00 7.4593636875279534e+00 1.9838349097745649e+01 1 -1 1
3429 1 2.5470160691108394e+00 9.6214627173977743e+00 1.7185595057168115e+01 2 -2 1
792 2 8.6134999999999984e+00 1.0656442593567498e+01 2.6804735740815307e+01 0 0 0
2078 1 2.2112780041227618e+00 9.6047383415957555e+00 1.9706780328257452e+01 -1 3 0
3091 1 4.6712774280162694e+00 1.0970220650958671e+01 1.6112271336455983e+01 1 1 1
5619 1 7.1434164860684612e+00 1.0421962563672603e+01 1.7340094395471375e+01 3 3 1
5071 1 6.9419746354097631e+00 1.0560135542496221e+01 2.0021605204871864e+01 1 -2 1
3391 1 1.1633170412010310e+01 8.5239296596167105e+00 1.6113095304564339e+01 2 1 1
1830 1 1.1707810183007451e+01 1.1104423774164337e+01 1.7163192244727572e+01 -2 0 0
3076 1 1.1966490664243501e+01 6.6461287554990287e+00 2.0938778876999233e+01 4 -3 0
5323 1 1.1771445261732477e+01 1.1148829102378102e+01 1.9770108774736453e+01 1 1 0
3078 1 1.5060724117562752e+00 1.0477169138104929e+00 2.1108490365983961e+01 -1 1 1
341 1 1.3742826274293189e+00 1.6751120238988526e+00 2.3930226281138953e+01 0 -2 0
1744 1 3.6260345827440119e+00 3.5460393037107916e+00 2.3731415199114085e+01 1 2 0
5325 1 5.6994226740887948e+00 1.8293127346289122e+00 2.3398490706965724e+01 1 1 0
148 1 5.8854226703225603e+00 1.5155868474743364e+00 2.0858811444986095e+01 1 4 0
6369 1 1.0466922859347003e+01 2.5420771580140897e+00 2.1017122055303190e+01 3 2 1
146 1 1.0176746438103772e+01 2.5403723195113481e+00 2.3672352291609347e+01 2 -1 0
1758 1 7.7405120321075245e+00 4.0030823483727689e+00 2.4187289367749106e+01 -3 -2 1
48 1 5.8177496708222372e-02 1.0375242065394822e+01 1.6139172029931167e+01 -1 -1 0
2333 1 1.5336196762477057e+00 1.2183350029825174e+01 2.3946175151549120e+01 1 -1 1
6395 1 3.3020846306826979e+00 5.2178298565741663e+00 2.1238385577261926e+01 2 0 0
3657 1 2.4262585644960364e+00 6.2808948760815868e+00 2.3662094246138189e+01 3 1 0
3441 1 2.3980454292784351e-02 7.6331978903367546e+00 2.3522466295460479e+01 1 0 1
5013 1 7.7172850583267145e+00 5.8362099356947619e+00 2.1131501125835936e+01 -1 1 1
504 1 7.1009876465803687e+00 6.8799223045071098e+00 2.3700135780510887e+01 1 0 1
2995 1 4.6417135454240519e+00 7.9117948185382208e+00 2.3653055384396573e+01 -1 3 1
798 2 1.1074500000000002e+01 9.2355835810918343e+00 2.6804735740815307e+01 0 0 0
1832 1 1.1768967700223795e+01 6.8802627085276633e+00 2.3534314363998352e+01 1 0 0
751 2 8.6134999999999984e+00 9.2355835810918343e+00 2.6804735740815307e+01 0 0 0
796 2 9.8440000000000012e+00 8.5251540748539956e+00 2.6804735740815307e+01 0 0 0
3434 1 5.7211491756463340e-01 7.8906244199767031e+00 2.0916287347229712e+01 1 -4 0
794 2 9.8440000000000012e+00 1.1366872099805333e+01 2.6804735740815307e+01 0 0 0
3900 1 4.0574675313230664e+00 1.0881534582188914e+01 2.3328466326340045e+01 -2 -1 1
2143 1 4.5248186583846790e+00 8.9989373766601908e+00 2.0828996853422872e+01 1 0 0
244 1 9.3368214385177932e+00 1.1126047787129140e+01 2.3770047441790211e+01 2 2 0
3568 1 9.3663506365510916e+00 8.3430961292316788e+00 2.4305579713775817e+01 2 -2 0
3448 1 9.3965873207981776e+00 1.0157590623428383e+01 2.0910177685170069e+01 3 1 0
618 2 0.0000000000000000e+00 2.8417180249513345e+00 2.6804735740815307e+01 0 0 0
620 2 0.0000000000000000e+00 0.0000000000000000e+00 2.6804735740815307e+01 0 0 0
622 2 1.2305000000000001e+00 7.1042950623783474e-01 2.6804735740815307e+01 0 0 0
629 2 1.2305000000000001e+00 2.1312885187134998e+00 2.6804735740815307e+01 0 0 0
631 2 2.4610000000000003e+00 2.8417180249513345e+00 2.6804735740815307e+01 0 0 0
633 2 2.4610000000000003e+00 0.0000000000000000e+00 2.6804735740815307e+01 0 0 0
635 2 3.6915000000000004e+00 7.1042950623783474e-01 2.6804735740815307e+01 0 0 0
650 2 3.6914999999999996e+00 2.1312885187134998e+00 2.6804735740815307e+01 0 0 0
652 2 4.9220000000000006e+00 2.8417180249513332e+00 2.6804735740815307e+01 0 0 0
654 2 4.9220000000000006e+00 0.0000000000000000e+00 2.6804735740815307e+01 0 0 0
656 2 6.1524999999999999e+00 7.1042950623783407e-01 2.6804735740815307e+01 0 0 0
679 2 6.1524999999999999e+00 2.1312885187134989e+00 2.6804735740815307e+01 0 0 0
681 2 7.3829999999999991e+00 2.8417180249513345e+00 2.6804735740815307e+01 0 0 0
683 2 7.3829999999999991e+00 0.0000000000000000e+00 2.6804735740815307e+01 0 0 0
685 2 8.6134999999999984e+00 7.1042950623783407e-01 2.6804735740815307e+01 0 0 0
716 2 8.6134999999999984e+00 2.1312885187135002e+00 2.6804735740815307e+01 0 0 0
718 2 9.8440000000000012e+00 2.8417180249513332e+00 2.6804735740815307e+01 0 0 0
720 2 9.8440000000000012e+00 0.0000000000000000e+00 2.6804735740815307e+01 0 0 0
722 2 1.1074500000000002e+01 7.1042950623783330e-01 2.6804735740815307e+01 0 0 0
761 2 1.1074500000000002e+01 2.1312885187135002e+00 2.6804735740815307e+01 0 0 0
623 2 0.0000000000000000e+00 7.1042950623783341e+00 2.6804735740815307e+01 0 0 0
625 2 0.0000000000000000e+00 4.2625770374269996e+00 2.6804735740815307e+01 0 0 0
627 2 1.2305000000000001e+00 4.9730065436648339e+00 2.6804735740815307e+01 0 0 0
642 2 1.2305000000000001e+00 6.3938655561404980e+00 2.6804735740815307e+01 0 0 0
644 2 2.4610000000000003e+00 7.1042950623783341e+00 2.6804735740815307e+01 0 0 0
646 2 2.4610000000000003e+00 4.2625770374269996e+00 2.6804735740815307e+01 0 0 0
648 2 3.6914999999999996e+00 4.9730065436648339e+00 2.6804735740815307e+01 0 0 0
671 2 3.6914999999999996e+00 6.3938655561404980e+00 2.6804735740815307e+01 0 0 0
673 2 4.9220000000000006e+00 7.1042950623783341e+00 2.6804735740815307e+01 0 0 0
675 2 4.9220000000000006e+00 4.2625770374269978e+00 2.6804735740815307e+01 0 0 0
677 2 6.1524999999999999e+00 4.9730065436648339e+00 2.6804735740815307e+01 0 0 0
708 2 6.1524999999999999e+00 6.3938655561404980e+00 2.6804735740815307e+01 0 0 0
710 2 7.3830000000000009e+00 7.1042950623783341e+00 2.6804735740815307e+01 0 0 0
712 2 7.3829999999999991e+00 4.2625770374269996e+00 2.6804735740815307e+01 0 0 0
714 2 8.6135000000000002e+00 4.9730065436648339e+00 2.6804735740815307e+01 0 0 0
753 2 8.6135000000000002e+00 6.3938655561404980e+00 2.6804735740815307e+01 0 0 0
755 2 9.8440000000000012e+00 7.1042950623783341e+00 2.6804735740815307e+01 0 0 0
757 2 9.8440000000000012e+00 4.2625770374270004e+00 2.6804735740815307e+01 0 0 0
759 2 1.1074500000000002e+01 4.9730065436648339e+00 2.6804735740815307e+01 0 0 0
800 2 1.1074500000000002e+01 6.3938655561404980e+00 2.6804735740815307e+01 0 0 0
669 2 3.6915000000000004e+00 9.2355835810918343e+00 2.6804735740815307e+01 0 0 0
636 2 0.0000000000000000e+00 1.1366872099805333e+01 2.6804735740815307e+01 0 0 0
700 2 3.6914999999999996e+00 1.0656442593567499e+01 2.6804735740815307e+01 0 0 0
638 2 0.0000000000000000e+00 8.5251540748539991e+00 2.6804735740815307e+01 0 0 0
665 2 2.4610000000000003e+00 1.1366872099805333e+01 2.6804735740815307e+01 0 0 0
640 2 1.2305000000000001e+00 9.2355835810918343e+00 2.6804735740815307e+01 0 0 0
663 2 1.2305000000000001e+00 1.0656442593567498e+01 2.6804735740815307e+01 0 0 0
667 2 2.4610000000000003e+00 8.5251540748539991e+00 2.6804735740815307e+01 0 0 0
706 2 6.1524999999999999e+00 9.2355835810918343e+00 2.6804735740815307e+01 0 0 0
747 2 7.3829999999999991e+00 1.1366872099805333e+01 2.6804735740815307e+01 0 0 0
704 2 4.9220000000000006e+00 8.5251540748539991e+00 2.6804735740815307e+01 0 0 0
749 2 7.3830000000000009e+00 8.5251540748539991e+00 2.6804735740815307e+01 0 0 0
702 2 4.9220000000000006e+00 1.1366872099805333e+01 2.6804735740815307e+01 0 0 0
745 2 6.1524999999999999e+00 1.0656442593567499e+01 2.6804735740815307e+01 0 0 0
841 2 1.2304999999999998e+01 1.1366872099805333e+01 2.6804735740815307e+01 0 0 0
839 2 1.1074500000000002e+01 1.0656442593567498e+01 2.6804735740815307e+01 0 0 0
320 1 9.3022399775864066e+00 1.1842124144944229e+01 1.6166360095123416e+01 2 1 0
5036 1 2.2029404087075308e+00 1.2228781766686588e+01 2.1028330306100152e+01 0 0 1
619 2 0.0000000000000000e+00 1.4208590124756650e+00 3.0030999999992339e+01 0 0 0
621 2 0.0000000000000000e+00 0.0000000000000000e+00 3.0030999999992339e+01 0 0 0
628 2 1.2305000000000001e+00 3.5521475311891644e+00 3.0030999999992339e+01 0 0 0
630 2 1.2305000000000001e+00 2.1312885187134998e+00 3.0030999999992339e+01 0 0 0
632 2 2.4610000000000003e+00 1.4208590124756650e+00 3.0030999999992339e+01 0 0 0
634 2 2.4610000000000003e+00 0.0000000000000000e+00 3.0030999999992339e+01 0 0 0
649 2 3.6914999999999996e+00 3.5521475311891644e+00 3.0030999999992339e+01 0 0 0
651 2 3.6914999999999996e+00 2.1312885187134998e+00 3.0030999999992339e+01 0 0 0
947 2 0.0000000000000000e+00 2.8417180249513345e+00 3.3257264259177816e+01 0 0 0
948 2 0.0000000000000000e+00 0.0000000000000000e+00 3.3257264259177816e+01 0 0 0
949 2 1.2305000000000001e+00 7.1042950623783474e-01 3.3257264259177816e+01 0 0 0
953 2 1.2305000000000001e+00 2.1312885187134998e+00 3.3257264259177816e+01 0 0 0
954 2 2.4610000000000003e+00 2.8417180249513345e+00 3.3257264259177816e+01 0 0 0
955 2 2.4610000000000003e+00 0.0000000000000000e+00 3.3257264259177816e+01 0 0 0
956 2 3.6915000000000004e+00 7.1042950623783474e-01 3.3257264259177816e+01 0 0 0
964 2 3.6914999999999996e+00 2.1312885187134998e+00 3.3257264259177816e+01 0 0 0
653 2 4.9220000000000006e+00 1.4208590124756650e+00 3.0030999999992339e+01 0 0 0
655 2 4.9220000000000006e+00 0.0000000000000000e+00 3.0030999999992339e+01 0 0 0
678 2 6.1524999999999999e+00 3.5521475311891644e+00 3.0030999999992339e+01 0 0 0
680 2 6.1524999999999999e+00 2.1312885187134989e+00 3.0030999999992339e+01 0 0 0
682 2 7.3829999999999991e+00 1.4208590124756659e+00 3.0030999999992339e+01 0 0 0
684 2 7.3829999999999991e+00 0.0000000000000000e+00 3.0030999999992339e+01 0 0 0
965 2 4.9220000000000006e+00 2.8417180249513332e+00 3.3257264259177816e+01 0 0 0
966 2 4.9220000000000006e+00 0.0000000000000000e+00 3.3257264259177816e+01 0 0 0
967 2 6.1524999999999999e+00 7.1042950623783407e-01 3.3257264259177816e+01 0 0 0
979 2 6.1524999999999999e+00 2.1312885187134989e+00 3.3257264259177816e+01 0 0 0
980 2 7.3829999999999991e+00 2.8417180249513345e+00 3.3257264259177816e+01 0 0 0
981 2 7.3829999999999991e+00 0.0000000000000000e+00 3.3257264259177816e+01 0 0 0
715 2 8.6134999999999984e+00 3.5521475311891657e+00 3.0030999999992339e+01 0 0 0
717 2 8.6134999999999984e+00 2.1312885187135002e+00 3.0030999999992339e+01 0 0 0
719 2 9.8440000000000012e+00 1.4208590124756659e+00 3.0030999999992339e+01 0 0 0
721 2 9.8440000000000012e+00 0.0000000000000000e+00 3.0030999999992339e+01 0 0 0
760 2 1.1074500000000002e+01 3.5521475311891644e+00 3.0030999999992339e+01 0 0 0
762 2 1.1074500000000002e+01 2.1312885187135002e+00 3.0030999999992339e+01 0 0 0
982 2 8.6134999999999984e+00 7.1042950623783407e-01 3.3257264259177816e+01 0 0 0
998 2 8.6134999999999984e+00 2.1312885187135002e+00 3.3257264259177816e+01 0 0 0
999 2 9.8440000000000012e+00 2.8417180249513332e+00 3.3257264259177816e+01 0 0 0
1000 2 9.8440000000000012e+00 0.0000000000000000e+00 3.3257264259177816e+01 0 0 0
1001 2 1.1074500000000002e+01 7.1042950623783330e-01 3.3257264259177816e+01 0 0 0
1021 2 1.1074500000000002e+01 2.1312885187135002e+00 3.3257264259177816e+01 0 0 0
624 2 0.0000000000000000e+00 5.6834360499026637e+00 3.0030999999992339e+01 0 0 0
626 2 0.0000000000000000e+00 4.2625770374269996e+00 3.0030999999992339e+01 0 0 0
641 2 1.2305000000000001e+00 7.8147245686161639e+00 3.0030999999992339e+01 0 0 0
643 2 1.2305000000000001e+00 6.3938655561404980e+00 3.0030999999992339e+01 0 0 0
645 2 2.4610000000000003e+00 5.6834360499026637e+00 3.0030999999992339e+01 0 0 0
647 2 2.4610000000000003e+00 4.2625770374269996e+00 3.0030999999992339e+01 0 0 0
670 2 3.6914999999999996e+00 7.8147245686161639e+00 3.0030999999992339e+01 0 0 0
672 2 3.6914999999999996e+00 6.3938655561404980e+00 3.0030999999992339e+01 0 0 0
950 2 0.0000000000000000e+00 7.1042950623783341e+00 3.3257264259177816e+01 0 0 0
951 2 0.0000000000000000e+00 4.2625770374269996e+00 3.3257264259177816e+01 0 0 0
952 2 1.2305000000000001e+00 4.9730065436648339e+00 3.3257264259177816e+01 0 0 0
960 2 1.2305000000000001e+00 6.3938655561404980e+00 3.3257264259177816e+01 0 0 0
961 2 2.4610000000000003e+00 7.1042950623783341e+00 3.3257264259177816e+01 0 0 0
962 2 2.4610000000000003e+00 4.2625770374269996e+00 3.3257264259177816e+01 0 0 0
963 2 3.6914999999999996e+00 4.9730065436648339e+00 3.3257264259177816e+01 0 0 0
975 2 3.6914999999999996e+00 6.3938655561404980e+00 3.3257264259177816e+01 0 0 0
674 2 4.9220000000000006e+00 5.6834360499026637e+00 3.0030999999992339e+01 0 0 0
676 2 4.9220000000000006e+00 4.2625770374269978e+00 3.0030999999992339e+01 0 0 0
707 2 6.1524999999999999e+00 7.8147245686161639e+00 3.0030999999992339e+01 0 0 0
709 2 6.1524999999999999e+00 6.3938655561404980e+00 3.0030999999992339e+01 0 0 0
711 2 7.3829999999999991e+00 5.6834360499026637e+00 3.0030999999992339e+01 0 0 0
713 2 7.3829999999999991e+00 4.2625770374269996e+00 3.0030999999992339e+01 0 0 0
976 2 4.9220000000000006e+00 7.1042950623783341e+00 3.3257264259177816e+01 0 0 0
977 2 4.9220000000000006e+00 4.2625770374269978e+00 3.3257264259177816e+01 0 0 0
978 2 6.1524999999999999e+00 4.9730065436648339e+00 3.3257264259177816e+01 0 0 0
994 2 6.1524999999999999e+00 6.3938655561404980e+00 3.3257264259177816e+01 0 0 0
995 2 7.3830000000000009e+00 7.1042950623783341e+00 3.3257264259177816e+01 0 0 0
996 2 7.3829999999999991e+00 4.2625770374269996e+00 3.3257264259177816e+01 0 0 0
752 2 8.6135000000000002e+00 7.8147245686161639e+00 3.0030999999992339e+01 0 0 0
754 2 8.6135000000000002e+00 6.3938655561404980e+00 3.0030999999992339e+01 0 0 0
756 2 9.8440000000000012e+00 5.6834360499026637e+00 3.0030999999992339e+01 0 0 0
758 2 9.8440000000000012e+00 4.2625770374270004e+00 3.0030999999992339e+01 0 0 0
799 2 1.1074500000000002e+01 7.8147245686161639e+00 3.0030999999992339e+01 0 0 0
801 2 1.1074500000000002e+01 6.3938655561404980e+00 3.0030999999992339e+01 0 0 0
997 2 8.6135000000000002e+00 4.9730065436648339e+00 3.3257264259177816e+01 0 0 0
1017 2 8.6135000000000002e+00 6.3938655561404980e+00 3.3257264259177816e+01 0 0 0
1018 2 9.8440000000000012e+00 7.1042950623783341e+00 3.3257264259177816e+01 0 0 0
1019 2 9.8440000000000012e+00 4.2625770374270004e+00 3.3257264259177816e+01 0 0 0
1020 2 1.1074500000000002e+01 4.9730065436648339e+00 3.3257264259177816e+01 0 0 0
1041 2 1.1074500000000002e+01 6.3938655561404980e+00 3.3257264259177816e+01 0 0 0
637 2 0.0000000000000000e+00 9.9460130873296642e+00 3.0030999999992339e+01 0 0 0
639 2 0.0000000000000000e+00 8.5251540748539991e+00 3.0030999999992339e+01 0 0 0
662 2 1.2305000000000001e+00 1.2077301606043163e+01 3.0030999999992339e+01 0 0 0
664 2 1.2305000000000001e+00 1.0656442593567498e+01 3.0030999999992339e+01 0 0 0
666 2 2.4610000000000003e+00 9.9460130873296642e+00 3.0030999999992339e+01 0 0 0
668 2 2.4610000000000003e+00 8.5251540748539991e+00 3.0030999999992339e+01 0 0 0
699 2 3.6914999999999996e+00 1.2077301606043163e+01 3.0030999999992339e+01 0 0 0
701 2 3.6914999999999996e+00 1.0656442593567499e+01 3.0030999999992339e+01 0 0 0
957 2 0.0000000000000000e+00 1.1366872099805333e+01 3.3257264259177816e+01 0 0 0
958 2 0.0000000000000000e+00 8.5251540748539991e+00 3.3257264259177816e+01 0 0 0
959 2 1.2305000000000001e+00 9.2355835810918343e+00 3.3257264259177816e+01 0 0 0
971 2 1.2305000000000001e+00 1.0656442593567498e+01 3.3257264259177816e+01 0 0 0
972 2 2.4610000000000003e+00 1.1366872099805333e+01 3.3257264259177816e+01 0 0 0
973 2 2.4610000000000003e+00 8.5251540748539991e+00 3.3257264259177816e+01 0 0 0
974 2 3.6915000000000004e+00 9.2355835810918343e+00 3.3257264259177816e+01 0 0 0
990 2 3.6914999999999996e+00 1.0656442593567499e+01 3.3257264259177816e+01 0 0 0
703 2 4.9220000000000006e+00 9.9460130873296642e+00 3.0030999999992339e+01 0 0 0
705 2 4.9220000000000006e+00 8.5251540748539991e+00 3.0030999999992339e+01 0 0 0
744 2 6.1524999999999999e+00 1.2077301606043163e+01 3.0030999999992339e+01 0 0 0
746 2 6.1524999999999999e+00 1.0656442593567499e+01 3.0030999999992339e+01 0 0 0
748 2 7.3830000000000009e+00 9.9460130873296642e+00 3.0030999999992339e+01 0 0 0
750 2 7.3830000000000009e+00 8.5251540748539991e+00 3.0030999999992339e+01 0 0 0
991 2 4.9220000000000006e+00 1.1366872099805333e+01 3.3257264259177816e+01 0 0 0
992 2 4.9220000000000006e+00 8.5251540748539991e+00 3.3257264259177816e+01 0 0 0
993 2 6.1524999999999999e+00 9.2355835810918343e+00 3.3257264259177816e+01 0 0 0
1013 2 6.1524999999999999e+00 1.0656442593567499e+01 3.3257264259177816e+01 0 0 0
1014 2 7.3829999999999991e+00 1.1366872099805333e+01 3.3257264259177816e+01 0 0 0
1015 2 7.3830000000000009e+00 8.5251540748539991e+00 3.3257264259177816e+01 0 0 0
791 2 8.6135000000000002e+00 1.2077301606043163e+01 3.0030999999992339e+01 0 0 0
793 2 8.6134999999999984e+00 1.0656442593567498e+01 3.0030999999992339e+01 0 0 0
795 2 9.8440000000000012e+00 9.9460130873296642e+00 3.0030999999992339e+01 0 0 0
797 2 9.8440000000000012e+00 8.5251540748539956e+00 3.0030999999992339e+01 0 0 0
838 2 1.1074500000000002e+01 1.2077301606043163e+01 3.0030999999992339e+01 0 0 0
840 2 1.1074500000000002e+01 1.0656442593567498e+01 3.0030999999992339e+01 0 0 0
1016 2 8.6134999999999984e+00 9.2355835810918343e+00 3.3257264259177816e+01 0 0 0
1037 2 8.6134999999999984e+00 1.0656442593567498e+01 3.3257264259177816e+01 0 0 0
1038 2 9.8440000000000012e+00 1.1366872099805333e+01 3.3257264259177816e+01 0 0 0
1039 2 9.8440000000000012e+00 8.5251540748539956e+00 3.3257264259177816e+01 0 0 0
1040 2 1.1074500000000002e+01 9.2355835810918343e+00 3.3257264259177816e+01 0 0 0
1061 2 1.1074500000000002e+01 1.0656442593567498e+01 3.3257264259177816e+01 0 0 0
1062 2 1.2304999999999998e+01 1.1366872099805333e+01 3.3257264259177816e+01 0 0 0
5386 1 3.2386576866030925e+00 1.9983812634208478e+00 3.9823946089171656e+01 3 1 0
3799 1 3.3521798693884404e+00 1.7245644256378028e+00 3.7115468928598574e+01 -1 1 0
2021 1 1.4849511950574721e+00 2.8540910409894721e-01 4.3001367679971054e+01 0 2 0
3494 1 7.9362561178398447e+00 2.7268785355279936e+00 3.9196428425374791e+01 1 0 -1
5238 1 7.9479462512724224e+00 2.7308759872332624e+00 3.6754060812752058e+01 2 1 -1
3121 1 1.0243670109026779e+01 1.8703526706337863e+00 3.5514570074867734e+01 -1 2 -1
349 1 3.1389216013134118e+00 4.3112848251096141e+00 3.5728428381849980e+01 3 2 -1
115 1 9.4401252920260181e-01 4.7982658987972542e+00 3.7214407337733078e+01 3 2 -1
4782 1 8.5876825841852289e-01 5.1210724720135259e+00 3.9780932730853863e+01 1 2 0
3682 1 8.4258443804513572e-01 7.6183239591768777e+00 3.6296260129364512e+01 4 0 -1
3766 1 5.3866834123308633e+00 5.9435370479395022e+00 3.9386627362249314e+01 -1 1 -1
3752 1 4.8452434238465765e+00 6.2970782338967934e+00 3.6735828678488957e+01 -1 2 -1
4808 1 7.2973304504142966e+00 5.2410926342469235e+00 3.6110631643046204e+01 -1 2 -1
5086 1 2.5320457674314150e+00 1.1707972444697580e+01 4.0016326133555566e+01 2 3 0
5502 1 9.2582106316156949e+00 7.2199002722870160e+00 3.6705122379064647e+01 1 -2 -1
5635 1 9.6140882773552345e+00 6.8332442544495580e+00 3.9175275823347789e+01 0 -1 0
6381 1 3.1248512509251372e+00 9.2956251795042348e+00 3.9287606648766882e+01 -2 0 0
2056 1 3.5203842352105750e+00 8.6657925384660999e+00 3.6764664729451169e+01 0 1 -1
517 1 9.1332476239743805e+00 1.1703251977572092e+01 4.3719443069743676e+01 -1 -1 -1
1721 1 5.3251107283090322e+00 1.0684445750332094e+01 3.5847725124545534e+01 -2 3 -1
5293 1 7.0888884426401519e+00 1.0226924467137085e+01 3.8903751980136605e+01 -1 0 -1
5674 1 7.8038490889902450e+00 9.7460737990487925e+00 3.6504399627344114e+01 5 0 0
1364 1 9.8374211343242131e+00 1.1204858189439028e+01 3.5951612212085280e+01 0 0 0
6347 1 1.1695910005516600e+01 1.1020729829527928e+01 3.9181727544537765e+01 0 1 0
3463 1 9.4143412980753300e+00 9.4464779269199610e+00 4.0034356183249315e+01 2 3 -1
6429 1 5.8981276840207784e+00 1.2190389825120056e+00 3.6136180595553739e+01 0 2 0
1509 1 9.4720257494045179e-01 2.7702798316998316e+00 4.3732729594902651e+01 -1 -2 0
5007 1 1.1737379600340068e+01 8.3891604806301885e+00 4.3702509785605343e+01 -1 3 0
2116 1 6.1531243005046541e+00 1.3777569893337132e+00 4.0228471631430835e+01 2 1 -1
1922 1 6.1569916223258065e+00 1.4552165339607457e+00 4.2847929628605172e+01 2 0 -1
4916 1 5.6231030167630962e+00 3.7763822945696135e+00 4.4106384543076146e+01 -3 1 0
6489 1 4.9446552724266779e-01 1.0331768688974128e+01 4.3921285852849479e+01 -2 3 -1
4981 1 1.0224525269188343e+01 1.9178218669670821e+00 4.0047703895505038e+01 -2 0 0
488 1 1.0336312586553687e+01 1.9565192612996041e+00 4.2729440480499989e+01 2 0 -1
2131 1 3.5691454067929778e+00 4.4670793106468025e+00 4.0634443195551128e+01 0 1 -1
3205 1 3.1855338310430317e+00 6.9730386657392449e+00 4.3935873196259124e+01 3 3 0
1474 1 3.2229069204472696e+00 4.3350697077906020e+00 4.3203411259240170e+01 0 1 -1
2229 1 8.7962674532174534e-01 8.0223165708197133e+00 4.0016143193093583e+01 -3 2 -1
84 1 7.4384733723375207e-01 8.3675750035783025e+00 4.2526304939476688e+01 2 -1 0
3325 1 7.6081914022301325e+00 5.3691466890225126e+00 4.0171409324105937e+01 -4 0 0
1980 1 7.3628934209850403e+00 5.3098321942530937e+00 4.3096411088663956e+01 2 -1 -1
1662 1 7.2107805803379916e+00 7.9427066562765098e+00 4.3833690851229633e+01 2 0 0
3103 1 9.9334794820439303e+00 4.2053260046345784e+00 4.3855715226790636e+01 -1 3 0
3136 1 1.2606806404294562e+00 1.7173443298040153e-01 4.0307537591390968e+01 -2 0 -1
1640 1 8.4823810689045889e+00 4.2835575278995180e-01 4.3815536181396453e+01 2 1 0
213 1 4.7514997557997170e+00 8.4852538703270568e+00 4.2699757731221410e+01 5 1 -1
1808 1 4.4277339550076791e+00 1.1117775254470732e+01 4.3802437573550421e+01 1 -2 -1
6512 1 5.3254373190596365e+00 8.4502328540519240e+00 4.0111600013528204e+01 -1 1 0
465 1 9.6796476729501464e+00 9.2433125858908802e+00 4.2671571810910720e+01 -1 3 -1
1940 1 1.2010562694019274e+01 6.1108656232559406e+00 4.0170279636884104e+01 1 0 -1
5064 1 2.1839362516337655e+00 1.2170824766934995e+01 4.2672702173605856e+01 -2 0 -1
37 1 1.2038515503648796e+01 5.9955368580146056e+00 4.2965327997177468e+01 2 0 0
617 1 1.1521720713836160e+01 6.3337881902406776e+00 3.5769068703947056e+01 2 2 0
6476 1 1.1931576052943448e+01 3.8426436286171763e+00 3.6687077353083083e+01 1 0 0
1686 1 1.2131648286474457e+01 3.6620025149851525e+00 3.9467829784853990e+01 0 1 0
3156 1 1.2201212411973248e+00 2.8711667897116584e+00 4.6391279209397013e+01 -1 3 0