LAMMPS data file via write_data, version 16 Mar 2018, timestep = 100000

4560 atoms
2 atom types

0.0000000000000000e+00 4.9219999999999999e+01 xlo xhi
0.0000000000000000e+00 4.9019635930410494e+01 ylo yhi
1.2343623889167343e+00 3.2705637611083290e+01 zlo zhi

Masses

1 18.015
2 12.01

Atoms # atomic

147 2 0.0000000000000000e+00 2.8417180249513345e+00 3.3205779155160218e+00 0 0 0
149 2 0.0000000000000000e+00 0.0000000000000000e+00 3.3205779155160218e+00 0 0 0
151 2 1.2305000000000001e+00 7.1042950623783474e-01 3.3205779155160218e+00 0 0 0
158 2 1.2305000000000001e+00 2.1312885187134998e+00 3.3205779155160218e+00 0 0 0
160 2 2.4610000000000003e+00 2.8417180249513345e+00 3.3205779155160218e+00 0 0 0
162 2 2.4610000000000003e+00 0.0000000000000000e+00 3.3205779155160218e+00 0 0 0
164 2 3.6915000000000004e+00 7.1042950623783474e-01 3.3205779155160218e+00 0 0 0
179 2 3.6914999999999996e+00 2.1312885187134998e+00 3.3205779155160218e+00 0 0 0
181 2 4.9220000000000006e+00 2.8417180249513332e+00 3.3205779155160218e+00 0 0 0
183 2 4.9220000000000006e+00 0.0000000000000000e+00 3.3205779155160218e+00 0 0 0
185 2 6.1524999999999999e+00 7.1042950623783407e-01 3.3205779155160218e+00 0 0 0
208 2 6.1524999999999999e+00 2.1312885187134989e+00 3.3205779155160218e+00 0 0 0
210 2 7.3829999999999991e+00 2.8417180249513345e+00 3.3205779155160218e+00 0 0 0
212 2 7.3829999999999991e+00 0.0000000000000000e+00 3.3205779155160218e+00 0 0 0
214 2 8.6134999999999984e+00 7.1042950623783407e-01 3.3205779155160218e+00 0 0 0
245 2 8.6134999999999984e+00 2.1312885187135002e+00 3.3205779155160218e+00 0 0 0
247 2 9.8440000000000012e+00 2.8417180249513332e+00 3.3205779155160218e+00 0 0 0
249 2 9.8440000000000012e+00 0.0000000000000000e+00 3.3205779155160218e+00 0 0 0
251 2 1.1074500000000002e+01 7.1042950623783330e-01 3.3205779155160218e+00 0 0 0
290 2 1.1074500000000002e+01 2.1312885187135002e+00 3.3205779155160218e+00 0 0 0
154 2 0.0000000000000000e+00 4.2625770374269996e+00 3.3205779155160218e+00 0 0 0
156 2 1.2305000000000001e+00 4.9730065436648339e+00 3.3205779155160218e+00 0 0 0
171 2 1.2305000000000001e+00 6.3938655561404980e+00 3.3205779155160218e+00 0 0 0
175 2 2.4610000000000003e+00 4.2625770374269996e+00 3.3205779155160218e+00 0 0 0
177 2 3.6914999999999996e+00 4.9730065436648339e+00 3.3205779155160218e+00 0 0 0
200 2 3.6914999999999996e+00 6.3938655561404980e+00 3.3205779155160218e+00 0 0 0
152 2 0.0000000000000000e+00 7.1042950623783341e+00 3.3205779155160218e+00 0 0 0
173 2 2.4610000000000003e+00 7.1042950623783341e+00 3.3205779155160218e+00 0 0 0
204 2 4.9220000000000006e+00 4.2625770374269978e+00 3.3205779155160218e+00 0 0 0
206 2 6.1524999999999999e+00 4.9730065436648339e+00 3.3205779155160218e+00 0 0 0
237 2 6.1524999999999999e+00 6.3938655561404980e+00 3.3205779155160218e+00 0 0 0
241 2 7.3829999999999991e+00 4.2625770374269996e+00 3.3205779155160218e+00 0 0 0
202 2 4.9220000000000006e+00 7.1042950623783341e+00 3.3205779155160218e+00 0 0 0
239 2 7.3830000000000009e+00 7.1042950623783341e+00 3.3205779155160218e+00 0 0 0
243 2 8.6135000000000002e+00 4.9730065436648339e+00 3.3205779155160218e+00 0 0 0
282 2 8.6135000000000002e+00 6.3938655561404980e+00 3.3205779155160218e+00 0 0 0
286 2 9.8440000000000012e+00 4.2625770374270004e+00 3.3205779155160218e+00 0 0 0
288 2 1.1074500000000002e+01 4.9730065436648339e+00 3.3205779155160218e+00 0 0 0
329 2 1.1074500000000002e+01 6.3938655561404980e+00 3.3205779155160218e+00 0 0 0
284 2 9.8440000000000012e+00 7.1042950623783341e+00 3.3205779155160218e+00 0 0 0
167 2 0.0000000000000000e+00 8.5251540748539991e+00 3.3205779155160218e+00 0 0 0
169 2 1.2305000000000001e+00 9.2355835810918343e+00 3.3205779155160218e+00 0 0 0
196 2 2.4610000000000003e+00 8.5251540748539991e+00 3.3205779155160218e+00 0 0 0
198 2 3.6915000000000004e+00 9.2355835810918343e+00 3.3205779155160218e+00 0 0 0
165 2 0.0000000000000000e+00 1.1366872099805333e+01 3.3205779155160218e+00 0 0 0
192 2 1.2305000000000001e+00 1.0656442593567498e+01 3.3205779155160218e+00 0 0 0
194 2 2.4610000000000003e+00 1.1366872099805333e+01 3.3205779155160218e+00 0 0 0
229 2 3.6914999999999996e+00 1.0656442593567499e+01 3.3205779155160218e+00 0 0 0
233 2 4.9220000000000006e+00 8.5251540748539991e+00 3.3205779155160218e+00 0 0 0
235 2 6.1524999999999999e+00 9.2355835810918343e+00 3.3205779155160218e+00 0 0 0
278 2 7.3830000000000009e+00 8.5251540748539991e+00 3.3205779155160218e+00 0 0 0
231 2 4.9220000000000006e+00 1.1366872099805333e+01 3.3205779155160218e+00 0 0 0
274 2 6.1524999999999999e+00 1.0656442593567499e+01 3.3205779155160218e+00 0 0 0
276 2 7.3829999999999991e+00 1.1366872099805333e+01 3.3205779155160218e+00 0 0 0
280 2 8.6134999999999984e+00 9.2355835810918343e+00 3.3205779155160218e+00 0 0 0
325 2 9.8440000000000012e+00 8.5251540748539956e+00 3.3205779155160218e+00 0 0 0
327 2 1.1074500000000002e+01 9.2355835810918343e+00 3.3205779155160218e+00 0 0 0
321 2 8.6134999999999984e+00 1.0656442593567498e+01 3.3205779155160218e+00 0 0 0
323 2 9.8440000000000012e+00 1.1366872099805333e+01 3.3205779155160218e+00 0 0 0
368 2 1.1074500000000002e+01 1.0656442593567498e+01 3.3205779155160218e+00 0 0 0
370 2 1.2304999999999998e+01 1.1366872099805333e+01 3.3205779155160218e+00 0 0 0
148 2 0.0000000000000000e+00 1.4208590124756650e+00 6.3141149371179237e+00 0 0 0
150 2 0.0000000000000000e+00 0.0000000000000000e+00 6.3141149371179237e+00 0 0 0
159 2 1.2305000000000001e+00 2.1312885187134998e+00 6.3141149371179237e+00 0 0 0
161 2 2.4610000000000003e+00 1.4208590124756650e+00 6.3141149371179237e+00 0 0 0
163 2 2.4610000000000003e+00 0.0000000000000000e+00 6.3141149371179237e+00 0 0 0
180 2 3.6914999999999996e+00 2.1312885187134998e+00 6.3141149371179237e+00 0 0 0
157 2 1.2305000000000001e+00 3.5521475311891644e+00 6.3141149371179237e+00 0 0 0
178 2 3.6914999999999996e+00 3.5521475311891644e+00 6.3141149371179237e+00 0 0 0
182 2 4.9220000000000006e+00 1.4208590124756650e+00 6.3141149371179237e+00 0 0 0
184 2 4.9220000000000006e+00 0.0000000000000000e+00 6.3141149371179237e+00 0 0 0
209 2 6.1524999999999999e+00 2.1312885187134989e+00 6.3141149371179237e+00 0 0 0
211 2 7.3829999999999991e+00 1.4208590124756659e+00 6.3141149371179237e+00 0 0 0
213 2 7.3829999999999991e+00 0.0000000000000000e+00 6.3141149371179237e+00 0 0 0
207 2 6.1524999999999999e+00 3.5521475311891644e+00 6.3141149371179237e+00 0 0 0
246 2 8.6134999999999984e+00 2.1312885187135002e+00 6.3141149371179237e+00 0 0 0
248 2 9.8440000000000012e+00 1.4208590124756659e+00 6.3141149371179237e+00 0 0 0
250 2 9.8440000000000012e+00 0.0000000000000000e+00 6.3141149371179237e+00 0 0 0
291 2 1.1074500000000002e+01 2.1312885187135002e+00 6.3141149371179237e+00 0 0 0
244 2 8.6134999999999984e+00 3.5521475311891657e+00 6.3141149371179237e+00 0 0 0
289 2 1.1074500000000002e+01 3.5521475311891644e+00 6.3141149371179237e+00 0 0 0
153 2 0.0000000000000000e+00 5.6834360499026637e+00 6.3141149371179237e+00 0 0 0
155 2 0.0000000000000000e+00 4.2625770374269996e+00 6.3141149371179237e+00 0 0 0
172 2 1.2305000000000001e+00 6.3938655561404980e+00 6.3141149371179237e+00 0 0 0
174 2 2.4610000000000003e+00 5.6834360499026637e+00 6.3141149371179237e+00 0 0 0
176 2 2.4610000000000003e+00 4.2625770374269996e+00 6.3141149371179237e+00 0 0 0
201 2 3.6914999999999996e+00 6.3938655561404980e+00 6.3141149371179237e+00 0 0 0
170 2 1.2305000000000001e+00 7.8147245686161639e+00 6.3141149371179237e+00 0 0 0
199 2 3.6914999999999996e+00 7.8147245686161639e+00 6.3141149371179237e+00 0 0 0
203 2 4.9220000000000006e+00 5.6834360499026637e+00 6.3141149371179237e+00 0 0 0
205 2 4.9220000000000006e+00 4.2625770374269978e+00 6.3141149371179237e+00 0 0 0
238 2 6.1524999999999999e+00 6.3938655561404980e+00 6.3141149371179237e+00 0 0 0
240 2 7.3829999999999991e+00 5.6834360499026637e+00 6.3141149371179237e+00 0 0 0
242 2 7.3829999999999991e+00 4.2625770374269996e+00 6.3141149371179237e+00 0 0 0
236 2 6.1524999999999999e+00 7.8147245686161639e+00 6.3141149371179237e+00 0 0 0
283 2 8.6135000000000002e+00 6.3938655561404980e+00 6.3141149371179237e+00 0 0 0
285 2 9.8440000000000012e+00 5.6834360499026637e+00 6.3141149371179237e+00 0 0 0
287 2 9.8440000000000012e+00 4.2625770374270004e+00 6.3141149371179237e+00 0 0 0
330 2 1.1074500000000002e+01 6.3938655561404980e+00 6.3141149371179237e+00 0 0 0
281 2 8.6135000000000002e+00 7.8147245686161639e+00 6.3141149371179237e+00 0 0 0
328 2 1.1074500000000002e+01 7.8147245686161639e+00 6.3141149371179237e+00 0 0 0
166 2 0.0000000000000000e+00 9.9460130873296642e+00 6.3141149371179237e+00 0 0 0
168 2 0.0000000000000000e+00 8.5251540748539991e+00 6.3141149371179237e+00 0 0 0
195 2 2.4610000000000003e+00 9.9460130873296642e+00 6.3141149371179237e+00 0 0 0
197 2 2.4610000000000003e+00 8.5251540748539991e+00 6.3141149371179237e+00 0 0 0
191 2 1.2305000000000001e+00 1.2077301606043163e+01 6.3141149371179237e+00 0 0 0
193 2 1.2305000000000001e+00 1.0656442593567498e+01 6.3141149371179237e+00 0 0 0
228 2 3.6914999999999996e+00 1.2077301606043163e+01 6.3141149371179237e+00 0 0 0
230 2 3.6914999999999996e+00 1.0656442593567499e+01 6.3141149371179237e+00 0 0 0
232 2 4.9220000000000006e+00 9.9460130873296642e+00 6.3141149371179237e+00 0 0 0
234 2 4.9220000000000006e+00 8.5251540748539991e+00 6.3141149371179237e+00 0 0 0
277 2 7.3830000000000009e+00 9.9460130873296642e+00 6.3141149371179237e+00 0 0 0
279 2 7.3830000000000009e+00 8.5251540748539991e+00 6.3141149371179237e+00 0 0 0
273 2 6.1524999999999999e+00 1.2077301606043163e+01 6.3141149371179237e+00 0 0 0
275 2 6.1524999999999999e+00 1.0656442593567499e+01 6.3141149371179237e+00 0 0 0
326 2 9.8440000000000012e+00 8.5251540748539956e+00 6.3141149371179237e+00 0 0 0
320 2 8.6135000000000002e+00 1.2077301606043163e+01 6.3141149371179237e+00 0 0 0
322 2 8.6134999999999984e+00 1.0656442593567498e+01 6.3141149371179237e+00 0 0 0
369 2 1.1074500000000002e+01 1.0656442593567498e+01 6.3141149371179237e+00 0 0 0
367 2 1.1074500000000002e+01 1.2077301606043163e+01 6.3141149371179237e+00 0 0 0
324 2 9.8440000000000012e+00 9.9460130873296642e+00 6.3141149371179237e+00 0 0 0
476 2 0.0000000000000000e+00 2.8417180249513345e+00 9.3076519587198341e+00 0 0 0
477 2 0.0000000000000000e+00 0.0000000000000000e+00 9.3076519587198341e+00 0 0 0
478 2 1.2305000000000001e+00 7.1042950623783474e-01 9.3076519587198341e+00 0 0 0
482 2 1.2305000000000001e+00 2.1312885187134998e+00 9.3076519587198341e+00 0 0 0
483 2 2.4610000000000003e+00 2.8417180249513345e+00 9.3076519587198341e+00 0 0 0
484 2 2.4610000000000003e+00 0.0000000000000000e+00 9.3076519587198341e+00 0 0 0
485 2 3.6915000000000004e+00 7.1042950623783474e-01 9.3076519587198341e+00 0 0 0
493 2 3.6914999999999996e+00 2.1312885187134998e+00 9.3076519587198341e+00 0 0 0
1024 1 1.7115670830260974e+00 2.8797167305356823e+00 1.2039899435619057e+01 1 0 0
65 1 7.9948850626792831e+00 8.1770163498064452e+00 1.4927738486998596e+01 1 -1 0
494 2 4.9220000000000006e+00 2.8417180249513332e+00 9.3076519587198341e+00 0 0 0
495 2 4.9220000000000006e+00 0.0000000000000000e+00 9.3076519587198341e+00 0 0 0
496 2 6.1524999999999999e+00 7.1042950623783407e-01 9.3076519587198341e+00 0 0 0
508 2 6.1524999999999999e+00 2.1312885187134989e+00 9.3076519587198341e+00 0 0 0
509 2 7.3829999999999991e+00 2.8417180249513345e+00 9.3076519587198341e+00 0 0 0
510 2 7.3829999999999991e+00 0.0000000000000000e+00 9.3076519587198341e+00 0 0 0
2160 1 6.4806819270198570e+00 2.8976215018527212e+00 1.1989003536835630e+01 0 0 0
511 2 8.6134999999999984e+00 7.1042950623783407e-01 9.3076519587198341e+00 0 0 0
527 2 8.6134999999999984e+00 2.1312885187135002e+00 9.3076519587198341e+00 0 0 0
528 2 9.8440000000000012e+00 2.8417180249513332e+00 9.3076519587198341e+00 0 0 0
529 2 9.8440000000000012e+00 0.0000000000000000e+00 9.3076519587198341e+00 0 0 0
530 2 1.1074500000000002e+01 7.1042950623783330e-01 9.3076519587198341e+00 0 0 0
550 2 1.1074500000000002e+01 2.1312885187135002e+00 9.3076519587198341e+00 0 0 0
68 1 1.1469365219011380e+01 1.2412155337773039e+00 1.1741660626894017e+01 0 0 0
3331 1 1.1407749334488994e+01 3.9692340147566649e+00 1.1656677900412804e+01 -1 1 0
932 1 9.6311015360351053e+00 1.8470725843977656e+00 1.6917953954847366e+01 1 0 0
480 2 0.0000000000000000e+00 4.2625770374269996e+00 9.3076519587198341e+00 0 0 0
481 2 1.2305000000000001e+00 4.9730065436648339e+00 9.3076519587198341e+00 0 0 0
489 2 1.2305000000000001e+00 6.3938655561404980e+00 9.3076519587198341e+00 0 0 0
491 2 2.4610000000000003e+00 4.2625770374269996e+00 9.3076519587198341e+00 0 0 0
492 2 3.6914999999999996e+00 4.9730065436648339e+00 9.3076519587198341e+00 0 0 0
504 2 3.6914999999999996e+00 6.3938655561404980e+00 9.3076519587198341e+00 0 0 0
479 2 0.0000000000000000e+00 7.1042950623783341e+00 9.3076519587198341e+00 0 0 0
490 2 2.4610000000000003e+00 7.1042950623783341e+00 9.3076519587198341e+00 0 0 0
4469 1 3.5931306689869582e+00 7.1666952052042499e+00 1.2055406784368962e+01 1 1 0
3443 1 8.8072341563236805e+00 7.7433684465138253e+00 1.1888665929494104e+01 -1 0 0
1982 1 4.1032834351170884e+00 4.4273090660405963e+00 1.2243240007950442e+01 1 1 0
506 2 4.9220000000000006e+00 4.2625770374269978e+00 9.3076519587198341e+00 0 0 0
507 2 6.1524999999999999e+00 4.9730065436648339e+00 9.3076519587198341e+00 0 0 0
523 2 6.1524999999999999e+00 6.3938655561404980e+00 9.3076519587198341e+00 0 0 0
525 2 7.3829999999999991e+00 4.2625770374269996e+00 9.3076519587198341e+00 0 0 0
505 2 4.9220000000000006e+00 7.1042950623783341e+00 9.3076519587198341e+00 0 0 0
524 2 7.3830000000000009e+00 7.1042950623783341e+00 9.3076519587198341e+00 0 0 0
3142 1 1.7014053708314925e+00 2.5517674326094046e+00 1.5031048163754146e+01 1 1 0
526 2 8.6135000000000002e+00 4.9730065436648339e+00 9.3076519587198341e+00 0 0 0
546 2 8.6135000000000002e+00 6.3938655561404980e+00 9.3076519587198341e+00 0 0 0
548 2 9.8440000000000012e+00 4.2625770374270004e+00 9.3076519587198341e+00 0 0 0
549 2 1.1074500000000002e+01 4.9730065436648339e+00 9.3076519587198341e+00 0 0 0
570 2 1.1074500000000002e+01 6.3938655561404980e+00 9.3076519587198341e+00 0 0 0
547 2 9.8440000000000012e+00 7.1042950623783341e+00 9.3076519587198341e+00 0 0 0
3445 1 6.1916425613264536e+00 8.7660369330086159e+00 1.2229137522571493e+01 1 0 0
2067 1 2.5968248698735676e+00 1.4891179851600111e-01 1.1556907952257943e+01 0 0 0
487 2 0.0000000000000000e+00 8.5251540748539991e+00 9.3076519587198341e+00 0 0 0
488 2 1.2305000000000001e+00 9.2355835810918343e+00 9.3076519587198341e+00 0 0 0
502 2 2.4610000000000003e+00 8.5251540748539991e+00 9.3076519587198341e+00 0 0 0
503 2 3.6915000000000004e+00 9.2355835810918343e+00 9.3076519587198341e+00 0 0 0
486 2 0.0000000000000000e+00 1.1366872099805333e+01 9.3076519587198341e+00 0 0 0
500 2 1.2305000000000001e+00 1.0656442593567498e+01 9.3076519587198341e+00 0 0 0
501 2 2.4610000000000003e+00 1.1366872099805333e+01 9.3076519587198341e+00 0 0 0
519 2 3.6914999999999996e+00 1.0656442593567499e+01 9.3076519587198341e+00 0 0 0
975 1 6.6527441544868609e+00 1.1379328730987577e+01 1.1964519662456777e+01 1 0 0
521 2 4.9220000000000006e+00 8.5251540748539991e+00 9.3076519587198341e+00 0 0 0
522 2 6.1524999999999999e+00 9.2355835810918343e+00 9.3076519587198341e+00 0 0 0
544 2 7.3830000000000009e+00 8.5251540748539991e+00 9.3076519587198341e+00 0 0 0
520 2 4.9220000000000006e+00 1.1366872099805333e+01 9.3076519587198341e+00 0 0 0
542 2 6.1524999999999999e+00 1.0656442593567499e+01 9.3076519587198341e+00 0 0 0
543 2 7.3829999999999991e+00 1.1366872099805333e+01 9.3076519587198341e+00 0 0 0
2293 1 1.1443383357780410e+01 7.9740271454478284e+00 1.2294190461814555e+01 1 1 0
2257 1 1.0223652966808341e+01 9.3613592977658868e+00 1.5986293152311868e+01 0 1 0
545 2 8.6134999999999984e+00 9.2355835810918343e+00 9.3076519587198341e+00 0 0 0
568 2 9.8440000000000012e+00 8.5251540748539956e+00 9.3076519587198341e+00 0 0 0
569 2 1.1074500000000002e+01 9.2355835810918343e+00 9.3076519587198341e+00 0 0 0
566 2 8.6134999999999984e+00 1.0656442593567498e+01 9.3076519587198341e+00 0 0 0
567 2 9.8440000000000012e+00 1.1366872099805333e+01 9.3076519587198341e+00 0 0 0
590 2 1.1074500000000002e+01 1.0656442593567498e+01 9.3076519587198341e+00 0 0 0
591 2 1.2304999999999998e+01 1.1366872099805333e+01 9.3076519587198341e+00 0 0 0
3359 1 2.3979735226701080e+00 9.7523385086698191e+00 1.4244036494307274e+01 1 -1 0
4290 1 1.1823496037873646e+01 6.8091674777088320e+00 1.4700591179591427e+01 1 0 0
4439 1 7.9529522097104310e+00 3.0509216827351517e+00 1.4904249922306121e+01 0 1 0
4468 1 5.6481165805030198e+00 2.1492714759601825e+00 1.5806087631562807e+01 0 0 0
2088 1 5.3142772584373503e+00 9.8738185939829552e+00 1.4904406736205011e+01 0 -1 0
55 1 3.2224881313382547e+00 1.1152550063086892e+01 1.1802517621780101e+01 1 0 0
947 1 4.1136812966932137e+00 4.3440907223106953e+00 1.5105373166161826e+01 -1 0 -1
2314 1 2.5597385735251690e+00 6.7393996281495880e+00 1.4635546442274949e+01 1 0 1
2328 1 7.6090441697783398e+00 5.5942665020850599e+00 1.5861852577165440e+01 0 0 0
2242 1 8.6841956106466593e+00 4.7273629530760326e+00 1.2101260577951725e+01 0 1 0
4497 1 8.5890533479355717e+00 5.1910089202951426e-01 1.2815749622656982e+01 1 1 0
4514 1 9.6264464080002270e+00 1.1819860207663428e+01 1.2225686547296304e+01 1 1 -1
3264 1 1.1667546374296820e+00 9.0602343200080728e+00 1.1551072814668766e+01 1 0 0
3551 1 5.4169334145237551e+00 3.5202061792582140e-01 1.1936073266724428e+01 1 1 0
122 1 1.2138425588307641e+01 1.0646823892323527e+01 1.1882656838977956e+01 1 0 0
3534 1 9.9475658281891217e+00 1.1948306472693293e+01 1.4887133841460388e+01 0 1 0
913 1 9.0110181402760858e-01 1.2254804985684466e+01 1.5067860441125383e+01 0 0 0
966 1 3.6640035939215814e+00 8.2101293491927354e+00 1.6911382265028333e+01 1 -1 -1
3213 1 5.5256655276073054e+00 1.1835473208493147e+01 2.3904834018406909e+01 0 0 -1
74 1 6.3599347248185865e+00 9.0547956090666109e+00 2.3112649208141981e+01 1 0 0
2096 1 1.7331916448815647e+00 1.6707597343803544e+00 1.7970973024131560e+01 0 -1 0
3195 1 1.0236373320140046e-01 5.3103614219887900e+00 2.3325301112362844e+01 0 0 0
3411 1 9.4257907110610422e+00 1.4896260345820089e+00 2.2427588608684459e+01 1 0 0
2101 1 9.2273715952849855e+00 8.3139316809855379e-01 1.9552960325283294e+01 1 0 0
4382 1 4.2265736986757823e+00 1.1239811720594131e+01 1.7603404019223333e+01 0 2 0
3175 1 7.9705266019036858e-01 2.0729485450682161e+00 2.0501692855498305e+01 1 1 -1
4319 1 2.3869150588272423e+00 6.0017983240878863e+00 1.9664527056349385e+01 1 1 0
4405 1 5.3280137208252683e+00 1.8926827147620948e+00 1.8876023130006423e+01 0 0 0
3215 1 6.0606944282301516e+00 5.7092388083099195e+00 1.8210404217682040e+01 0 0 0
832 1 7.1704671310185146e+00 3.4729906005800446e+00 2.0249797977659703e+01 0 1 0
2155 1 1.0040649206113883e+01 3.9416642890279645e+00 1.9458697453625255e+01 0 1 0
1244 1 9.3784434320647865e+00 8.6282787159650898e+00 2.2674312285650046e+01 0 1 0
3412 1 3.5590612030947852e+00 8.1555889376276145e+00 2.1412395524802037e+01 1 0 0
3405 1 5.2617961722682454e+00 8.1326340923705942e+00 1.9179916861939823e+01 1 0 -1
3208 1 7.2067507462361302e+00 9.9391209064211079e+00 2.0414797909105616e+01 1 0 0
40 1 3.5877053815294904e+00 3.9655724580804526e+00 1.7961762144943222e+01 0 1 0
1237 1 9.3960514038082028e+00 9.8287064765393932e+00 1.8666406702566903e+01 1 1 1
125 1 1.1362789185793279e+01 1.0536919563580685e+01 2.1433832414366961e+01 0 -1 0
3430 1 1.1951798408968690e+00 8.5461959713548854e+00 1.8640949475044714e+01 1 0 0
3319 1 2.5289108462935568e+00 1.6287952880245837e+00 2.2729547917757024e+01 1 0 0
3279 1 9.1026299237964512e+00 4.3636571812337355e+00 2.3146074801207554e+01 0 0 0
1999 1 4.5926677211047702e+00 3.0079714941430300e+00 2.4677107708653011e+01 0 1 0
16 1 1.5157305108093857e+00 1.1798928013700211e+01 1.7678829677825412e+01 0 -1 0
3287 1 1.0015585639652395e+01 5.7167035258783896e+00 1.7002018048161005e+01 1 1 0
2278 1 1.1922451433040418e+01 1.3626086233979307e+00 2.1799519466921055e+01 -1 0 0
866 1 5.4307922502489498e+00 6.4598639548062833e+00 2.3572089877998458e+01 0 0 0
1150 1 6.3874035196316639e+00 4.1623749330463324e+00 2.2964989969320023e+01 0 0 -1
2234 1 2.3121397151591228e+00 7.0668813261110568e+00 2.4191547215001727e+01 0 0 0
1071 1 1.6724803089659674e+00 9.8848437330619987e+00 2.4290334364769436e+01 1 0 -1
4509 1 1.0211708891884447e+01 6.1647875124036355e+00 2.1470031878443969e+01 1 0 0
2034 1 1.4923602567629952e+00 1.0198291687188854e+01 2.1222590219953915e+01 0 1 0
2035 1 1.0942029267868062e+01 7.3914447734457944e+00 1.8933503875203506e+01 1 1 -1
834 1 1.3356513859696445e-01 4.7484214966880014e+00 2.0682940275200401e+01 0 0 0
2301 1 3.6111543937995272e+00 1.1574619451999036e+01 3.1993352751253653e+01 1 0 0
1985 1 8.1334844610201031e+00 9.7747111044305814e+00 2.9253685168087479e+01 0 0 0
3549 1 7.9140641700285661e+00 1.0102697258113484e+01 3.2035116505113791e+01 0 1 0
2330 1 1.0237269410335005e+01 2.2564609420958615e+00 2.7469128731431368e+01 1 0 0
2230 1 5.6611160800287346e+00 4.2529755494507987e-01 2.8475058889714873e+01 1 1 -1
3426 1 3.4562146364566959e+00 4.1963818689230958e+00 2.9195717301326020e+01 0 1 -1
3444 1 6.1934791001859546e+00 6.5518521178112170e+00 3.2129147834503932e+01 -1 0 0
2229 1 2.7572763373742739e+00 4.4837896670741162e-01 3.1602697874948753e+01 0 1 0
4540 1 4.1655934647415114e+00 1.1029869069094493e+01 2.8002424110071615e+01 1 1 0
4512 1 1.0809652499695860e+01 9.7573716556677024e+00 3.2309463567800336e+01 1 0 0
134 1 8.6036553973522523e+00 4.1400497890368824e+00 2.5948185336558112e+01 0 0 0
3344 1 3.6466616189880146e+00 5.4051082238238486e+00 2.6135060185938066e+01 0 1 0
3554 1 6.5410079280201385e+00 6.4790112277217338e+00 2.6691289615975350e+01 0 1 0
991 1 1.0126906403459875e+01 6.0132724423138564e+00 2.7242714067979406e+01 0 0 0
2228 1 1.4013181563575086e+00 9.9288591085638025e+00 2.8887865446194738e+01 0 0 0
70 1 5.2859511126671907e-02 8.8568779784919673e+00 2.6863376191740223e+01 0 0 0
4353 1 6.8235490028657191e+00 1.1252442014092226e+01 2.6827501013341738e+01 1 1 0
1296 1 4.7885075364754357e+00 8.5848106359811460e+00 2.8996763224955572e+01 0 0 0
1025 1 1.1555933828016807e+01 1.0011471753964758e+01 2.7064607677626235e+01 1 0 0
4411 1 5.2103595073248936e+00 9.1141353859754943e+00 3.1748925281276996e+01 1 1 0
2339 1 2.9529159833183716e-01 4.5040960158729035e+00 3.1877648114779078e+01 0 1 0
3375 1 7.7777576816572145e+00 8.7495856591535652e+00 2.5791348558056043e+01 0 0 0
4346 1 1.1815986703726935e+01 2.3541274888989157e+00 2.9759910846554391e+01 1 0 -1
3165 1 1.1407755333844788e+01 3.5244868193084983e-01 2.5791814295301492e+01 0 1 0
4402 1 1.0714460394096823e+00 2.5849327005735891e+00 2.8721107321347439e+01 1 1 0
2279 1 4.2732826349729247e-01 1.8228232227459078e+00 3.1452771577388859e+01 1 0 -1
3166 1 5.9298166964281211e+00 3.1218940708781293e+00 2.9627255737670176e+01 1 0 -1
4459 1 5.3706532137560545e+00 2.2010745720153158e+00 3.2061500566665742e+01 0 1 0
1234 1 1.0950263106601369e+01 3.2173786699321338e+00 3.2403279327346709e+01 0 1 1
3509 1 8.6073099247095648e+00 4.1894020464983006e+00 2.9557928326891748e+01 -1 1 1
1143 1 2.6524109734023300e+00 6.8097946138707561e+00 2.9177231405982077e+01 0 0 0
4503 1 2.1959655852018320e+00 6.8246231318017969e+00 3.1885220720273324e+01 1 1 -1
1253 1 7.3849437438172680e+00 6.7905315692847887e+00 2.9339747124749231e+01 1 1 -1
863 1 4.0525223972473068e+00 4.8870922413090776e+00 3.2275341934951896e+01 0 0 0
4338 1 1.0587215644782892e+01 8.0684576229967124e+00 2.5567493412601777e+01 0 0 0
1272 1 8.8696760077553858e+00 5.2501828181693702e+00 3.2127164981494211e+01 0 -1 0
2119 1 1.0774578522025967e+01 8.2639116297812105e+00 2.9161233168762145e+01 1 0 -1
4424 1 1.1382257335118336e+01 6.7732370460900286e+00 3.1727810630098688e+01 1 1 0
2087 1 9.6915185748986621e-01 6.3549548675048380e+00 2.6767622851584939e+01 0 -1 0
1046 1 9.8870890632584019e-01 9.8881911595768539e+00 3.1605032537844203e+01 0 0 0
2251 1 6.0968890875103803e+00 7.7369722145649988e-01 2.5844399638543862e+01 0 0 -1
3508 1 3.3911911170528697e+00 1.1582434561456010e+01 2.5421465808442065e+01 1 0 0
3259 1 1.2296300571956431e+01 1.2142422857664139e+01 3.2416101230051353e+01 2 0 0
3266 1 1.0145998991434988e+01 3.9603714900169901e-01 3.1971274851646804e+01 0 0 0
2175 1 1.2176379634197838e+01 4.9866408962035589e+00 2.5299278309950296e+01 0 0 0
4500 1 9.9471278828036240e+00 1.1965248614568631e+01 2.7670828602870174e+01 1 0 -1
2296 1 7.3212366368373365e+00 1.2288374966914262e-02 3.1822557520469353e+01 0 1 0
1273 1 1.2222832037463502e+00 1.7632425176735467e-02 2.7693036161000592e+01 1 1 0
188 2 0.0000000000000000e+00 1.2787731112280996e+01 3.3205779155160218e+00 0 0 0
190 2 1.2305000000000001e+00 1.3498160618518829e+01 3.3205779155160218e+00 0 0 0
225 2 2.4610000000000003e+00 1.2787731112280996e+01 3.3205779155160218e+00 0 0 0
227 2 3.6915000000000004e+00 1.3498160618518829e+01 3.3205779155160218e+00 0 0 0
186 2 0.0000000000000000e+00 1.5629449137232333e+01 3.3205779155160218e+00 0 0 0
221 2 1.2305000000000001e+00 1.4919019630994494e+01 3.3205779155160218e+00 0 0 0
223 2 2.4610000000000003e+00 1.5629449137232328e+01 3.3205779155160218e+00 0 0 0
266 2 3.6915000000000004e+00 1.4919019630994494e+01 3.3205779155160218e+00 0 0 0
270 2 4.9220000000000006e+00 1.2787731112280996e+01 3.3205779155160218e+00 0 0 0
272 2 6.1524999999999990e+00 1.3498160618518829e+01 3.3205779155160218e+00 0 0 0
317 2 7.3829999999999991e+00 1.2787731112280996e+01 3.3205779155160218e+00 0 0 0
268 2 4.9220000000000006e+00 1.5629449137232333e+01 3.3205779155160218e+00 0 0 0
313 2 6.1524999999999990e+00 1.4919019630994494e+01 3.3205779155160218e+00 0 0 0
315 2 7.3829999999999991e+00 1.5629449137232333e+01 3.3205779155160218e+00 0 0 0
319 2 8.6135000000000002e+00 1.3498160618518835e+01 3.3205779155160218e+00 0 0 0
364 2 9.8440000000000012e+00 1.2787731112280996e+01 3.3205779155160218e+00 0 0 0
366 2 1.1074500000000002e+01 1.3498160618518829e+01 3.3205779155160218e+00 0 0 0
360 2 8.6135000000000002e+00 1.4919019630994494e+01 3.3205779155160218e+00 0 0 0
362 2 9.8440000000000012e+00 1.5629449137232328e+01 3.3205779155160218e+00 0 0 0
402 2 1.1074500000000002e+01 1.4919019630994494e+01 3.3205779155160218e+00 0 0 0
217 2 0.0000000000000000e+00 1.7050308149707998e+01 3.3205779155160218e+00 0 0 0
262 2 2.4610000000000003e+00 1.7050308149707998e+01 3.3205779155160218e+00 0 0 0
215 2 0.0000000000000000e+00 1.9892026174659328e+01 3.3205779155160218e+00 0 0 0
219 2 1.2305000000000001e+00 1.7760737655945832e+01 3.3205779155160218e+00 0 0 0
258 2 1.2305000000000001e+00 1.9181596668421495e+01 3.3205779155160218e+00 0 0 0
260 2 2.4610000000000003e+00 1.9892026174659328e+01 3.3205779155160218e+00 0 0 0
264 2 3.6914999999999996e+00 1.7760737655945832e+01 3.3205779155160218e+00 0 0 0
305 2 3.6914999999999996e+00 1.9181596668421495e+01 3.3205779155160218e+00 0 0 0
309 2 4.9220000000000006e+00 1.7050308149707998e+01 3.3205779155160218e+00 0 0 0
356 2 7.3830000000000009e+00 1.7050308149707998e+01 3.3205779155160218e+00 0 0 0
307 2 4.9220000000000006e+00 1.9892026174659328e+01 3.3205779155160218e+00 0 0 0
311 2 6.1524999999999999e+00 1.7760737655945832e+01 3.3205779155160218e+00 0 0 0
352 2 6.1524999999999999e+00 1.9181596668421495e+01 3.3205779155160218e+00 0 0 0
354 2 7.3829999999999991e+00 1.9892026174659328e+01 3.3205779155160218e+00 0 0 0
398 2 9.8440000000000012e+00 1.7050308149707998e+01 3.3205779155160218e+00 0 0 0
432 2 1.2304999999999998e+01 1.7050308149707998e+01 3.3205779155160218e+00 0 0 0
358 2 8.6134999999999984e+00 1.7760737655945832e+01 3.3205779155160218e+00 0 0 0
394 2 8.6135000000000002e+00 1.9181596668421495e+01 3.3205779155160218e+00 0 0 0
396 2 9.8440000000000012e+00 1.9892026174659335e+01 3.3205779155160218e+00 0 0 0
400 2 1.1074500000000002e+01 1.7760737655945835e+01 3.3205779155160218e+00 0 0 0
428 2 1.1074500000000002e+01 1.9181596668421495e+01 3.3205779155160218e+00 0 0 0
252 2 0.0000000000000000e+00 2.4154603212086325e+01 3.3205779155160218e+00 0 0 0
254 2 0.0000000000000000e+00 2.1312885187134999e+01 3.3205779155160218e+00 0 0 0
256 2 1.2304999999999993e+00 2.2023314693372832e+01 3.3205779155160218e+00 0 0 0
297 2 1.2304999999999993e+00 2.3444173705848499e+01 3.3205779155160218e+00 0 0 0
299 2 2.4610000000000003e+00 2.4154603212086325e+01 3.3205779155160218e+00 0 0 0
301 2 2.4610000000000003e+00 2.1312885187134995e+01 3.3205779155160218e+00 0 0 0
303 2 3.6914999999999996e+00 2.2023314693372832e+01 3.3205779155160218e+00 0 0 0
344 2 3.6915000000000004e+00 2.3444173705848499e+01 3.3205779155160218e+00 0 0 0
393 2 8.6134999999999984e+00 2.0602455680897162e+01 6.3141149371179237e+00 0 0 0
346 2 4.9220000000000006e+00 2.4154603212086325e+01 3.3205779155160218e+00 0 0 0
348 2 4.9220000000000006e+00 2.1312885187134995e+01 3.3205779155160218e+00 0 0 0
350 2 6.1524999999999990e+00 2.2023314693372832e+01 3.3205779155160218e+00 0 0 0
386 2 6.1524999999999999e+00 2.3444173705848499e+01 3.3205779155160218e+00 0 0 0
388 2 7.3830000000000009e+00 2.4154603212086336e+01 3.3205779155160218e+00 0 0 0
390 2 7.3829999999999991e+00 2.1312885187134999e+01 3.3205779155160218e+00 0 0 0
392 2 8.6135000000000002e+00 2.2023314693372832e+01 3.3205779155160218e+00 0 0 0
420 2 8.6134999999999984e+00 2.3444173705848499e+01 3.3205779155160218e+00 0 0 0
422 2 9.8440000000000012e+00 2.4154603212086336e+01 3.3205779155160218e+00 0 0 0
424 2 9.8440000000000012e+00 2.1312885187134999e+01 3.3205779155160218e+00 0 0 0
426 2 1.1074500000000002e+01 2.2023314693372832e+01 3.3205779155160218e+00 0 0 0
446 2 1.1074500000000002e+01 2.3444173705848499e+01 3.3205779155160218e+00 0 0 0
189 2 0.0000000000000000e+00 1.2787731112280996e+01 6.3141149371179237e+00 0 0 0
226 2 2.4610000000000003e+00 1.2787731112280996e+01 6.3141149371179237e+00 0 0 0
187 2 0.0000000000000000e+00 1.4208590124756663e+01 6.3141149371179237e+00 0 0 0
222 2 1.2305000000000001e+00 1.4919019630994494e+01 6.3141149371179237e+00 0 0 0
224 2 2.4610000000000003e+00 1.4208590124756663e+01 6.3141149371179237e+00 0 0 0