LAMMPS data file via write_data, version 16 Mar 2018, timestep = 8000000

4560 atoms
2 atom types

0.0000000000000000e+00 4.9219999999999999e+01 xlo xhi
0.0000000000000000e+00 4.9019635930410494e+01 ylo yhi
6.4513709928898066e-01 3.3294862900707415e+01 zlo zhi

Masses

1 18.015
2 12.01

Atoms # atomic

147 2 0.0000000000000000e+00 2.8417180249513345e+00 2.8094715415788789e+00 0 0 0
149 2 0.0000000000000000e+00 0.0000000000000000e+00 2.8094715415788789e+00 0 0 0
151 2 1.2305000000000001e+00 7.1042950623783474e-01 2.8094715415788789e+00 0 0 0
158 2 1.2305000000000001e+00 2.1312885187134998e+00 2.8094715415788789e+00 0 0 0
160 2 2.4610000000000003e+00 2.8417180249513345e+00 2.8094715415788789e+00 0 0 0
162 2 2.4610000000000003e+00 0.0000000000000000e+00 2.8094715415788789e+00 0 0 0
164 2 3.6915000000000004e+00 7.1042950623783474e-01 2.8094715415788789e+00 0 0 0
179 2 3.6914999999999996e+00 2.1312885187134998e+00 2.8094715415788789e+00 0 0 0
181 2 4.9220000000000006e+00 2.8417180249513332e+00 2.8094715415788789e+00 0 0 0
183 2 4.9220000000000006e+00 0.0000000000000000e+00 2.8094715415788789e+00 0 0 0
185 2 6.1524999999999999e+00 7.1042950623783407e-01 2.8094715415788789e+00 0 0 0
208 2 6.1524999999999999e+00 2.1312885187134989e+00 2.8094715415788789e+00 0 0 0
210 2 7.3829999999999991e+00 2.8417180249513345e+00 2.8094715415788789e+00 0 0 0
212 2 7.3829999999999991e+00 0.0000000000000000e+00 2.8094715415788789e+00 0 0 0
214 2 8.6134999999999984e+00 7.1042950623783407e-01 2.8094715415788789e+00 0 0 0
245 2 8.6134999999999984e+00 2.1312885187135002e+00 2.8094715415788789e+00 0 0 0
247 2 9.8440000000000012e+00 2.8417180249513332e+00 2.8094715415788789e+00 0 0 0
249 2 9.8440000000000012e+00 0.0000000000000000e+00 2.8094715415788789e+00 0 0 0
251 2 1.1074500000000002e+01 7.1042950623783330e-01 2.8094715415788789e+00 0 0 0
290 2 1.1074500000000002e+01 2.1312885187135002e+00 2.8094715415788789e+00 0 0 0
154 2 0.0000000000000000e+00 4.2625770374269996e+00 2.8094715415788789e+00 0 0 0
156 2 1.2305000000000001e+00 4.9730065436648339e+00 2.8094715415788789e+00 0 0 0
171 2 1.2305000000000001e+00 6.3938655561404980e+00 2.8094715415788789e+00 0 0 0
175 2 2.4610000000000003e+00 4.2625770374269996e+00 2.8094715415788789e+00 0 0 0
177 2 3.6914999999999996e+00 4.9730065436648339e+00 2.8094715415788789e+00 0 0 0
200 2 3.6914999999999996e+00 6.3938655561404980e+00 2.8094715415788789e+00 0 0 0
152 2 0.0000000000000000e+00 7.1042950623783341e+00 2.8094715415788789e+00 0 0 0
173 2 2.4610000000000003e+00 7.1042950623783341e+00 2.8094715415788789e+00 0 0 0
204 2 4.9220000000000006e+00 4.2625770374269978e+00 2.8094715415788789e+00 0 0 0
206 2 6.1524999999999999e+00 4.9730065436648339e+00 2.8094715415788789e+00 0 0 0
237 2 6.1524999999999999e+00 6.3938655561404980e+00 2.8094715415788789e+00 0 0 0
241 2 7.3829999999999991e+00 4.2625770374269996e+00 2.8094715415788789e+00 0 0 0
202 2 4.9220000000000006e+00 7.1042950623783341e+00 2.8094715415788789e+00 0 0 0
239 2 7.3830000000000009e+00 7.1042950623783341e+00 2.8094715415788789e+00 0 0 0
243 2 8.6135000000000002e+00 4.9730065436648339e+00 2.8094715415788789e+00 0 0 0
282 2 8.6135000000000002e+00 6.3938655561404980e+00 2.8094715415788789e+00 0 0 0
286 2 9.8440000000000012e+00 4.2625770374270004e+00 2.8094715415788789e+00 0 0 0
288 2 1.1074500000000002e+01 4.9730065436648339e+00 2.8094715415788789e+00 0 0 0
329 2 1.1074500000000002e+01 6.3938655561404980e+00 2.8094715415788789e+00 0 0 0
284 2 9.8440000000000012e+00 7.1042950623783341e+00 2.8094715415788789e+00 0 0 0
167 2 0.0000000000000000e+00 8.5251540748539991e+00 2.8094715415788789e+00 0 0 0
169 2 1.2305000000000001e+00 9.2355835810918343e+00 2.8094715415788789e+00 0 0 0
196 2 2.4610000000000003e+00 8.5251540748539991e+00 2.8094715415788789e+00 0 0 0
198 2 3.6915000000000004e+00 9.2355835810918343e+00 2.8094715415788789e+00 0 0 0
165 2 0.0000000000000000e+00 1.1366872099805333e+01 2.8094715415788789e+00 0 0 0
192 2 1.2305000000000001e+00 1.0656442593567498e+01 2.8094715415788789e+00 0 0 0
194 2 2.4610000000000003e+00 1.1366872099805333e+01 2.8094715415788789e+00 0 0 0
229 2 3.6914999999999996e+00 1.0656442593567499e+01 2.8094715415788789e+00 0 0 0
233 2 4.9220000000000006e+00 8.5251540748539991e+00 2.8094715415788789e+00 0 0 0
235 2 6.1524999999999999e+00 9.2355835810918343e+00 2.8094715415788789e+00 0 0 0
278 2 7.3830000000000009e+00 8.5251540748539991e+00 2.8094715415788789e+00 0 0 0
231 2 4.9220000000000006e+00 1.1366872099805333e+01 2.8094715415788789e+00 0 0 0
274 2 6.1524999999999999e+00 1.0656442593567499e+01 2.8094715415788789e+00 0 0 0
276 2 7.3829999999999991e+00 1.1366872099805333e+01 2.8094715415788789e+00 0 0 0
280 2 8.6134999999999984e+00 9.2355835810918343e+00 2.8094715415788789e+00 0 0 0
325 2 9.8440000000000012e+00 8.5251540748539956e+00 2.8094715415788789e+00 0 0 0
327 2 1.1074500000000002e+01 9.2355835810918343e+00 2.8094715415788789e+00 0 0 0
321 2 8.6134999999999984e+00 1.0656442593567498e+01 2.8094715415788789e+00 0 0 0
323 2 9.8440000000000012e+00 1.1366872099805333e+01 2.8094715415788789e+00 0 0 0
368 2 1.1074500000000002e+01 1.0656442593567498e+01 2.8094715415788789e+00 0 0 0
370 2 1.2304999999999998e+01 1.1366872099805333e+01 2.8094715415788789e+00 0 0 0
148 2 0.0000000000000000e+00 1.4208590124756650e+00 5.9151023824585707e+00 0 0 0
150 2 0.0000000000000000e+00 0.0000000000000000e+00 5.9151023824585707e+00 0 0 0
159 2 1.2305000000000001e+00 2.1312885187134998e+00 5.9151023824585707e+00 0 0 0
161 2 2.4610000000000003e+00 1.4208590124756650e+00 5.9151023824585707e+00 0 0 0
163 2 2.4610000000000003e+00 0.0000000000000000e+00 5.9151023824585707e+00 0 0 0
180 2 3.6914999999999996e+00 2.1312885187134998e+00 5.9151023824585707e+00 0 0 0
157 2 1.2305000000000001e+00 3.5521475311891644e+00 5.9151023824585707e+00 0 0 0
178 2 3.6914999999999996e+00 3.5521475311891644e+00 5.9151023824585707e+00 0 0 0
182 2 4.9220000000000006e+00 1.4208590124756650e+00 5.9151023824585707e+00 0 0 0
184 2 4.9220000000000006e+00 0.0000000000000000e+00 5.9151023824585707e+00 0 0 0
209 2 6.1524999999999999e+00 2.1312885187134989e+00 5.9151023824585707e+00 0 0 0
211 2 7.3829999999999991e+00 1.4208590124756659e+00 5.9151023824585707e+00 0 0 0
213 2 7.3829999999999991e+00 0.0000000000000000e+00 5.9151023824585707e+00 0 0 0
207 2 6.1524999999999999e+00 3.5521475311891644e+00 5.9151023824585707e+00 0 0 0
246 2 8.6134999999999984e+00 2.1312885187135002e+00 5.9151023824585707e+00 0 0 0
248 2 9.8440000000000012e+00 1.4208590124756659e+00 5.9151023824585707e+00 0 0 0
250 2 9.8440000000000012e+00 0.0000000000000000e+00 5.9151023824585707e+00 0 0 0
291 2 1.1074500000000002e+01 2.1312885187135002e+00 5.9151023824585707e+00 0 0 0
244 2 8.6134999999999984e+00 3.5521475311891657e+00 5.9151023824585707e+00 0 0 0
289 2 1.1074500000000002e+01 3.5521475311891644e+00 5.9151023824585707e+00 0 0 0
153 2 0.0000000000000000e+00 5.6834360499026637e+00 5.9151023824585707e+00 0 0 0
155 2 0.0000000000000000e+00 4.2625770374269996e+00 5.9151023824585707e+00 0 0 0
172 2 1.2305000000000001e+00 6.3938655561404980e+00 5.9151023824585707e+00 0 0 0
174 2 2.4610000000000003e+00 5.6834360499026637e+00 5.9151023824585707e+00 0 0 0
176 2 2.4610000000000003e+00 4.2625770374269996e+00 5.9151023824585707e+00 0 0 0
201 2 3.6914999999999996e+00 6.3938655561404980e+00 5.9151023824585707e+00 0 0 0
170 2 1.2305000000000001e+00 7.8147245686161639e+00 5.9151023824585707e+00 0 0 0
199 2 3.6914999999999996e+00 7.8147245686161639e+00 5.9151023824585707e+00 0 0 0
203 2 4.9220000000000006e+00 5.6834360499026637e+00 5.9151023824585707e+00 0 0 0
205 2 4.9220000000000006e+00 4.2625770374269978e+00 5.9151023824585707e+00 0 0 0
238 2 6.1524999999999999e+00 6.3938655561404980e+00 5.9151023824585707e+00 0 0 0
240 2 7.3829999999999991e+00 5.6834360499026637e+00 5.9151023824585707e+00 0 0 0
242 2 7.3829999999999991e+00 4.2625770374269996e+00 5.9151023824585707e+00 0 0 0
236 2 6.1524999999999999e+00 7.8147245686161639e+00 5.9151023824585707e+00 0 0 0
283 2 8.6135000000000002e+00 6.3938655561404980e+00 5.9151023824585707e+00 0 0 0
285 2 9.8440000000000012e+00 5.6834360499026637e+00 5.9151023824585707e+00 0 0 0
287 2 9.8440000000000012e+00 4.2625770374270004e+00 5.9151023824585707e+00 0 0 0
330 2 1.1074500000000002e+01 6.3938655561404980e+00 5.9151023824585707e+00 0 0 0
281 2 8.6135000000000002e+00 7.8147245686161639e+00 5.9151023824585707e+00 0 0 0
328 2 1.1074500000000002e+01 7.8147245686161639e+00 5.9151023824585707e+00 0 0 0
166 2 0.0000000000000000e+00 9.9460130873296642e+00 5.9151023824585707e+00 0 0 0
168 2 0.0000000000000000e+00 8.5251540748539991e+00 5.9151023824585707e+00 0 0 0
195 2 2.4610000000000003e+00 9.9460130873296642e+00 5.9151023824585707e+00 0 0 0
197 2 2.4610000000000003e+00 8.5251540748539991e+00 5.9151023824585707e+00 0 0 0
191 2 1.2305000000000001e+00 1.2077301606043163e+01 5.9151023824585707e+00 0 0 0
193 2 1.2305000000000001e+00 1.0656442593567498e+01 5.9151023824585707e+00 0 0 0
228 2 3.6914999999999996e+00 1.2077301606043163e+01 5.9151023824585707e+00 0 0 0
230 2 3.6914999999999996e+00 1.0656442593567499e+01 5.9151023824585707e+00 0 0 0
232 2 4.9220000000000006e+00 9.9460130873296642e+00 5.9151023824585707e+00 0 0 0
234 2 4.9220000000000006e+00 8.5251540748539991e+00 5.9151023824585707e+00 0 0 0
277 2 7.3830000000000009e+00 9.9460130873296642e+00 5.9151023824585707e+00 0 0 0
279 2 7.3830000000000009e+00 8.5251540748539991e+00 5.9151023824585707e+00 0 0 0
273 2 6.1524999999999999e+00 1.2077301606043163e+01 5.9151023824585707e+00 0 0 0
275 2 6.1524999999999999e+00 1.0656442593567499e+01 5.9151023824585707e+00 0 0 0
324 2 9.8440000000000012e+00 9.9460130873296642e+00 5.9151023824585707e+00 0 0 0
369 2 1.1074500000000002e+01 1.0656442593567498e+01 5.9151023824585707e+00 0 0 0
326 2 9.8440000000000012e+00 8.5251540748539956e+00 5.9151023824585707e+00 0 0 0
320 2 8.6135000000000002e+00 1.2077301606043163e+01 5.9151023824585707e+00 0 0 0
367 2 1.1074500000000002e+01 1.2077301606043163e+01 5.9151023824585707e+00 0 0 0
322 2 8.6134999999999984e+00 1.0656442593567498e+01 5.9151023824585707e+00 0 0 0
476 2 0.0000000000000000e+00 2.8417180249513345e+00 9.0207332233368582e+00 0 0 0
477 2 0.0000000000000000e+00 0.0000000000000000e+00 9.0207332233368582e+00 0 0 0
478 2 1.2305000000000001e+00 7.1042950623783474e-01 9.0207332233368582e+00 0 0 0
482 2 1.2305000000000001e+00 2.1312885187134998e+00 9.0207332233368582e+00 0 0 0
483 2 2.4610000000000003e+00 2.8417180249513345e+00 9.0207332233368582e+00 0 0 0
484 2 2.4610000000000003e+00 0.0000000000000000e+00 9.0207332233368582e+00 0 0 0
485 2 3.6915000000000004e+00 7.1042950623783474e-01 9.0207332233368582e+00 0 0 0
493 2 3.6914999999999996e+00 2.1312885187134998e+00 9.0207332233368582e+00 0 0 0
29 1 1.5666939156304092e+00 2.8161522237228054e+00 1.1720423281294584e+01 3 0 0
4454 1 4.4132950089535674e+00 3.0540691349105407e+00 1.2456979288131199e+01 0 -2 0
494 2 4.9220000000000006e+00 2.8417180249513332e+00 9.0207332233368582e+00 0 0 0
495 2 4.9220000000000006e+00 0.0000000000000000e+00 9.0207332233368582e+00 0 0 0
496 2 6.1524999999999999e+00 7.1042950623783407e-01 9.0207332233368582e+00 0 0 0
508 2 6.1524999999999999e+00 2.1312885187134989e+00 9.0207332233368582e+00 0 0 0
509 2 7.3829999999999991e+00 2.8417180249513345e+00 9.0207332233368582e+00 0 0 0
510 2 7.3829999999999991e+00 0.0000000000000000e+00 9.0207332233368582e+00 0 0 0
3275 1 9.7000241450501186e+00 8.0401947689675719e+00 1.5276585999064343e+01 -3 1 0
511 2 8.6134999999999984e+00 7.1042950623783407e-01 9.0207332233368582e+00 0 0 0
527 2 8.6134999999999984e+00 2.1312885187135002e+00 9.0207332233368582e+00 0 0 0
528 2 9.8440000000000012e+00 2.8417180249513332e+00 9.0207332233368582e+00 0 0 0
529 2 9.8440000000000012e+00 0.0000000000000000e+00 9.0207332233368582e+00 0 0 0
530 2 1.1074500000000002e+01 7.1042950623783330e-01 9.0207332233368582e+00 0 0 0
550 2 1.1074500000000002e+01 2.1312885187135002e+00 9.0207332233368582e+00 0 0 0
2008 1 9.5999828568345720e+00 2.8273132722172996e+00 1.1450541976891865e+01 2 -3 0
480 2 0.0000000000000000e+00 4.2625770374269996e+00 9.0207332233368582e+00 0 0 0
481 2 1.2305000000000001e+00 4.9730065436648339e+00 9.0207332233368582e+00 0 0 0
489 2 1.2305000000000001e+00 6.3938655561404980e+00 9.0207332233368582e+00 0 0 0
491 2 2.4610000000000003e+00 4.2625770374269996e+00 9.0207332233368582e+00 0 0 0
492 2 3.6914999999999996e+00 4.9730065436648339e+00 9.0207332233368582e+00 0 0 0
504 2 3.6914999999999996e+00 6.3938655561404980e+00 9.0207332233368582e+00 0 0 0
479 2 0.0000000000000000e+00 7.1042950623783341e+00 9.0207332233368582e+00 0 0 0
490 2 2.4610000000000003e+00 7.1042950623783341e+00 9.0207332233368582e+00 0 0 0
3511 1 9.0891109377427659e-01 7.5310797987580900e+00 1.1346030597167179e+01 0 0 0
1164 1 3.8276440539018930e+00 7.3615753340288208e+00 1.1925928550218803e+01 0 1 0
1255 1 1.0626652717640970e+00 1.2109638169452102e+01 1.1947208183006140e+01 0 0 0
1131 1 5.3969953909816066e+00 5.1774038918106653e+00 1.1244268900245400e+01 3 2 0
506 2 4.9220000000000006e+00 4.2625770374269978e+00 9.0207332233368582e+00 0 0 0
507 2 6.1524999999999999e+00 4.9730065436648339e+00 9.0207332233368582e+00 0 0 0
523 2 6.1524999999999999e+00 6.3938655561404980e+00 9.0207332233368582e+00 0 0 0
525 2 7.3829999999999991e+00 4.2625770374269996e+00 9.0207332233368582e+00 0 0 0
505 2 4.9220000000000006e+00 7.1042950623783341e+00 9.0207332233368582e+00 0 0 0
524 2 7.3830000000000009e+00 7.1042950623783341e+00 9.0207332233368582e+00 0 0 0
2279 1 8.1235856549903982e+00 5.1890366032542055e+00 1.1772337991991726e+01 2 0 -1
526 2 8.6135000000000002e+00 4.9730065436648339e+00 9.0207332233368582e+00 0 0 0
546 2 8.6135000000000002e+00 6.3938655561404980e+00 9.0207332233368582e+00 0 0 0
548 2 9.8440000000000012e+00 4.2625770374270004e+00 9.0207332233368582e+00 0 0 0
549 2 1.1074500000000002e+01 4.9730065436648339e+00 9.0207332233368582e+00 0 0 0
570 2 1.1074500000000002e+01 6.3938655561404980e+00 9.0207332233368582e+00 0 0 0
547 2 9.8440000000000012e+00 7.1042950623783341e+00 9.0207332233368582e+00 0 0 0
1182 1 9.6235298885335752e+00 7.3053987816444828e+00 1.1176352802313819e+01 -1 0 0
487 2 0.0000000000000000e+00 8.5251540748539991e+00 9.0207332233368582e+00 0 0 0
488 2 1.2305000000000001e+00 9.2355835810918343e+00 9.0207332233368582e+00 0 0 0
502 2 2.4610000000000003e+00 8.5251540748539991e+00 9.0207332233368582e+00 0 0 0
503 2 3.6915000000000004e+00 9.2355835810918343e+00 9.0207332233368582e+00 0 0 0
486 2 0.0000000000000000e+00 1.1366872099805333e+01 9.0207332233368582e+00 0 0 0
500 2 1.2305000000000001e+00 1.0656442593567498e+01 9.0207332233368582e+00 0 0 0
501 2 2.4610000000000003e+00 1.1366872099805333e+01 9.0207332233368582e+00 0 0 0
519 2 3.6914999999999996e+00 1.0656442593567499e+01 9.0207332233368582e+00 0 0 0
1244 1 5.6053031049589199e+00 1.0074580321793016e+01 1.4637809212409628e+01 -1 0 0
2213 1 5.3178770673632876e+00 9.7443531137233723e+00 1.1694431522417080e+01 3 -1 -1
521 2 4.9220000000000006e+00 8.5251540748539991e+00 9.0207332233368582e+00 0 0 0
522 2 6.1524999999999999e+00 9.2355835810918343e+00 9.0207332233368582e+00 0 0 0
544 2 7.3830000000000009e+00 8.5251540748539991e+00 9.0207332233368582e+00 0 0 0
520 2 4.9220000000000006e+00 1.1366872099805333e+01 9.0207332233368582e+00 0 0 0
542 2 6.1524999999999999e+00 1.0656442593567499e+01 9.0207332233368582e+00 0 0 0
543 2 7.3829999999999991e+00 1.1366872099805333e+01 9.0207332233368582e+00 0 0 0
3190 1 8.3737753648689566e+00 9.7713318284213262e+00 1.1568785882334248e+01 0 3 0
2117 1 5.5229765866448561e+00 4.4306307813715945e-01 1.2093157715485477e+01 -1 -5 0
545 2 8.6134999999999984e+00 9.2355835810918343e+00 9.0207332233368582e+00 0 0 0
568 2 9.8440000000000012e+00 8.5251540748539956e+00 9.0207332233368582e+00 0 0 0
569 2 1.1074500000000002e+01 9.2355835810918343e+00 9.0207332233368582e+00 0 0 0
566 2 8.6134999999999984e+00 1.0656442593567498e+01 9.0207332233368582e+00 0 0 0
567 2 9.8440000000000012e+00 1.1366872099805333e+01 9.0207332233368582e+00 0 0 0
590 2 1.1074500000000002e+01 1.0656442593567498e+01 9.0207332233368582e+00 0 0 0
591 2 1.2304999999999998e+01 1.1366872099805333e+01 9.0207332233368582e+00 0 0 0
3234 1 1.2593871819655420e+00 2.8367138899945656e+00 1.4619114074809930e+01 0 -1 0
3495 1 4.1425308060622728e+00 2.8388446274183989e+00 1.5260561958310829e+01 2 0 0
3406 1 8.4714456474189657e+00 1.0433290137982576e+01 1.4453260168293978e+01 1 0 -1
2159 1 4.3469156450549823e-01 9.4514535260243962e-02 1.4917210061687598e+01 1 0 -1
4393 1 9.5497700016775369e+00 2.9223330531818381e+00 1.4958827716669656e+01 -1 2 0
2018 1 8.4525825602669755e+00 5.2683697749321479e-01 1.4275652867217669e+01 2 -2 0
2296 1 5.4561415911678592e+00 5.3415373880205559e+00 1.5452358294864805e+01 2 -1 0
4525 1 1.2543262647355984e+00 7.8054381412976355e+00 1.5104749068223933e+01 0 2 -1
3497 1 4.1415384347831958e+00 7.7102572344765301e+00 1.4536217362898938e+01 3 0 0
4291 1 8.3408727482397040e+00 5.4604877746296392e+00 1.4600153820211867e+01 -1 2 -1
3474 1 8.2576770731679030e+00 2.9971868644926652e-01 1.1599157067945018e+01 -1 1 0
2026 1 5.6918011263755677e+00 3.9249295145511293e-01 1.5308413995690456e+01 -4 0 0
900 1 1.2089590939573959e+01 3.2116226811122570e+00 1.4240854431704985e+01 0 2 0
833 1 3.8424940806950478e+00 1.1932232387777114e+01 1.1402658751637757e+01 1 1 0
3587 1 2.9535918772165803e-01 1.4559405278457482e-01 1.1573731243487629e+01 2 0 0
3567 1 7.7538121715626684e-01 3.4805862706967803e+00 1.8094135455535344e+01 4 1 0
3379 1 3.6024089922530940e+00 3.6333363842561788e+00 1.8622538561322198e+01 -2 3 0
930 1 5.0024086034904984e+00 1.3143405745437562e+00 1.8007712888470095e+01 1 1 -1
3292 1 7.6567406153336623e+00 7.7599899536998396e-01 1.8378039899564882e+01 1 1 0
2214 1 8.9544917573236589e+00 3.0181042762156882e+00 1.7799595132609674e+01 3 3 0
2259 1 1.1751666346580336e+01 3.1926692526231077e+00 1.8639294125379024e+01 -2 1 0
2324 1 4.1538478930900453e+00 7.7607141458545890e+00 1.8537488222952948e+01 1 2 0
3519 1 1.1419510081177082e+00 7.9752929200993350e+00 1.8000608961733317e+01 1 -2 0
1304 1 5.2908552956713439e+00 5.6503608582174305e+00 1.7895682895783231e+01 1 -3 0
2303 1 7.8246529380951495e+00 5.4306392082826811e+00 1.8803370463235943e+01 0 1 0
2362 1 9.3463272554667522e+00 7.7521514355139205e+00 1.7978756975505000e+01 4 4 0
972 1 7.4565461413208975e+00 1.0255707589852820e+01 2.1012103079396621e+01 -3 -2 0
2289 1 5.1669092480115459e+00 1.0128714456727096e+01 1.7450384571962054e+01 2 1 -1
3437 1 8.0216287277815148e+00 1.0213914626680440e+01 1.8247074922566146e+01 -1 -2 0
3343 1 2.1279220690136671e+00 1.4093558359505238e+00 2.2303015462961444e+01 2 -1 0
58 1 3.4871626947299004e+00 3.6323797913172622e+00 2.1754662050884352e+01 -2 -1 0
1193 1 7.4800342144596854e+00 1.2499560832481498e+00 2.1263358300122597e+01 -1 -2 1
876 1 6.3407527617945103e+00 3.6875163670461615e+00 2.2164649443075003e+01 1 -1 0
2318 1 1.0362546277419362e+01 1.5325045669082760e+00 2.2254443644471102e+01 -3 4 0
2101 1 1.1813759520307592e+01 3.6554239602625853e+00 2.1489225338051501e+01 3 -1 0
2141 1 3.5316726915870182e+00 7.9461598600423411e+00 2.1221513429591351e+01 4 -3 1
3583 1 2.2180766972687964e+00 5.8066840498747503e+00 2.2411100275060587e+01 -3 3 0
4495 1 1.0160094099705827e+01 1.0345036775127380e+01 2.2228068860612986e+01 1 -1 0
4531 1 7.7111965727634137e+00 5.7986577992786401e+00 2.1479943929603873e+01 2 0 0
2221 1 1.1785477017416369e+01 8.2098747669191852e+00 2.1589851592371367e+01 4 4 0
2346 1 1.0148028764635670e+01 5.8756079861148676e+00 2.2443275344049798e+01 2 1 0
4526 1 2.6085383394981183e+00 1.0141657364907001e+01 2.2450767505044233e+01 1 3 0
3560 1 1.1910597433243268e+01 7.8482826713334113e+00 1.8655115240083376e+01 4 6 0
3175 1 6.2355420075775285e+00 8.0216712489686497e+00 2.2321640526033971e+01 1 1 -1
4482 1 1.0181419967465077e+01 1.0090045376519409e+01 2.4973226702361547e+01 -1 0 0
79 1 1.7465964610625158e+00 1.3401248250873865e+00 2.4894334073693734e+01 -3 1 0
3349 1 2.1878087853168764e+00 6.0922282838789599e+00 2.5103956543464804e+01 -1 0 0
4280 1 6.0391942041828033e+00 7.9975965509675175e+00 2.4980179956283166e+01 1 1 -1
887 1 1.2075943709722159e-01 1.0318714202938713e+01 1.8917687088958214e+01 1 2 0
1218 1 1.0032581771174952e+01 1.3688632354734187e+00 2.5032271978388525e+01 -2 -1 0
2426 1 6.3423124737482723e+00 1.2185995996011687e+01 2.4846280058544576e+01 0 -1 0
2076 1 7.1492155461770801e-01 3.7638348829182657e+00 2.5899331737176261e+01 -2 1 0
3512 1 6.9683020829355025e-01 3.6236428519926811e+00 2.8696903176772842e+01 -1 2 0
2062 1 9.9679901864716989e+00 5.8444625540863049e+00 2.5171755733934990e+01 -1 0 -1
2438 1 4.0473028760106882e+00 1.2634933828206234e+00 2.5823878346094851e+01 -3 0 0
4367 1 4.5232571285794547e+00 1.4940317824011151e+00 2.8433132068620210e+01 0 -2 0
4551 1 1.1452340653649264e+01 8.2946044565316885e+00 3.2163229670692061e+01 2 4 0
3513 1 8.4293501762184544e+00 3.5266274401678515e+00 2.5646460446564266e+01 -1 2 0
134 1 8.6851220098964550e+00 3.5998940487169895e+00 2.8245198273431260e+01 -1 1 0
3177 1 8.9578114822019153e+00 3.7752361899866211e+00 3.2856734778850964e+01 1 -1 -1
102 1 7.5231994087271226e-01 8.3711061233477988e+00 2.5963792568835053e+01 2 1 1
4263 1 8.2011692703580596e-01 8.2981611590745814e+00 2.8596186952102236e+01 1 -2 0
3165 1 4.7319323852024198e+00 6.0076431770509231e+00 2.5761634552916341e+01 -3 -1 0
119 1 4.7553184991159592e+00 5.7941451812409461e+00 2.8626877615532599e+01 -1 -1 0
3154 1 8.5339521142529975e+00 7.9272264206755736e+00 2.5772612588863698e+01 -2 4 0
3329 1 7.1269705993096828e+00 1.0273076707524508e+01 3.2448140438312322e+01 -4 4 1
2411 1 7.3786618281149057e+00 1.0659338707128180e+01 2.9909519390469214e+01 0 -4 0
2405 1 4.7968742836584415e+00 1.0176572215834698e+01 2.6249308064517820e+01 2 1 0
3570 1 4.6631968096193743e+00 1.0710085751244833e+01 2.8941980543105284e+01 -1 -4 0
884 1 8.6774126512680017e+00 8.3796740942023362e+00 2.8615685378711611e+01 -1 -2 0
3446 1 8.7611822387856062e+00 7.8951331239140963e+00 3.3012783073610116e+01 -1 0 0
2080 1 3.4481042245911215e+00 3.8139542284858559e+00 2.9741793154062634e+01 -1 1 0
1096 1 3.4352145010175481e+00 3.7024257105353682e+00 3.2411375127311985e+01 -2 3 0
4304 1 4.8925818972307562e+00 1.4484662901530212e+00 3.3116720279290803e+01 -1 0 0
1027 1 7.1379247559141294e+00 1.3768444191178324e+00 2.9439890474310463e+01 -1 -2 0
38 1 7.5154492573730014e+00 1.6489859851590860e+00 3.2167581833552880e+01 3 0 0
2386 1 4.2585069703600160e+00 1.0496926787229693e+01 3.2822608423393284e+01 2 -2 0
1013 1 1.1522139075631046e+01 3.4737904467465412e+00 2.9279630821628743e+01 3 -2 -1
3563 1 1.1398687628695651e+01 3.5462613739565985e+00 3.2130686002018066e+01 2 2 0
1257 1 1.1546075074787868e+01 7.9572845180855261e+00 2.9241731872456089e+01 -2 0 0
2219 1 3.1920287436065733e+00 8.0547620239755986e+00 3.2323205148783259e+01 1 4 0
4461 1 3.3941188386406722e+00 8.1564383498210962e+00 2.9631074542761475e+01 2 3 0
26 1 6.4978532367985675e-01 7.8240064650569829e+00 3.3067069045801347e+01 1 0 0
142 1 7.4539213770518691e+00 5.9791844164446228e+00 2.9513085200986474e+01 3 1 0
2169 1 7.1272857509780501e+00 5.8298550638383269e+00 3.2213106279917980e+01 1 -3 0
138 1 2.2918745925340360e+00 1.0443110822448668e+01 2.5356334592332530e+01 2 -1 1
3238 1 5.5546498527503099e+00 3.4306566900006841e+00 2.5272994310469358e+01 0 1 0
3438 1 4.6560609249074094e+00 5.9491883969436765e+00 3.3251987692305804e+01 -1 4 0
3492 1 1.0708381913413576e+00 3.4386682008392411e+00 3.3292586330387472e+01 -2 1 0
188 2 0.0000000000000000e+00 1.2787731112280996e+01 2.8094715415788789e+00 0 0 0
190 2 1.2305000000000001e+00 1.3498160618518829e+01 2.8094715415788789e+00 0 0 0
225 2 2.4610000000000003e+00 1.2787731112280996e+01 2.8094715415788789e+00 0 0 0
227 2 3.6915000000000004e+00 1.3498160618518829e+01 2.8094715415788789e+00 0 0 0
186 2 0.0000000000000000e+00 1.5629449137232333e+01 2.8094715415788789e+00 0 0 0
221 2 1.2305000000000001e+00 1.4919019630994494e+01 2.8094715415788789e+00 0 0 0
223 2 2.4610000000000003e+00 1.5629449137232328e+01 2.8094715415788789e+00 0 0 0
266 2 3.6915000000000004e+00 1.4919019630994494e+01 2.8094715415788789e+00 0 0 0
270 2 4.9220000000000006e+00 1.2787731112280996e+01 2.8094715415788789e+00 0 0 0
272 2 6.1524999999999990e+00 1.3498160618518829e+01 2.8094715415788789e+00 0 0 0
317 2 7.3829999999999991e+00 1.2787731112280996e+01 2.8094715415788789e+00 0 0 0
268 2 4.9220000000000006e+00 1.5629449137232333e+01 2.8094715415788789e+00 0 0 0
313 2 6.1524999999999990e+00 1.4919019630994494e+01 2.8094715415788789e+00 0 0 0
315 2 7.3829999999999991e+00 1.5629449137232333e+01 2.8094715415788789e+00 0 0 0
319 2 8.6135000000000002e+00 1.3498160618518835e+01 2.8094715415788789e+00 0 0 0
364 2 9.8440000000000012e+00 1.2787731112280996e+01 2.8094715415788789e+00 0 0 0
366 2 1.1074500000000002e+01 1.3498160618518829e+01 2.8094715415788789e+00 0 0 0
360 2 8.6135000000000002e+00 1.4919019630994494e+01 2.8094715415788789e+00 0 0 0
362 2 9.8440000000000012e+00 1.5629449137232328e+01 2.8094715415788789e+00 0 0 0
402 2 1.1074500000000002e+01 1.4919019630994494e+01 2.8094715415788789e+00 0 0 0
217 2 0.0000000000000000e+00 1.7050308149707998e+01 2.8094715415788789e+00 0 0 0
262 2 2.4610000000000003e+00 1.7050308149707998e+01 2.8094715415788789e+00 0 0 0
215 2 0.0000000000000000e+00 1.9892026174659328e+01 2.8094715415788789e+00 0 0 0
219 2 1.2305000000000001e+00 1.7760737655945832e+01 2.8094715415788789e+00 0 0 0
258 2 1.2305000000000001e+00 1.9181596668421495e+01 2.8094715415788789e+00 0 0 0
260 2 2.4610000000000003e+00 1.9892026174659328e+01 2.8094715415788789e+00 0 0 0
264 2 3.6914999999999996e+00 1.7760737655945832e+01 2.8094715415788789e+00 0 0 0
305 2 3.6914999999999996e+00 1.9181596668421495e+01 2.8094715415788789e+00 0 0 0
309 2 4.9220000000000006e+00 1.7050308149707998e+01 2.8094715415788789e+00 0 0 0
356 2 7.3830000000000009e+00 1.7050308149707998e+01 2.8094715415788789e+00 0 0 0
307 2 4.9220000000000006e+00 1.9892026174659328e+01 2.8094715415788789e+00 0 0 0
311 2 6.1524999999999999e+00 1.7760737655945832e+01 2.8094715415788789e+00 0 0 0
352 2 6.1524999999999999e+00 1.9181596668421495e+01 2.8094715415788789e+00 0 0 0
354 2 7.3829999999999991e+00 1.9892026174659328e+01 2.8094715415788789e+00 0 0 0
398 2 9.8440000000000012e+00 1.7050308149707998e+01 2.8094715415788789e+00 0 0 0
432 2 1.2304999999999998e+01 1.7050308149707998e+01 2.8094715415788789e+00 0 0 0
358 2 8.6134999999999984e+00 1.7760737655945832e+01 2.8094715415788789e+00 0 0 0
394 2 8.6135000000000002e+00 1.9181596668421495e+01 2.8094715415788789e+00 0 0 0
396 2 9.8440000000000012e+00 1.9892026174659335e+01 2.8094715415788789e+00 0 0 0
400 2 1.1074500000000002e+01 1.7760737655945835e+01 2.8094715415788789e+00 0 0 0
428 2 1.1074500000000002e+01 1.9181596668421495e+01 2.8094715415788789e+00 0 0 0
252 2 0.0000000000000000e+00 2.4154603212086325e+01 2.8094715415788789e+00 0 0 0
254 2 0.0000000000000000e+00 2.1312885187134999e+01 2.8094715415788789e+00 0 0 0
256 2 1.2304999999999993e+00 2.2023314693372832e+01 2.8094715415788789e+00 0 0 0
297 2 1.2304999999999993e+00 2.3444173705848499e+01 2.8094715415788789e+00 0 0 0
299 2 2.4610000000000003e+00 2.4154603212086325e+01 2.8094715415788789e+00 0 0 0
301 2 2.4610000000000003e+00 2.1312885187134995e+01 2.8094715415788789e+00 0 0 0
303 2 3.6914999999999996e+00 2.2023314693372832e+01 2.8094715415788789e+00 0 0 0
344 2 3.6915000000000004e+00 2.3444173705848499e+01 2.8094715415788789e+00 0 0 0
346 2 4.9220000000000006e+00 2.4154603212086325e+01 2.8094715415788789e+00 0 0 0
348 2 4.9220000000000006e+00 2.1312885187134995e+01 2.8094715415788789e+00 0 0 0
350 2 6.1524999999999990e+00 2.2023314693372832e+01 2.8094715415788789e+00 0 0 0
386 2 6.1524999999999999e+00 2.3444173705848499e+01 2.8094715415788789e+00 0 0 0
388 2 7.3830000000000009e+00 2.4154603212086336e+01 2.8094715415788789e+00 0 0 0
390 2 7.3829999999999991e+00 2.1312885187134999e+01 2.8094715415788789e+00 0 0 0
392 2 8.6135000000000002e+00 2.2023314693372832e+01 2.8094715415788789e+00 0 0 0
420 2 8.6134999999999984e+00 2.3444173705848499e+01 2.8094715415788789e+00 0 0 0
422 2 9.8440000000000012e+00 2.4154603212086336e+01 2.8094715415788789e+00 0 0 0
424 2 9.8440000000000012e+00 2.1312885187134999e+01 2.8094715415788789e+00 0 0 0
426 2 1.1074500000000002e+01 2.2023314693372832e+01 2.8094715415788789e+00 0 0 0
446 2 1.1074500000000002e+01 2.3444173705848499e+01 2.8094715415788789e+00 0 0 0
189 2 0.0000000000000000e+00 1.2787731112280996e+01 5.9151023824585707e+00 0 0 0
226 2 2.4610000000000003e+00 1.2787731112280996e+01 5.9151023824585707e+00 0 0 0
187 2 0.0000000000000000e+00 1.4208590124756663e+01 5.9151023824585707e+00 0 0 0
222 2 1.2305000000000001e+00 1.4919019630994494e+01 5.9151023824585707e+00 0 0 0
224 2 2.4610000000000003e+00 1.4208590124756663e+01 5.9151023824585707e+00 0 0 0
267 2 3.6915000000000004e+00 1.4919019630994494e+01 5.9151023824585707e+00 0 0 0
271 2 4.9220000000000006e+00 1.2787731112280996e+01 5.9151023824585707e+00 0 0 0
318 2 7.3829999999999991e+00 1.2787731112280996e+01 5.9151023824585707e+00 0 0 0
269 2 4.9220000000000006e+00 1.4208590124756663e+01 5.9151023824585707e+00 0 0 0
314 2 6.1524999999999990e+00 1.4919019630994494e+01 5.9151023824585707e+00 0 0 0
316 2 7.3830000000000009e+00 1.4208590124756663e+01 5.9151023824585707e+00 0 0 0
365 2 9.8440000000000012e+00 1.2787731112280996e+01 5.9151023824585707e+00 0 0 0
361 2 8.6135000000000002e+00 1.4919019630994494e+01 5.9151023824585707e+00 0 0 0
363 2 9.8440000000000012e+00 1.4208590124756663e+01 5.9151023824585707e+00 0 0 0
401 2 1.1074500000000002e+01 1.6339878643470161e+01 5.9151023824585707e+00 0 0 0
403 2 1.1074500000000002e+01 1.4919019630994494e+01 5.9151023824585707e+00 0 0 0
405 2 1.2304999999999998e+01 1.4208590124756658e+01 5.9151023824585707e+00 0 0 0
218 2 0.0000000000000000e+00 1.7050308149707998e+01 5.9151023824585707e+00 0 0 0