LAMMPS data file via write_data, version 16 Mar 2018, timestep = 100000

4537 atoms
2 atom types

0.0000000000000000e+00 4.9219999999999999e+01 xlo xhi
0.0000000000000000e+00 4.9019635930410494e+01 ylo yhi
1.4880384073820707e+00 3.2451961592618346e+01 zlo zhi

Masses

1 18.015
2 12.01

Atoms # atomic

96 2 0.0000000000000000e+00 2.8417180249513345e+00 3.1546096363467466e+00 0 0 0
98 2 0.0000000000000000e+00 0.0000000000000000e+00 3.1546096363467466e+00 0 0 0
100 2 1.2305000000000001e+00 7.1042950623783474e-01 3.1546096363467466e+00 0 0 0
107 2 1.2305000000000001e+00 2.1312885187134998e+00 3.1546096363467466e+00 0 0 0
109 2 2.4610000000000003e+00 2.8417180249513345e+00 3.1546096363467466e+00 0 0 0
111 2 2.4610000000000003e+00 0.0000000000000000e+00 3.1546096363467466e+00 0 0 0
113 2 3.6915000000000004e+00 7.1042950623783474e-01 3.1546096363467466e+00 0 0 0
128 2 3.6914999999999996e+00 2.1312885187134998e+00 3.1546096363467466e+00 0 0 0
130 2 4.9220000000000006e+00 2.8417180249513332e+00 3.1546096363467466e+00 0 0 0
132 2 4.9220000000000006e+00 0.0000000000000000e+00 3.1546096363467466e+00 0 0 0
134 2 6.1524999999999999e+00 7.1042950623783407e-01 3.1546096363467466e+00 0 0 0
157 2 6.1524999999999999e+00 2.1312885187134989e+00 3.1546096363467466e+00 0 0 0
159 2 7.3829999999999991e+00 2.8417180249513345e+00 3.1546096363467466e+00 0 0 0
161 2 7.3829999999999991e+00 0.0000000000000000e+00 3.1546096363467466e+00 0 0 0
163 2 8.6134999999999984e+00 7.1042950623783407e-01 3.1546096363467466e+00 0 0 0
194 2 8.6134999999999984e+00 2.1312885187135002e+00 3.1546096363467466e+00 0 0 0
103 2 0.0000000000000000e+00 4.2625770374269996e+00 3.1546096363467466e+00 0 0 0
105 2 1.2305000000000001e+00 4.9730065436648339e+00 3.1546096363467466e+00 0 0 0
120 2 1.2305000000000001e+00 6.3938655561404980e+00 3.1546096363467466e+00 0 0 0
124 2 2.4610000000000003e+00 4.2625770374269996e+00 3.1546096363467466e+00 0 0 0
126 2 3.6914999999999996e+00 4.9730065436648339e+00 3.1546096363467466e+00 0 0 0
149 2 3.6914999999999996e+00 6.3938655561404980e+00 3.1546096363467466e+00 0 0 0
101 2 0.0000000000000000e+00 7.1042950623783341e+00 3.1546096363467466e+00 0 0 0
122 2 2.4610000000000003e+00 7.1042950623783341e+00 3.1546096363467466e+00 0 0 0
153 2 4.9220000000000006e+00 4.2625770374269978e+00 3.1546096363467466e+00 0 0 0
155 2 6.1524999999999999e+00 4.9730065436648339e+00 3.1546096363467466e+00 0 0 0
186 2 6.1524999999999999e+00 6.3938655561404980e+00 3.1546096363467466e+00 0 0 0
190 2 7.3829999999999991e+00 4.2625770374269996e+00 3.1546096363467466e+00 0 0 0
192 2 8.6135000000000002e+00 4.9730065436648339e+00 3.1546096363467466e+00 0 0 0
231 2 8.6135000000000002e+00 6.3938655561404980e+00 3.1546096363467466e+00 0 0 0
151 2 4.9220000000000006e+00 7.1042950623783341e+00 3.1546096363467466e+00 0 0 0
188 2 7.3830000000000009e+00 7.1042950623783341e+00 3.1546096363467466e+00 0 0 0
116 2 0.0000000000000000e+00 8.5251540748539991e+00 3.1546096363467466e+00 0 0 0
118 2 1.2305000000000001e+00 9.2355835810918343e+00 3.1546096363467466e+00 0 0 0
145 2 2.4610000000000003e+00 8.5251540748539991e+00 3.1546096363467466e+00 0 0 0
147 2 3.6915000000000004e+00 9.2355835810918343e+00 3.1546096363467466e+00 0 0 0
114 2 0.0000000000000000e+00 1.1366872099805333e+01 3.1546096363467466e+00 0 0 0
141 2 1.2305000000000001e+00 1.0656442593567498e+01 3.1546096363467466e+00 0 0 0
143 2 2.4610000000000003e+00 1.1366872099805333e+01 3.1546096363467466e+00 0 0 0
178 2 3.6914999999999996e+00 1.0656442593567499e+01 3.1546096363467466e+00 0 0 0
182 2 4.9220000000000006e+00 8.5251540748539991e+00 3.1546096363467466e+00 0 0 0
184 2 6.1524999999999999e+00 9.2355835810918343e+00 3.1546096363467466e+00 0 0 0
227 2 7.3830000000000009e+00 8.5251540748539991e+00 3.1546096363467466e+00 0 0 0
229 2 8.6134999999999984e+00 9.2355835810918343e+00 3.1546096363467466e+00 0 0 0
180 2 4.9220000000000006e+00 1.1366872099805333e+01 3.1546096363467466e+00 0 0 0
223 2 6.1524999999999999e+00 1.0656442593567499e+01 3.1546096363467466e+00 0 0 0
225 2 7.3829999999999991e+00 1.1366872099805333e+01 3.1546096363467466e+00 0 0 0
270 2 8.6134999999999984e+00 1.0656442593567498e+01 3.1546096363467466e+00 0 0 0
97 2 0.0000000000000000e+00 1.4208590124756650e+00 6.1845461615343833e+00 0 0 0
99 2 0.0000000000000000e+00 0.0000000000000000e+00 6.1845461615343833e+00 0 0 0
108 2 1.2305000000000001e+00 2.1312885187134998e+00 6.1845461615343833e+00 0 0 0
110 2 2.4610000000000003e+00 1.4208590124756650e+00 6.1845461615343833e+00 0 0 0
112 2 2.4610000000000003e+00 0.0000000000000000e+00 6.1845461615343833e+00 0 0 0
129 2 3.6914999999999996e+00 2.1312885187134998e+00 6.1845461615343833e+00 0 0 0
106 2 1.2305000000000001e+00 3.5521475311891644e+00 6.1845461615343833e+00 0 0 0
127 2 3.6914999999999996e+00 3.5521475311891644e+00 6.1845461615343833e+00 0 0 0
131 2 4.9220000000000006e+00 1.4208590124756650e+00 6.1845461615343833e+00 0 0 0
133 2 4.9220000000000006e+00 0.0000000000000000e+00 6.1845461615343833e+00 0 0 0
158 2 6.1524999999999999e+00 2.1312885187134989e+00 6.1845461615343833e+00 0 0 0
160 2 7.3829999999999991e+00 1.4208590124756659e+00 6.1845461615343833e+00 0 0 0
162 2 7.3829999999999991e+00 0.0000000000000000e+00 6.1845461615343833e+00 0 0 0
195 2 8.6134999999999984e+00 2.1312885187135002e+00 6.1845461615343833e+00 0 0 0
156 2 6.1524999999999999e+00 3.5521475311891644e+00 6.1845461615343833e+00 0 0 0
193 2 8.6134999999999984e+00 3.5521475311891657e+00 6.1845461615343833e+00 0 0 0
102 2 0.0000000000000000e+00 5.6834360499026637e+00 6.1845461615343833e+00 0 0 0
104 2 0.0000000000000000e+00 4.2625770374269996e+00 6.1845461615343833e+00 0 0 0
121 2 1.2305000000000001e+00 6.3938655561404980e+00 6.1845461615343833e+00 0 0 0
123 2 2.4610000000000003e+00 5.6834360499026637e+00 6.1845461615343833e+00 0 0 0
125 2 2.4610000000000003e+00 4.2625770374269996e+00 6.1845461615343833e+00 0 0 0
150 2 3.6914999999999996e+00 6.3938655561404980e+00 6.1845461615343833e+00 0 0 0
119 2 1.2305000000000001e+00 7.8147245686161639e+00 6.1845461615343833e+00 0 0 0
148 2 3.6914999999999996e+00 7.8147245686161639e+00 6.1845461615343833e+00 0 0 0
152 2 4.9220000000000006e+00 5.6834360499026637e+00 6.1845461615343833e+00 0 0 0
154 2 4.9220000000000006e+00 4.2625770374269978e+00 6.1845461615343833e+00 0 0 0
187 2 6.1524999999999999e+00 6.3938655561404980e+00 6.1845461615343833e+00 0 0 0
189 2 7.3829999999999991e+00 5.6834360499026637e+00 6.1845461615343833e+00 0 0 0
191 2 7.3829999999999991e+00 4.2625770374269996e+00 6.1845461615343833e+00 0 0 0
232 2 8.6135000000000002e+00 6.3938655561404980e+00 6.1845461615343833e+00 0 0 0
185 2 6.1524999999999999e+00 7.8147245686161639e+00 6.1845461615343833e+00 0 0 0
230 2 8.6135000000000002e+00 7.8147245686161639e+00 6.1845461615343833e+00 0 0 0
115 2 0.0000000000000000e+00 9.9460130873296642e+00 6.1845461615343833e+00 0 0 0
117 2 0.0000000000000000e+00 8.5251540748539991e+00 6.1845461615343833e+00 0 0 0
144 2 2.4610000000000003e+00 9.9460130873296642e+00 6.1845461615343833e+00 0 0 0
146 2 2.4610000000000003e+00 8.5251540748539991e+00 6.1845461615343833e+00 0 0 0
140 2 1.2305000000000001e+00 1.2077301606043163e+01 6.1845461615343833e+00 0 0 0
142 2 1.2305000000000001e+00 1.0656442593567498e+01 6.1845461615343833e+00 0 0 0
177 2 3.6914999999999996e+00 1.2077301606043163e+01 6.1845461615343833e+00 0 0 0
179 2 3.6914999999999996e+00 1.0656442593567499e+01 6.1845461615343833e+00 0 0 0
181 2 4.9220000000000006e+00 9.9460130873296642e+00 6.1845461615343833e+00 0 0 0
183 2 4.9220000000000006e+00 8.5251540748539991e+00 6.1845461615343833e+00 0 0 0
226 2 7.3830000000000009e+00 9.9460130873296642e+00 6.1845461615343833e+00 0 0 0
228 2 7.3830000000000009e+00 8.5251540748539991e+00 6.1845461615343833e+00 0 0 0
222 2 6.1524999999999999e+00 1.2077301606043163e+01 6.1845461615343833e+00 0 0 0
224 2 6.1524999999999999e+00 1.0656442593567499e+01 6.1845461615343833e+00 0 0 0
269 2 8.6135000000000002e+00 1.2077301606043163e+01 6.1845461615343833e+00 0 0 0
271 2 8.6134999999999984e+00 1.0656442593567498e+01 6.1845461615343833e+00 0 0 0
425 2 0.0000000000000000e+00 2.8417180249513345e+00 9.2144826867223362e+00 0 0 0
426 2 0.0000000000000000e+00 0.0000000000000000e+00 9.2144826867223362e+00 0 0 0
427 2 1.2305000000000001e+00 7.1042950623783474e-01 9.2144826867223362e+00 0 0 0
431 2 1.2305000000000001e+00 2.1312885187134998e+00 9.2144826867223362e+00 0 0 0
432 2 2.4610000000000003e+00 2.8417180249513345e+00 9.2144826867223362e+00 0 0 0
433 2 2.4610000000000003e+00 0.0000000000000000e+00 9.2144826867223362e+00 0 0 0
434 2 3.6915000000000004e+00 7.1042950623783474e-01 9.2144826867223362e+00 0 0 0
442 2 3.6914999999999996e+00 2.1312885187134998e+00 9.2144826867223362e+00 0 0 0
470 2 4.9220000000000006e+00 8.5251540748539991e+00 9.2144826867223362e+00 0 0 0
443 2 4.9220000000000006e+00 2.8417180249513332e+00 9.2144826867223362e+00 0 0 0
444 2 4.9220000000000006e+00 0.0000000000000000e+00 9.2144826867223362e+00 0 0 0
445 2 6.1524999999999999e+00 7.1042950623783407e-01 9.2144826867223362e+00 0 0 0
457 2 6.1524999999999999e+00 2.1312885187134989e+00 9.2144826867223362e+00 0 0 0
458 2 7.3829999999999991e+00 2.8417180249513345e+00 9.2144826867223362e+00 0 0 0
459 2 7.3829999999999991e+00 0.0000000000000000e+00 9.2144826867223362e+00 0 0 0
460 2 8.6134999999999984e+00 7.1042950623783407e-01 9.2144826867223362e+00 0 0 0
476 2 8.6134999999999984e+00 2.1312885187135002e+00 9.2144826867223362e+00 0 0 0
429 2 0.0000000000000000e+00 4.2625770374269996e+00 9.2144826867223362e+00 0 0 0
430 2 1.2305000000000001e+00 4.9730065436648339e+00 9.2144826867223362e+00 0 0 0
438 2 1.2305000000000001e+00 6.3938655561404980e+00 9.2144826867223362e+00 0 0 0
440 2 2.4610000000000003e+00 4.2625770374269996e+00 9.2144826867223362e+00 0 0 0
441 2 3.6914999999999996e+00 4.9730065436648339e+00 9.2144826867223362e+00 0 0 0
453 2 3.6914999999999996e+00 6.3938655561404980e+00 9.2144826867223362e+00 0 0 0
428 2 0.0000000000000000e+00 7.1042950623783341e+00 9.2144826867223362e+00 0 0 0
439 2 2.4610000000000003e+00 7.1042950623783341e+00 9.2144826867223362e+00 0 0 0
494 2 8.6134999999999984e+00 9.2355835810918343e+00 9.2144826867223362e+00 0 0 0
493 2 7.3830000000000009e+00 8.5251540748539991e+00 9.2144826867223362e+00 0 0 0
471 2 6.1524999999999999e+00 9.2355835810918343e+00 9.2144826867223362e+00 0 0 0
455 2 4.9220000000000006e+00 4.2625770374269978e+00 9.2144826867223362e+00 0 0 0
456 2 6.1524999999999999e+00 4.9730065436648339e+00 9.2144826867223362e+00 0 0 0
472 2 6.1524999999999999e+00 6.3938655561404980e+00 9.2144826867223362e+00 0 0 0
474 2 7.3829999999999991e+00 4.2625770374269996e+00 9.2144826867223362e+00 0 0 0
475 2 8.6135000000000002e+00 4.9730065436648339e+00 9.2144826867223362e+00 0 0 0
495 2 8.6135000000000002e+00 6.3938655561404980e+00 9.2144826867223362e+00 0 0 0
454 2 4.9220000000000006e+00 7.1042950623783341e+00 9.2144826867223362e+00 0 0 0
473 2 7.3830000000000009e+00 7.1042950623783341e+00 9.2144826867223362e+00 0 0 0
436 2 0.0000000000000000e+00 8.5251540748539991e+00 9.2144826867223362e+00 0 0 0
437 2 1.2305000000000001e+00 9.2355835810918343e+00 9.2144826867223362e+00 0 0 0
451 2 2.4610000000000003e+00 8.5251540748539991e+00 9.2144826867223362e+00 0 0 0
452 2 3.6915000000000004e+00 9.2355835810918343e+00 9.2144826867223362e+00 0 0 0
435 2 0.0000000000000000e+00 1.1366872099805333e+01 9.2144826867223362e+00 0 0 0
449 2 1.2305000000000001e+00 1.0656442593567498e+01 9.2144826867223362e+00 0 0 0
450 2 2.4610000000000003e+00 1.1366872099805333e+01 9.2144826867223362e+00 0 0 0
468 2 3.6914999999999996e+00 1.0656442593567499e+01 9.2144826867223362e+00 0 0 0
492 2 7.3829999999999991e+00 1.1366872099805333e+01 9.2144826867223362e+00 0 0 0
491 2 6.1524999999999999e+00 1.0656442593567499e+01 9.2144826867223362e+00 0 0 0
515 2 8.6134999999999984e+00 1.0656442593567498e+01 9.2144826867223362e+00 0 0 0
469 2 4.9220000000000006e+00 1.1366872099805333e+01 9.2144826867223362e+00 0 0 0
2829 1 5.1256153793349446e+00 1.6264402283287169e+00 1.1782610662402941e+01 -1 1 0
2378 1 2.9302636297918472e+00 3.9341473706015142e+00 1.1646726229913913e+01 1 0 0
2972 1 1.1116586209492840e+00 1.0310982304835946e+01 1.1652994717256572e+01 0 0 -1
1402 1 4.0056932487213687e-01 3.2041347301497978e+00 1.1764906167718783e+01 0 0 0
2894 1 1.9396139736989216e-02 1.1130760123894211e+01 1.8978043407386625e+01 1 0 0
600 1 3.5761608312050610e+00 2.9050396933178626e+00 1.4437802799004777e+01 1 1 1
3663 1 7.1932803980673210e+00 5.7568739216172000e+00 1.8039294379341914e+01 2 0 1
793 1 8.8916541366023516e+00 1.0364949517497228e+01 1.8768823514812421e+01 0 0 0
4477 1 3.0841102158121902e+00 7.3296470965382179e+00 1.4839484540627270e+01 1 0 0
4324 1 7.5458076483352023e+00 2.9253607316212600e+00 1.4793866006920760e+01 -1 0 0
3080 1 7.6368605277675998e+00 5.8521182089621000e+00 1.5255854750226188e+01 -1 1 -1
3122 1 8.0138356202354899e+00 5.2838557706213525e+00 1.1883112618132962e+01 1 0 1
3024 1 7.0015799676590857e+00 8.3504744993691773e+00 1.9132317232665471e+01 0 1 -1
702 1 1.1072017744494633e+00 1.9869787124728544e+00 1.4570186933158153e+01 -1 1 1
4372 1 6.2994998714279919e+00 9.8228427729077961e+00 1.2205833825328298e+01 1 1 0
1501 1 1.7336421244986837e+00 1.1642220833592626e+01 1.4368290472321046e+01 0 1 -1
811 1 9.5606420355180095e+00 1.1304990967755163e+01 1.4367072587724566e+01 0 0 0
1441 1 7.2805951561099276e+00 1.0449535938001787e+01 1.6255216922791384e+01 0 0 0
4386 1 8.5760415084325423e+00 1.1252350354814622e+01 1.1960835661649138e+01 1 0 1
2856 1 4.1458190985675749e+00 1.8804570513458663e+00 1.8339250021024259e+01 1 1 0
1374 1 5.3879018761322603e+00 1.3520331701433947e+00 1.6011250074028833e+01 1 0 0
4382 1 9.3778586959385777e+00 1.8093556209711412e+00 1.6565320052950369e+01 0 1 0
854 1 3.1819227170036530e+00 5.0283832925923919e+00 1.6364059119113747e+01 -1 0 0
3005 1 5.8981173066310681e+00 8.0717709453834079e+00 1.4801502076496078e+01 0 1 0
4508 1 9.4516182793017673e+00 3.9452423171601705e+00 1.8523733707905663e+01 0 0 0
3 1 7.6676411915887561e+00 2.4258502024260125e+00 1.1831657579392669e+01 0 0 0
2943 1 2.6990051117242402e+00 9.5724264970660027e+00 1.6383950303274453e+01 0 1 -1
719 1 2.8857573022947181e+00 9.2374407415431161e+00 1.9237162785345646e+01 1 1 0
3813 1 1.0214497670516238e+00 5.7943210208371028e+00 1.7433824209220980e+01 1 1 0
1576 1 4.5967231794725496e+00 1.1489694375518823e+01 1.6712323692748200e+01 2 1 0
41 1 1.6594000459501732e+00 1.4116650325632605e+00 1.9952031661580502e+01 0 1 1
2930 1 8.7525682688857742e+00 2.9272717350215116e-01 2.0876180418406104e+01 0 1 0
3118 1 3.7583451124972109e+00 1.1205311055784392e+01 1.1868255087160868e+01 0 0 0
1532 1 4.4635365472249706e+00 4.6606598856876902e+00 1.8728448531579076e+01 1 0 0
1389 1 1.0632146904104902e+00 7.0280512403172608e+00 1.9873073469914903e+01 0 1 0
2162 1 4.5083321183205509e+00 9.3889931198603787e+00 2.1613094304808573e+01 1 -1 0
677 1 9.4828368846743203e+00 2.8751167372978212e+00 2.1230362117740697e+01 1 0 -1
3586 1 2.7610708731065272e+00 1.2166154100447436e+01 1.9957465587148111e+01 1 0 0
597 1 7.4772772687828493e+00 8.5613368637375675e+00 2.1974034789564396e+01 0 1 0
2204 1 2.8395391462315360e+00 6.4742278257353094e+00 1.2136948309448915e+01 1 0 0
3628 1 4.4680292367610548e+00 4.9097444262319954e+00 2.1585272590694476e+01 1 1 0
3117 1 5.9366400105680395e+00 6.3697501762727915e-01 2.0189202407333703e+01 1 1 0
2961 1 8.6607365729580188e+00 1.1376154565706184e+01 2.1360169182619103e+01 -1 -1 0
4349 1 5.6304196772739079e+00 7.0722494870079267e+00 1.1832837229528193e+01 1 1 0
2205 1 8.1921518677472189e+00 1.1849185516849259e+01 2.6450725566733318e+01 1 0 0
730 1 7.8829585324499796e+00 1.0512675320297348e+01 3.0997813072087880e+01 1 0 -1
850 1 7.1585260205463586e+00 1.5149701262973607e+00 2.8352516316960266e+01 0 0 -1
735 1 7.7100159802371735e+00 1.9819224764377743e+00 2.5229737311928343e+01 -1 1 -1
4 1 4.8386891573990862e+00 2.5156651740073861e+00 2.4947559279374563e+01 0 0 0
2945 1 8.5059839519488349e+00 3.9154529472142636e+00 2.3594828369208322e+01 0 0 0
4391 1 2.1262797450167903e+00 9.3793826148067225e+00 2.5415105065669195e+01 0 1 0
650 1 3.4948786638735418e+00 4.7628889723156904e+00 2.6211478404211348e+01 1 0 0
2984 1 1.7533958647084289e+00 5.3847068949618473e+00 2.2220550376835959e+01 -1 1 1
3721 1 5.2197891228956061e+00 7.0105439846723954e+00 2.5148998622776709e+01 1 0 0
3003 1 1.1013996005613242e+00 4.7843074689813241e+00 2.4858000838495673e+01 0 0 -1
1528 1 6.8056810261530023e+00 5.8717937499323911e+00 2.2962901638497222e+01 0 0 0
4344 1 6.1759846783164356e+00 8.1601603568369594e+00 3.1200936628264749e+01 0 1 0
3022 1 5.4922525664781610e+00 8.7000196507734771e+00 2.7728079119959112e+01 0 0 -1
1361 1 7.5588125555665506e-02 7.6904103334592424e+00 2.5425221332644490e+01 0 0 -1
613 1 4.8953784635211166e+00 1.0768730625879083e+01 2.5242881418205176e+01 2 1 0
3724 1 7.4400860804736402e+00 9.5016433721557227e+00 2.4736409420878783e+01 1 0 -1
839 1 3.9385430489727997e+00 2.5665579070265530e+00 2.2550798356272210e+01 0 1 -1
2359 1 8.2497678095559579e-02 2.5515245851022672e+00 3.1163331740463686e+01 0 1 1
2323 1 2.9666913370404222e+00 2.5353188021610054e+00 2.8785464554147396e+01 1 1 -1
3723 1 4.5975775248765007e+00 3.7054482145119405e-01 2.8062325561094990e+01 0 1 0
3735 1 4.5222386871008249e+00 1.1884247339128706e+01 2.2394001656079059e+01 1 1 0
2335 1 1.0258288016704495e+00 2.4512631280757775e+00 2.2619615094876092e+01 1 1 0
3584 1 1.7528380462838713e+00 6.0288435257854829e+00 2.8447804252196850e+01 1 0 0
1343 1 7.9608869543947307e+00 5.3646499122570841e+00 2.8252780114464073e+01 1 1 0
1435 1 2.3053689137004567e+00 1.1093979234107493e+01 3.1575574679248927e+01 1 0 0
4494 1 2.7262350901648142e+00 8.7777912055863823e+00 2.8460919414126188e+01 0 0 0
1594 1 8.3180807360461504e+00 1.7077668551956471e+00 3.0975506917185562e+01 0 2 0
4515 1 3.1434069512204710e+00 7.7113067896564962e+00 2.3388870116561950e+01 1 0 1
709 1 8.4156525925625356e+00 6.9488127936809967e+00 2.5856442246712710e+01 0 0 -1
2276 1 1.0655090839644397e+00 1.1470054796261857e+00 2.7167531284054139e+01 1 -1 0
2874 1 7.9617029558450021e+00 9.7072562607340682e+00 2.8154895391382453e+01 0 0 0
4394 1 5.7693798672878556e+00 2.2799225116317205e+00 3.1557542784278091e+01 0 0 0
2326 1 2.9217053973164635e+00 1.6845130421704584e+00 3.1505741856443841e+01 0 0 0
3684 1 8.2000514039033288e+00 6.0311179673762760e+00 3.0849894502331964e+01 0 1 -1
4440 1 5.3394044592751069e+00 4.0833090733704154e+00 2.8544672358643616e+01 0 1 0
2942 1 2.0502405732815157e+00 1.1757605388412674e+01 2.8550068014007334e+01 1 0 0
3754 1 2.5538172610338288e+00 6.0062511025719001e+00 3.1229127417695292e+01 1 0 -1
2153 1 3.4758216992992499e+00 8.7685952400028206e+00 3.1393763670630605e+01 1 0 0
755 1 5.5318822763066828e+00 5.2195786970851383e+00 3.1336155041326119e+01 0 0 0
4504 1 1.1343746832858681e+00 1.2237381675892040e+01 2.4805584896567240e+01 0 1 0
137 2 0.0000000000000000e+00 1.2787731112280996e+01 3.1546096363467466e+00 0 0 0
139 2 1.2305000000000001e+00 1.3498160618518829e+01 3.1546096363467466e+00 0 0 0
174 2 2.4610000000000003e+00 1.2787731112280996e+01 3.1546096363467466e+00 0 0 0
176 2 3.6915000000000004e+00 1.3498160618518829e+01 3.1546096363467466e+00 0 0 0
135 2 0.0000000000000000e+00 1.5629449137232333e+01 3.1546096363467466e+00 0 0 0
170 2 1.2305000000000001e+00 1.4919019630994494e+01 3.1546096363467466e+00 0 0 0
172 2 2.4610000000000003e+00 1.5629449137232328e+01 3.1546096363467466e+00 0 0 0
215 2 3.6915000000000004e+00 1.4919019630994494e+01 3.1546096363467466e+00 0 0 0
219 2 4.9220000000000006e+00 1.2787731112280996e+01 3.1546096363467466e+00 0 0 0
221 2 6.1524999999999990e+00 1.3498160618518829e+01 3.1546096363467466e+00 0 0 0
266 2 7.3829999999999991e+00 1.2787731112280996e+01 3.1546096363467466e+00 0 0 0
268 2 8.6135000000000002e+00 1.3498160618518835e+01 3.1546096363467466e+00 0 0 0
217 2 4.9220000000000006e+00 1.5629449137232333e+01 3.1546096363467466e+00 0 0 0
262 2 6.1524999999999990e+00 1.4919019630994494e+01 3.1546096363467466e+00 0 0 0
264 2 7.3829999999999991e+00 1.5629449137232333e+01 3.1546096363467466e+00 0 0 0
309 2 8.6135000000000002e+00 1.4919019630994494e+01 3.1546096363467466e+00 0 0 0
166 2 0.0000000000000000e+00 1.7050308149707998e+01 3.1546096363467466e+00 0 0 0
211 2 2.4610000000000003e+00 1.7050308149707998e+01 3.1546096363467466e+00 0 0 0
164 2 0.0000000000000000e+00 1.9892026174659328e+01 3.1546096363467466e+00 0 0 0
168 2 1.2305000000000001e+00 1.7760737655945832e+01 3.1546096363467466e+00 0 0 0
207 2 1.2305000000000001e+00 1.9181596668421495e+01 3.1546096363467466e+00 0 0 0
209 2 2.4610000000000003e+00 1.9892026174659328e+01 3.1546096363467466e+00 0 0 0
213 2 3.6914999999999996e+00 1.7760737655945832e+01 3.1546096363467466e+00 0 0 0
254 2 3.6914999999999996e+00 1.9181596668421495e+01 3.1546096363467466e+00 0 0 0
258 2 4.9220000000000006e+00 1.7050308149707998e+01 3.1546096363467466e+00 0 0 0
305 2 7.3830000000000009e+00 1.7050308149707998e+01 3.1546096363467466e+00 0 0 0
256 2 4.9220000000000006e+00 1.9892026174659328e+01 3.1546096363467466e+00 0 0 0
260 2 6.1524999999999999e+00 1.7760737655945832e+01 3.1546096363467466e+00 0 0 0
301 2 6.1524999999999999e+00 1.9181596668421495e+01 3.1546096363467466e+00 0 0 0
303 2 7.3829999999999991e+00 1.9892026174659328e+01 3.1546096363467466e+00 0 0 0
307 2 8.6134999999999984e+00 1.7760737655945832e+01 3.1546096363467466e+00 0 0 0
343 2 8.6135000000000002e+00 1.9181596668421495e+01 3.1546096363467466e+00 0 0 0
201 2 0.0000000000000000e+00 2.4154603212086325e+01 3.1546096363467466e+00 0 0 0
203 2 0.0000000000000000e+00 2.1312885187134999e+01 3.1546096363467466e+00 0 0 0
205 2 1.2304999999999993e+00 2.2023314693372832e+01 3.1546096363467466e+00 0 0 0
246 2 1.2304999999999993e+00 2.3444173705848499e+01 3.1546096363467466e+00 0 0 0
248 2 2.4610000000000003e+00 2.4154603212086325e+01 3.1546096363467466e+00 0 0 0
250 2 2.4610000000000003e+00 2.1312885187134995e+01 3.1546096363467466e+00 0 0 0
252 2 3.6914999999999996e+00 2.2023314693372832e+01 3.1546096363467466e+00 0 0 0
293 2 3.6915000000000004e+00 2.3444173705848499e+01 3.1546096363467466e+00 0 0 0
295 2 4.9220000000000006e+00 2.4154603212086325e+01 3.1546096363467466e+00 0 0 0
297 2 4.9220000000000006e+00 2.1312885187134995e+01 3.1546096363467466e+00 0 0 0
299 2 6.1524999999999990e+00 2.2023314693372832e+01 3.1546096363467466e+00 0 0 0
335 2 6.1524999999999999e+00 2.3444173705848499e+01 3.1546096363467466e+00 0 0 0
337 2 7.3830000000000009e+00 2.4154603212086336e+01 3.1546096363467466e+00 0 0 0
339 2 7.3829999999999991e+00 2.1312885187134999e+01 3.1546096363467466e+00 0 0 0
341 2 8.6135000000000002e+00 2.2023314693372832e+01 3.1546096363467466e+00 0 0 0
369 2 8.6134999999999984e+00 2.3444173705848499e+01 3.1546096363467466e+00 0 0 0
138 2 0.0000000000000000e+00 1.2787731112280996e+01 6.1845461615343833e+00 0 0 0
175 2 2.4610000000000003e+00 1.2787731112280996e+01 6.1845461615343833e+00 0 0 0
136 2 0.0000000000000000e+00 1.4208590124756663e+01 6.1845461615343833e+00 0 0 0
171 2 1.2305000000000001e+00 1.4919019630994494e+01 6.1845461615343833e+00 0 0 0
173 2 2.4610000000000003e+00 1.4208590124756663e+01 6.1845461615343833e+00 0 0 0
216 2 3.6915000000000004e+00 1.4919019630994494e+01 6.1845461615343833e+00 0 0 0
220 2 4.9220000000000006e+00 1.2787731112280996e+01 6.1845461615343833e+00 0 0 0
267 2 7.3829999999999991e+00 1.2787731112280996e+01 6.1845461615343833e+00 0 0 0
218 2 4.9220000000000006e+00 1.4208590124756663e+01 6.1845461615343833e+00 0 0 0
263 2 6.1524999999999990e+00 1.4919019630994494e+01 6.1845461615343833e+00 0 0 0
265 2 7.3830000000000009e+00 1.4208590124756663e+01 6.1845461615343833e+00 0 0 0
310 2 8.6135000000000002e+00 1.4919019630994494e+01 6.1845461615343833e+00 0 0 0
167 2 0.0000000000000000e+00 1.7050308149707998e+01 6.1845461615343833e+00 0 0 0
169 2 1.2305000000000001e+00 1.6339878643470165e+01 6.1845461615343833e+00 0 0 0
212 2 2.4610000000000003e+00 1.7050308149707998e+01 6.1845461615343833e+00 0 0 0
214 2 3.6915000000000004e+00 1.6339878643470165e+01 6.1845461615343833e+00 0 0 0
165 2 0.0000000000000000e+00 1.8471167162183658e+01 6.1845461615343833e+00 0 0 0
208 2 1.2305000000000001e+00 1.9181596668421495e+01 6.1845461615343833e+00 0 0 0
210 2 2.4610000000000003e+00 1.8471167162183658e+01 6.1845461615343833e+00 0 0 0
255 2 3.6914999999999996e+00 1.9181596668421495e+01 6.1845461615343833e+00 0 0 0
259 2 4.9220000000000006e+00 1.7050308149707998e+01 6.1845461615343833e+00 0 0 0
261 2 6.1524999999999999e+00 1.6339878643470165e+01 6.1845461615343833e+00 0 0 0
306 2 7.3830000000000009e+00 1.7050308149707998e+01 6.1845461615343833e+00 0 0 0
308 2 8.6134999999999984e+00 1.6339878643470165e+01 6.1845461615343833e+00 0 0 0
257 2 4.9220000000000006e+00 1.8471167162183658e+01 6.1845461615343833e+00 0 0 0
302 2 6.1524999999999999e+00 1.9181596668421495e+01 6.1845461615343833e+00 0 0 0
304 2 7.3829999999999991e+00 1.8471167162183658e+01 6.1845461615343833e+00 0 0 0
344 2 8.6135000000000002e+00 1.9181596668421495e+01 6.1845461615343833e+00 0 0 0
206 2 1.2305000000000001e+00 2.0602455680897162e+01 6.1845461615343833e+00 0 0 0
253 2 3.6915000000000004e+00 2.0602455680897162e+01 6.1845461615343833e+00 0 0 0
202 2 0.0000000000000000e+00 2.2733744199610655e+01 6.1845461615343833e+00 0 0 0
204 2 0.0000000000000000e+00 2.1312885187134999e+01 6.1845461615343833e+00 0 0 0
247 2 1.2304999999999993e+00 2.3444173705848499e+01 6.1845461615343833e+00 0 0 0
249 2 2.4610000000000003e+00 2.2733744199610655e+01 6.1845461615343833e+00 0 0 0
251 2 2.4610000000000003e+00 2.1312885187134995e+01 6.1845461615343833e+00 0 0 0
294 2 3.6915000000000004e+00 2.3444173705848499e+01 6.1845461615343833e+00 0 0 0
300 2 6.1524999999999999e+00 2.0602455680897162e+01 6.1845461615343833e+00 0 0 0
342 2 8.6134999999999984e+00 2.0602455680897162e+01 6.1845461615343833e+00 0 0 0
296 2 4.9220000000000006e+00 2.2733744199610655e+01 6.1845461615343833e+00 0 0 0
298 2 4.9220000000000006e+00 2.1312885187134995e+01 6.1845461615343833e+00 0 0 0
336 2 6.1524999999999999e+00 2.3444173705848499e+01 6.1845461615343833e+00 0 0 0
338 2 7.3829999999999991e+00 2.2733744199610655e+01 6.1845461615343833e+00 0 0 0
340 2 7.3829999999999991e+00 2.1312885187134999e+01 6.1845461615343833e+00 0 0 0
370 2 8.6134999999999984e+00 2.3444173705848499e+01 6.1845461615343833e+00 0 0 0
447 2 0.0000000000000000e+00 1.2787731112280996e+01 9.2144826867223362e+00 0 0 0
448 2 1.2305000000000001e+00 1.3498160618518829e+01 9.2144826867223362e+00 0 0 0
466 2 2.4610000000000003e+00 1.2787731112280996e+01 9.2144826867223362e+00 0 0 0
467 2 3.6915000000000004e+00 1.3498160618518829e+01 9.2144826867223362e+00 0 0 0
446 2 0.0000000000000000e+00 1.5629449137232333e+01 9.2144826867223362e+00 0 0 0
464 2 1.2305000000000001e+00 1.4919019630994494e+01 9.2144826867223362e+00 0 0 0
465 2 2.4610000000000003e+00 1.5629449137232328e+01 9.2144826867223362e+00 0 0 0
487 2 3.6915000000000004e+00 1.4919019630994494e+01 9.2144826867223362e+00 0 0 0
548 2 6.1524999999999999e+00 2.3444173705848499e+01 9.2144826867223362e+00 0 0 0
489 2 4.9220000000000006e+00 1.2787731112280996e+01 9.2144826867223362e+00 0 0 0
490 2 6.1524999999999990e+00 1.3498160618518829e+01 9.2144826867223362e+00 0 0 0
513 2 7.3829999999999991e+00 1.2787731112280996e+01 9.2144826867223362e+00 0 0 0
514 2 8.6135000000000002e+00 1.3498160618518835e+01 9.2144826867223362e+00 0 0 0
488 2 4.9220000000000006e+00 1.5629449137232333e+01 9.2144826867223362e+00 0 0 0
511 2 6.1524999999999990e+00 1.4919019630994494e+01 9.2144826867223362e+00 0 0 0
512 2 7.3829999999999991e+00 1.5629449137232333e+01 9.2144826867223362e+00 0 0 0
535 2 8.6135000000000002e+00 1.4919019630994494e+01 9.2144826867223362e+00 0 0 0
529 2 4.9220000000000006e+00 2.1312885187134995e+01 9.2144826867223362e+00 0 0 0
462 2 0.0000000000000000e+00 1.7050308149707998e+01 9.2144826867223362e+00 0 0 0
485 2 2.4610000000000003e+00 1.7050308149707998e+01 9.2144826867223362e+00 0 0 0
461 2 0.0000000000000000e+00 1.9892026174659328e+01 9.2144826867223362e+00 0 0 0
463 2 1.2305000000000001e+00 1.7760737655945832e+01 9.2144826867223362e+00 0 0 0
483 2 1.2305000000000001e+00 1.9181596668421495e+01 9.2144826867223362e+00 0 0 0
484 2 2.4610000000000003e+00 1.9892026174659328e+01 9.2144826867223362e+00 0 0 0
486 2 3.6914999999999996e+00 1.7760737655945832e+01 9.2144826867223362e+00 0 0 0
507 2 3.6914999999999996e+00 1.9181596668421495e+01 9.2144826867223362e+00 0 0 0
528 2 4.9220000000000006e+00 2.4154603212086325e+01 9.2144826867223362e+00 0 0 0
509 2 4.9220000000000006e+00 1.7050308149707998e+01 9.2144826867223362e+00 0 0 0
533 2 7.3830000000000009e+00 1.7050308149707998e+01 9.2144826867223362e+00 0 0 0
508 2 4.9220000000000006e+00 1.9892026174659328e+01 9.2144826867223362e+00 0 0 0
510 2 6.1524999999999999e+00 1.7760737655945832e+01 9.2144826867223362e+00 0 0 0
531 2 6.1524999999999999e+00 1.9181596668421495e+01 9.2144826867223362e+00 0 0 0
532 2 7.3829999999999991e+00 1.9892026174659328e+01 9.2144826867223362e+00 0 0 0
534 2 8.6134999999999984e+00 1.7760737655945832e+01 9.2144826867223362e+00 0 0 0
552 2 8.6135000000000002e+00 1.9181596668421495e+01 9.2144826867223362e+00 0 0 0
480 2 0.0000000000000000e+00 2.4154603212086325e+01 9.2144826867223362e+00 0 0 0
481 2 0.0000000000000000e+00 2.1312885187134999e+01 9.2144826867223362e+00 0 0 0
482 2 1.2304999999999993e+00 2.2023314693372832e+01 9.2144826867223362e+00 0 0 0
503 2 1.2304999999999993e+00 2.3444173705848499e+01 9.2144826867223362e+00 0 0 0
504 2 2.4610000000000003e+00 2.4154603212086325e+01 9.2144826867223362e+00 0 0 0
505 2 2.4610000000000003e+00 2.1312885187134995e+01 9.2144826867223362e+00 0 0 0
506 2 3.6914999999999996e+00 2.2023314693372832e+01 9.2144826867223362e+00 0 0 0
527 2 3.6915000000000004e+00 2.3444173705848499e+01 9.2144826867223362e+00 0 0 0
530 2 6.1524999999999990e+00 2.2023314693372832e+01 9.2144826867223362e+00 0 0 0