
# Create simulation box and atoms

read_data data.ML_graphite_m500atm_240K
  orthogonal box = (0 0 1.70882) to (49.22 49.0196 32.2312)
  5 by 4 by 3 MPI processor grid
  reading atoms ...
  4537 atoms
  reading velocities ...
  4537 velocities
group water type 1
1777 atoms in group water
group graphite type 2
2760 atoms in group graphite

# Define potential

pair_style sw
pair_coeff * * MLC_e.sw mW C


# Fix graphite atoms in place

fix 5 graphite setforce 0.0 0.0 0.0
velocity graphite set 0.0 0.0 0.0


# Equilibration of molecular water

# Add velocity/set timestep

velocity	    water create ${TEMP} ${SEED} rot yes dist gaussian
velocity	    water create 240 ${SEED} rot yes dist gaussian
velocity	    water create 240 2441 rot yes dist gaussian
timestep	    5.0

# Define output

compute			1 water msd
compute			3 water temp
thermo	    	50
thermo_style	custom step temp press vol etotal ke pe c_1[4] c_3

# Neighbor lists

neigh_modify    delay 0 every 1 check yes

# Set fixes

fix             1 water momentum 10 linear 1 1 1 rescale
fix             2 water nve
fix             3 water temp/csvr ${TEMP} ${TEMP} 500.0 ${SEED}
fix             3 water temp/csvr 240 ${TEMP} 500.0 ${SEED}
fix             3 water temp/csvr 240 240 500.0 ${SEED}
fix             3 water temp/csvr 240 240 500.0 2441
fix             4 water press/berendsen z ${PRES} ${PRES} 1000.0 modulus 20000
fix             4 water press/berendsen z -500 ${PRES} 1000.0 modulus 20000
fix             4 water press/berendsen z -500 -500 1000.0 modulus 20000

# Run 0.5 ns equilibration

dump		    1 all atom 2000 ${DIR}/eq.${NAME}-${TEMP}.dump
dump		    1 all atom 2000 run_18/eq.${NAME}-${TEMP}.dump
dump		    1 all atom 2000 run_18/eq.het_freeze_18-${TEMP}.dump
dump		    1 all atom 2000 run_18/eq.het_freeze_18-240.dump

reset_timestep  0

run	            100000
Neighbor list info ...
  update every 1 steps, delay 0 steps, check yes
  max neighbors/atom: 2000, page size: 100000
  master list distance cutoff = 6.67472
  ghost atom cutoff = 6.67472
  binsize = 3.33736, bins = 15 15 10
  1 neighbor lists, perpetual/occasional/extra = 1 0 0
  (1) pair sw, perpetual
      attributes: full, newton on
      pair build: full/bin/atomonly
      stencil: full/bin/3d
      bin: standard
Per MPI rank memory allocation (min/avg/max) = 4.104 | 4.229 | 4.477 Mbytes
Step Temp Press Volume TotEng KinEng PotEng c_1[4] c_3 
       0    93.968254   -654.73592     73642.74   -17158.673    1270.5405   -18429.214            0          240 
      50    95.331159   -512.48003    73575.417   -17158.863    1288.9683   -18447.831   0.51796362    243.48093 
     100      94.2939   -770.18726     73572.96   -17135.345    1274.9435   -18410.288   0.87152375    240.83172 
     150    93.181778   -991.02397    73497.563   -17191.026    1259.9066   -18450.933    1.1630513     237.9913 
     200    95.305169   -772.56477    73491.696   -17164.106    1288.6168   -18452.722    1.4114115    243.41455 
     250    97.846069    -637.9415    73456.906   -17138.266    1322.9722   -18461.239    1.6361053    249.90415 
     300    96.627182   -1036.1568    73454.396   -17134.386    1306.4917   -18440.877    1.9363216    246.79105 
     350    92.997215   -785.44032    73458.324   -17151.468    1257.4111   -18408.879     2.090365    237.51992 
     400    95.858993   -676.06247    73483.311   -17122.476    1296.1051   -18418.581     2.286171    244.82905 
     450    94.564626   -1041.1561    73469.892   -17146.307     1278.604   -18424.911    2.5257169    241.52317 
     500    94.005858   -479.51246    73423.867   -17155.866    1271.0489   -18426.915      2.78459    240.09604 
     550    91.997892    -744.8566    73487.536   -17193.029    1243.8993   -18436.928    2.9279994    234.96759 
     600    94.886468   -661.30839    73609.032   -17180.369    1282.9556   -18463.325    3.1530359    242.34517 
     650    93.329095   -559.31601    73652.226   -17173.626    1261.8984   -18435.524     3.239716    238.36755 
     700    96.969289   -694.58778    73673.424   -17146.984    1311.1173   -18458.101    3.3991838    247.66481 
     750    92.902911   -715.54004    73720.954   -17163.608     1256.136   -18419.744    3.7094815    237.27906 
     800    96.407729   -1074.6827    73691.692   -17141.814    1303.5245   -18445.338    3.8559042    246.23055 
     850    93.328413   -1078.6087    73671.495   -17136.705    1261.8892   -18398.595    3.9420179    238.36581 
     900     92.78242   -843.18252    73700.243   -17174.838    1254.5069   -18429.345    4.1764656    236.97132 
     950    93.982364   -691.53855    73719.248   -17174.269    1270.7313       -18445    4.3178351    240.03604 
    1000    93.506401   -918.69265    73685.154   -17210.241    1264.2958   -18474.537     4.507839     238.8204 
    1050    93.996846   -778.74799    73742.765   -17167.968    1270.9271   -18438.895    4.7008525    240.07303 
    1100    92.053529   -893.23448     73767.77    -17151.51    1244.6516   -18396.161    4.9162013    235.10969 
    1150     92.97585   -773.16774    73752.667    -17176.27    1257.1222   -18433.392    5.0661342    237.46535 
    1200    92.391055   -1344.7844    73778.521   -17171.201    1249.2152   -18420.416    5.3212638    235.97175 
    1250    90.322782   -1115.3817    73720.498   -17194.881    1221.2502   -18416.131    5.4180818    230.68927 
    1300    95.870602   -844.57562     73654.98   -17198.235     1296.262   -18494.497    5.5932187     244.8587 
    1350     90.68836   -887.70551    73623.874   -17187.781    1226.1932   -18413.974    5.9960357    231.62297 
    1400    94.441615   -573.49983    73630.109   -17197.468    1276.9408   -18474.409    6.2311496    241.20899 
    1450    93.563461   -822.54186     73656.04    -17150.99    1265.0673   -18416.058    6.3309899    238.96614 
    1500    96.189954   -474.90003    73670.001   -17164.692      1300.58   -18465.272     6.431382    245.67434 
    1550    93.284924    -1284.051     73659.08   -17197.494    1261.3012   -18458.795    6.4873278    238.25474 
    1600    92.720206   -1081.3617     73572.71    -17193.13    1253.6657   -18446.796    6.5199754    236.81242 
    1650    95.134843   -732.52202    73524.113    -17183.47    1286.3139   -18469.784    6.6898971    242.97953 
    1700    95.102236   -402.18065    73614.005    -17151.46     1285.873   -18437.333      6.86514    242.89625 
    1750    95.714611   -786.79274    73676.672   -17187.445    1294.1529   -18481.598    6.9994778    244.46029 
    1800    94.710982   -846.61248    73742.064   -17208.666    1280.5829   -18489.248    7.1068914    241.89697 
    1850    91.415726   -820.58043    73741.321   -17204.201    1236.0279   -18440.229    7.2393389     233.4807 
    1900    96.389686   -954.04578    73761.848    -17166.42    1303.2805     -18469.7    7.3940337    246.18447 
    1950     94.99555   -841.29176     73721.35   -17127.987    1284.4305   -18412.418    7.4686356    242.62377 
    2000    94.083396   -903.08525    73685.144   -17141.556    1272.0973   -18413.654    7.6063341    240.29408 
    2050    96.145984   -882.78136    73624.295   -17146.396    1299.9855   -18446.382    7.7342704    245.56204 
    2100    93.885569   -791.65817    73604.206   -17189.891    1269.4225   -18459.313    7.8591647    239.78882 
    2150    96.761152    -654.1288    73599.152   -17158.073    1308.3031   -18466.377    7.9358069    247.13321 
    2200    95.305748   -835.57932    73568.589   -17172.839    1288.6247   -18461.463    8.0545437    243.41603 
    2250    93.535968   -474.40252    73545.436   -17198.077    1264.6956   -18462.773    8.3127381    238.89592 
    2300    93.988491    -709.9696    73540.901   -17213.091    1270.8141   -18483.905    8.4114641    240.05169 
    2350    92.692215   -504.78971    73488.747   -17245.693    1253.2872    -18498.98    8.6510115    236.74093 
    2400    91.303708   -561.98943     73537.17   -17260.031    1234.5133   -18494.545      8.67262    233.19461 
    2450    93.434988   -1056.7456    73568.857    -17265.15    1263.3302   -18528.481    8.8694777    238.63801 
    2500     91.00953   -1123.0784    73583.851   -17298.769    1230.5357   -18529.304    8.8615002    232.44326 
    2550     91.81286   -897.33286    73572.301   -17267.529    1241.3975   -18508.926     9.063327    234.49501 
    2600    92.198052   -795.81112    73580.143   -17286.491    1246.6057   -18533.096    9.2102988    235.47881 
    2650    92.035527   -578.63244    73621.534   -17253.128    1244.4082   -18497.536    9.4148199    235.06371 
    2700    94.333427   -935.10806    73671.727   -17238.057     1275.478   -18513.535    9.5110411    240.93267 
    2750    92.099124   -731.63234    73741.667    -17221.01    1245.2681   -18466.278    9.7044494    235.22614 
    2800    94.155107   -583.53113    73804.033   -17236.756    1273.0669   -18509.823    9.9125472    240.47723 
    2850    96.090466   -688.32227    73903.901   -17212.505    1299.2348    -18511.74    10.042146    245.42024 
    2900    95.159775   -867.37482    73875.551   -17189.077     1286.651   -18475.728    10.335024    243.04321 
    2950    91.970948   -1170.4584    73877.876    -17191.15     1243.535   -18434.685    10.510543    234.89877 
    3000    94.821882   -1375.2857     73834.21   -17199.692    1282.0823   -18481.774    10.617018    242.18021 
    3050    95.470679   -951.57345    73823.979   -17189.671    1290.8547   -18480.526    10.794909    243.83728 
    3100    93.800121   -1057.3435    73835.633   -17198.779    1268.2672   -18467.046    10.920036    239.57058 
    3150    94.013533   -1080.5682    73837.637   -17226.956    1271.1527   -18498.109    11.123606    240.11564 
    3200     94.14881   -860.32231     73911.28   -17195.367    1272.9818   -18468.348    11.324017    240.46115 
    3250    95.391397    -787.5992    73947.207   -17181.872    1289.7827   -18471.655    11.494217    243.63478 
    3300    93.323005   -983.19959    73936.882   -17200.768    1261.8161   -18462.584    11.713072      238.352 
    3350    93.923387    -493.6442    73875.307   -17192.336    1269.9338   -18462.269    11.992163    239.88541 
    3400     93.36704   -629.02878    73946.411   -17204.736    1262.4115   -18467.148    12.217662    238.46447 
    3450    93.279199    -695.6748    73963.872   -17225.673    1261.2238   -18486.897     12.45714    238.24012 
    3500    93.572317   -778.11024    74046.394   -17242.931     1265.187   -18508.119    12.615605    238.98876 
    3550    92.954269   -900.33158    74084.157   -17262.797    1256.8304   -18519.628    12.762051    237.41023 
    3600    91.711519   -869.99788    74044.096    -17282.97    1240.0273   -18522.998     12.87143    234.23618 
    3650    91.644725   -941.98855    74017.337   -17252.151    1239.1241   -18491.275    13.068617    234.06558 
    3700    90.677733   -849.53424    74027.533   -17250.126    1226.0495   -18476.175    13.230954    231.59583 
    3750    91.948352   -868.48121    74036.769   -17255.751    1243.2295   -18498.981    13.361764    234.84106 
    3800    91.725851   -819.24933    74044.253   -17234.288     1240.221   -18474.509    13.531431    234.27278 
    3850    90.169555    -894.5389    73985.847   -17251.937    1219.1784   -18471.116    13.696751    230.29792 
    3900    91.670553   -861.94432    73925.859   -17263.172    1239.4734   -18502.646    13.738056    234.13155 
    3950    92.055751   -825.54444    73944.812   -17224.608    1244.6816    -18469.29    13.888354    235.11536 
    4000    91.279431   -1080.3236    73946.856    -17191.91     1234.185   -18426.095    14.137869     233.1326 
    4050    96.091336   -858.66992     73912.66   -17171.775    1299.2466   -18471.022    14.177207    245.42247 
    4100    96.722752   -853.33072    73978.034   -17151.658    1307.7839   -18459.442    14.279286    247.03514 
    4150    94.454848    -882.8327    73985.965   -17153.799    1277.1197   -18430.918    14.443236    241.24279 
    4200    96.283807   -1021.5335    74007.853   -17169.605     1301.849   -18471.454    14.658448    245.91405 
    4250     94.52518   -940.42442    73980.056   -17186.058    1278.0706   -18464.129    14.770221    241.42242 
    4300    90.513223   -987.97542    73980.814   -17224.143    1223.8252   -18447.968     15.16342    231.17566 
    4350    94.143829   -932.74101    73971.232   -17181.462    1272.9144   -18454.376     15.59305    240.44843 
    4400    93.650872   -951.62821    73973.068   -17161.588    1266.2492   -18427.837    15.834724    239.18939 
    4450    95.761829   -796.59259     73928.48   -17172.096    1294.7913   -18466.888    15.878748    244.58089 
    4500    97.759168   -936.47634    73907.823   -17157.904    1321.7972   -18479.702    16.130591     249.6822 
    4550    93.033329   -960.64122    73874.076   -17220.234    1257.8994   -18478.133    16.326956    237.61215 
    4600    93.997859   -667.65391    73877.056   -17201.162    1270.9408   -18472.102    16.573877    240.07561 
    4650     95.39213   -645.69244    73931.321   -17205.888    1289.7926    -18495.68    16.836958    243.63666 
    4700    94.532613   -916.83487    73987.616    -17179.68    1278.1711   -18457.852    16.984712     241.4414 
    4750    96.241689   -757.98905    73994.924   -17151.134    1301.2795   -18452.414    17.004157    245.80647 
    4800    95.729723   -1100.0757    73977.239   -17179.191    1294.3572   -18473.548    17.113346    244.49889 
    4850    91.827494   -1281.0774    73915.259    -17226.37    1241.5954   -18467.965    17.141316    234.53238 
    4900    95.007981   -1065.8306    73887.915   -17199.516    1284.5986   -18484.114    17.426824    242.65552 
    4950    91.635886    -646.2064    73908.254   -17212.267    1239.0046   -18451.271    17.675149    234.04301 
    5000    93.433079    -819.2475    73940.815   -17184.015    1263.3044   -18447.319    17.923241    238.63313 
    5050    92.579239   -889.80451    73946.787   -17222.356    1251.7597   -18474.116    18.055183    236.45238 
    5100    97.175099   -890.91564    73889.473    -17223.03    1313.9001    -18536.93    18.285659    248.19046 
    5150    93.562359   -1092.8724    73928.056   -17241.538    1265.0524    -18506.59    18.415516    238.96332 
    5200    92.866517   -1022.0178    73906.506   -17194.012    1255.6439   -18449.656    18.613821     237.1861 
    5250    92.623752   -870.84548    73935.694   -17175.893    1252.3615   -18428.255    18.661044    236.56607 
    5300    93.012046   -800.21182    74002.287   -17198.796    1257.6116   -18456.408    18.694597    237.55779 
    5350    97.247458   -1111.6313    74061.546   -17176.863    1314.8784   -18491.742    18.694116    248.37526 
    5400    95.502566    -1034.495    74070.662    -17197.06    1291.2858   -18488.345    18.866488    243.91871 
    5450    93.871212   -740.37676     74110.05   -17187.535    1269.2284   -18456.763    19.112365    239.75215 
    5500    95.427715   -847.07196    74161.886   -17183.631    1290.2738   -18473.905    19.208789    243.72754 
    5550    95.609351   -524.56536      74215.2    -17166.43    1292.7297    -18459.16    19.374947    244.19145 
    5600    94.849351   -467.43584    74287.468   -17175.015    1282.4538   -18457.469    19.485941    242.25037 
    5650    93.563481   -945.09023    74252.069   -17203.341    1265.0676   -18468.408    19.644251    238.96619 
    5700    94.181297   -1067.4763    74173.416   -17177.629     1273.421    -18451.05    19.837029    240.54412 
    5750    94.796714   -1076.0114    74100.454   -17160.428    1281.7421    -18442.17    20.286182    242.11593 
    5800    94.869531    -1159.726    74080.852   -17204.468    1282.7266   -18487.195    20.343315    242.30191 
    5850    93.236663   -882.52814    74072.267    -17199.16    1260.6487   -18459.808    20.736172    238.13148 
    5900    94.602035   -904.67198    74080.152   -17219.802    1279.1098   -18498.912    20.755732    241.61871 
    5950    93.248205   -654.34562     74123.17   -17206.031    1260.8047   -18466.836    20.938097    238.16095 
    6000    96.105132   -739.09872    74157.688   -17194.835    1299.4331   -18494.269    20.978301     245.4577 
    6050    95.866103   -960.37919    74164.379   -17205.217    1296.2012   -18501.418    21.168093    244.84721 
    6100    93.694469   -767.97368    74132.486   -17203.051    1266.8386    -18469.89     21.42951    239.30074 
    6150    93.549883   -806.10023    74074.825   -17209.854    1264.8837   -18474.738    21.883788    238.93146 
    6200    93.256482   -855.24311    74096.295   -17240.183    1260.9166     -18501.1    21.881927    238.18209 
    6250    92.094107   -919.56403    74127.333   -17192.618    1245.2002   -18437.819    22.039314    235.21333 
    6300    93.626694   -1062.7814    74115.213   -17190.686    1265.9223   -18456.609    22.068386    239.12764 
    6350    93.468092   -1164.4358    74117.985   -17146.504    1263.7778   -18410.282    22.296388    238.72256 
    6400    95.207383   -828.37616    74066.679   -17143.465    1287.2947    -18430.76     22.44654     243.1648 
    6450    96.092086   -663.90796    74037.487    -17170.48    1299.2567   -18469.737    22.495918    245.42438 
    6500    94.088464   -770.26329    74048.997   -17213.656    1272.1658   -18485.822    22.513901    240.30702 
    6550    92.052185   -997.16314    73980.693   -17259.861    1244.6334   -18504.494    22.666806    235.10626 
    6600    93.602813   -805.50377    73945.894   -17255.741    1265.5994    -18521.34    22.666455    239.06665 
    6650    91.792836   -1126.8221     73909.86   -17265.901    1241.1267   -18507.028    22.710502    234.44386 
    6700    93.214429   -881.29419     73968.14   -17229.443     1260.348   -18489.791    23.035781    238.07469 
    6750    96.264871   -833.08318    73956.354   -17233.274    1301.5929   -18534.867    22.993566    245.86568 
    6800    91.718343   -991.07692    73975.944   -17271.808    1240.1195   -18511.927    23.309891    234.25361 
    6850    91.676312   -1123.8677    73989.563   -17277.156    1239.5512   -18516.708    23.585231    234.14626 
    6900    94.436432   -1173.4579    73982.883   -17246.247    1276.8707   -18523.117    23.641716    241.19575 
    6950    91.805235   -998.86029    74044.514   -17262.567    1241.2944   -18503.861    23.842528    234.47553 
    7000     95.44867   -863.16845    74103.692   -17222.348    1290.5571   -18512.906    23.916087    243.78106 
    7050    94.367305   -1016.1362    74052.285    -17200.51     1275.936   -18476.446    24.222013     241.0192 
    7100    95.738854   -969.76781    74051.084   -17196.908    1294.4807   -18491.388    24.375691    244.52221 
    7150    93.633557   -898.37884    73987.074   -17164.248    1266.0151   -18430.263    24.537217    239.14517 
    7200    91.249423   -955.02866    74056.927   -17198.161    1233.7793    -18431.94     24.55783    233.05596 
    7250    94.791397   -859.39711    74037.588   -17193.509    1281.6702   -18475.179    24.472316    242.10235 
    7300    94.123893   -804.29726    74089.144   -17178.526    1272.6449   -18451.171    24.708667    240.39751 
    7350    92.773609   -746.46686    74101.927   -17185.907    1254.3877   -18440.295    25.031024    236.94881 
    7400    91.925866   -807.17003     74095.97   -17162.105    1242.9254   -18405.031    25.349144    234.78363 
    7450    94.080036   -904.80579    74138.927   -17158.217    1272.0519   -18430.269    25.652859     240.2855 
    7500    93.654418   -1063.1372    74126.587    -17152.98    1266.2971   -18419.277    25.839631    239.19845 
    7550     91.35818     -730.547     74150.21   -17162.874    1235.2498   -18398.124    26.007826    233.33373 
    7600    92.351986   -1269.6912    74151.687    -17185.37     1248.687   -18434.057    26.360964    235.87196 
    7650    90.505904   -1060.2931    74175.117   -17191.743    1223.7262   -18415.469    26.434378    231.15697 
    7700    98.133213   -878.08174    74155.065   -17189.301    1326.8547   -18516.155    26.517756    250.63753 
    7750    92.591592   -1120.8832    74109.497    -17193.06    1251.9267   -18444.987    26.976192    236.48393 
    7800    92.387769   -868.53403    73990.042   -17211.707    1249.1708   -18460.878    27.311969    235.96336 
    7850    96.498479   -794.90739    73936.943   -17170.432    1304.7515   -18475.183    27.404607    246.46233 
    7900    92.640701   -864.64268    73898.725   -17184.369    1252.5907    -18436.96    27.465999    236.60936 
    7950    91.583999   -955.59249    73862.724   -17202.791    1238.3031   -18441.094    27.793769    233.91049 
    8000    94.890052   -951.17921    73827.486   -17215.736    1283.0041    -18498.74     27.92592    242.35432 
    8050    91.366872   -1142.1912    73831.218   -17215.118    1235.3673   -18450.485    27.928889    233.35593 
    8100    92.737409    -1173.289    73828.875   -17218.636    1253.8983   -18472.534    27.792814    236.85636 
    8150    92.963327   -929.38456    73815.673   -17230.574    1256.9529   -18487.527    28.108969    237.43336 
    8200    91.576079   -905.73829    73837.779   -17247.178     1238.196   -18485.374    28.409824    233.89026 
    8250    92.539377    -1011.938    73858.494   -17270.547    1251.2207   -18521.768    28.709821    236.35057 
    8300    92.660671   -931.29492     73872.96   -17244.642    1252.8607   -18497.502    29.115799    236.66036 
    8350    93.502895   -1116.3414    73908.801   -17226.657    1264.2484   -18490.905    29.345383    238.81145 
    8400    91.824044   -1173.0712    73883.841   -17215.806    1241.5487   -18457.355    29.494219    234.52357 
    8450    96.934099    -772.0646    73903.681   -17225.012    1310.6415   -18535.654    29.338972    247.57493 
    8500    95.520335   -777.50539      73952.7   -17175.242    1291.5261   -18466.768    29.511414     243.9641 
    8550    94.968042   -1047.4951    73965.708   -17235.995    1284.0586   -18520.053    29.496496    242.55351 
    8600    93.411997   -1201.5328    74008.151   -17234.228    1263.0193   -18497.248    29.588177    238.57929 
    8650    94.948238   -824.06775    73997.381   -17239.175    1283.7908   -18522.966    29.831232    242.50293 
    8700    93.409092   -824.82707    74000.893   -17224.915    1262.9801   -18487.896    29.918179    238.57187 
    8750    92.236875    -336.3901    74026.997       -17240    1247.1306   -18487.131    29.936376    235.57796 
    8800    94.686439   -663.72452    74060.002   -17188.483     1280.251   -18468.734    30.046882    241.83428 
    8850    95.053363   -696.54522    74016.245   -17177.883    1285.2122   -18463.095    29.998683    242.77143 
    8900     93.72913   -703.78545    73986.803   -17203.394    1267.3073   -18470.701    30.183548    239.38926 
    8950    92.202812   -925.43058    73988.071   -17226.761      1246.67   -18473.431    30.370889    235.49097 
    9000    92.944899   -728.89739    73960.222   -17226.974    1256.7037   -18483.678    30.589841    237.38629 
    9050    93.331677   -981.69989    73885.355    -17229.14    1261.9333   -18491.074    30.804359    238.37415 
    9100    92.063451   -831.88103    73832.331   -17221.995    1244.7857    -18466.78    31.077997    235.13503 
    9150    96.701123   -790.11536    73878.522    -17167.28    1307.4915   -18474.772      31.2733     246.9799 
    9200     94.92198   -434.24112    73892.252    -17143.73    1283.4358   -18427.166     31.63405    242.43587 
    9250    94.615727   -792.88583    74020.579   -17143.379    1279.2949   -18422.674     31.86286    241.65368 
    9300    95.723396   -1144.9145    73957.155   -17135.144    1294.2717   -18429.416    31.986906    244.48273 
    9350    97.180459   -1263.8769    73905.957   -17166.464    1313.9725   -18480.436    32.056876    248.20414 
    9400    98.120565    -986.4126    73882.161   -17109.779    1326.6837   -18436.462    32.296541    250.60523 
    9450     94.89022   -980.66257    73859.731    -17146.87    1283.0063   -18429.876    32.550579    242.35475 
    9500    95.377027   -1124.1355    73770.218   -17153.104    1289.5884   -18442.693     32.64725    243.59808 
    9550    96.119748   -578.66382    73789.341   -17152.182    1299.6307   -18451.813    33.008645    245.49503 
    9600    95.145668   -1176.4062    73842.392   -17179.946    1286.4602   -18466.406    33.223036    243.00718 
    9650    94.901525   -751.74823    73863.325   -17161.944    1283.1592   -18445.104    33.414293    242.38362 
    9700    95.089431    -822.0976    73919.448   -17236.812    1285.6999   -18522.512    33.617016    242.86355 
    9750    93.402924   -837.67014    73977.177   -17243.287    1262.8967   -18506.184    33.700381    238.55612 
    9800    93.845035   -1135.3705    73982.572   -17229.105    1268.8744    -18497.98    33.759465    239.68529 
    9850    89.722797   -645.09453    73986.328   -17266.344    1213.1378   -18479.482    34.037506    229.15687 
    9900    93.757707   -836.49711    73931.465   -17255.238    1267.6937   -18522.932    34.132649    239.46225 
    9950     94.89337   -1067.3658    73951.986   -17239.679    1283.0489   -18522.728    34.389551     242.3628 
   10000    92.765557   -749.02776    73977.344   -17250.789    1254.2789   -18505.068    34.607973    236.92825 
   10050    95.124343   -855.64869    73970.508   -17228.814    1286.1719   -18514.986    34.893195    242.95271 
   10100    92.307468      -1044.7    73951.528   -17256.051    1248.0851   -18504.136    34.979411    235.75826 
   10150    96.127803   -1009.1626    74011.563   -17230.762    1299.7396   -18530.502    35.179658    245.51561 
   10200    94.906439   -1069.7985    74019.364   -17216.896    1283.2256   -18500.121    35.381934    242.39618 
   10250    95.267504   -954.10985    73957.568   -17235.504    1288.1076   -18523.612    35.405848    243.31836 
   10300     94.25364   -1012.8963    73899.922   -17246.802    1274.3992   -18521.201    35.545905    240.72889 
   10350    93.696531   -782.24857    73872.404   -17259.195    1266.8665   -18526.062    35.820646      239.306 
   10400    93.868634   -1079.2063    73873.625   -17266.466    1269.1935   -18535.659    35.813929    239.74557 
   10450    95.897211   -591.32837    73917.038    -17232.84    1296.6218   -18529.461    36.068485    244.92666 
   10500    95.096337   -555.60164    73931.559   -17211.773    1285.7932   -18497.566    36.347291    242.88119 
   10550    95.242705   -680.24571    73928.433   -17219.866    1287.7723   -18507.638    36.385115    243.25502 
   10600     93.43694   -922.05757    73962.929   -17259.413    1263.3566    -18522.77    36.708427    238.64299 
   10650    94.669107   -775.31975    74048.113   -17219.453    1280.0167   -18499.469    36.871268    241.79002 
   10700    94.823192   -806.92758    74071.499   -17193.802       1282.1   -18475.902    36.937211    242.18356 
   10750    92.086575   -872.41713     74077.61   -17190.235    1245.0984   -18435.334    36.996259    235.19409 
   10800    92.820132   -897.81187    74078.216   -17172.009    1255.0168   -18427.026    36.949801    237.06764 
   10850    96.377024   -825.25992    74058.137   -17188.224    1303.1093   -18491.333    36.809352    246.15213 
   10900    93.390156   -1070.2353    74017.928    -17198.49     1262.724   -18461.214      37.0393    238.52351 
   10950    92.480536   -1141.2519    73945.464   -17169.983    1250.4251   -18420.408     37.34761    236.20029 
   11000    93.077258   -1240.2042    73907.645   -17166.365    1258.4934   -18424.858    37.412262    237.72435 
   11050    96.596542   -1074.0873    73855.887   -17162.299    1306.0774   -18468.376    37.599845    246.71279 
   11100    95.379206   -989.52061    73796.285   -17158.439    1289.6179   -18448.057      37.8428    243.60365 
   11150    94.823821   -1102.4107    73762.526   -17198.895    1282.1086   -18481.004    38.084312    242.18516 
   11200    94.092135   -1069.0925    73723.187   -17224.894    1272.2155    -18497.11    38.395923     240.3164 
   11250    92.718842   -1216.3732    73716.111    -17237.12    1253.6472   -18490.767    38.861334    236.80893 
   11300     93.20366   -1149.4045    73707.909   -17241.287    1260.2024   -18501.489     39.05134    238.04719 
   11350    92.088672   -1118.2142    73630.204   -17278.465    1245.1267   -18523.592    39.309781    235.19945 
   11400    89.823738   -648.16411    73641.612   -17256.991    1214.5027   -18471.493    39.474217    229.41468 
   11450    93.642378   -927.80111    73633.578   -17247.765    1266.1343   -18513.899    39.273607     239.1677 
   11500    90.752277   -1215.3821    73699.007   -17257.898    1227.0574   -18484.956    39.644599    231.78622 
   11550    92.724807   -1041.6409    73669.669    -17219.43    1253.7279   -18473.158    39.729962    236.82417 
   11600    93.405686   -703.43719    73638.938   -17197.892     1262.934   -18460.826    39.901789    238.56317 
   11650      95.6224   -894.40428    73664.707   -17191.308    1292.9061   -18484.214    40.192001    244.22478 
   11700    96.375674   -629.18995    73691.239   -17208.713    1303.0911   -18511.804    40.300882    246.14868 
   11750    93.239834   -1008.9846    73679.836   -17220.762    1260.6915   -18481.453    40.572279    238.13958 
   11800    91.255999   -1027.8384    73590.234    -17255.62    1233.8682   -18489.488    40.521538    233.07276 
   11850    94.360864   -627.71458    73532.628   -17259.183    1275.8489   -18535.032     40.81335    241.00275 
   11900      92.5191   -614.32048    73544.939   -17284.848    1250.9465   -18535.795    41.245312    236.29878 
   11950     90.35874   -704.93595    73543.706   -17254.871    1221.7364   -18476.608    41.676009    230.78111 
   12000    92.911642   -501.68505    73548.485   -17264.828    1256.2541   -18521.082    41.802689    237.30136 
   12050    93.470573   -581.61907    73564.247   -17211.977    1263.8114   -18475.789    42.055301     238.7289 
   12100    94.080532   -869.88448    73590.294   -17200.616    1272.0586   -18472.675    42.411515    240.28676 
   12150    89.709946   -718.34466    73543.843   -17223.355    1212.9641   -18436.319    42.304314    229.12405 
   12200    94.117352   -899.77868    73527.989   -17205.134    1272.5564   -18477.691    42.230475     240.3808 
   12250    92.200909   -802.59345    73512.734   -17219.848    1246.6443   -18466.492    42.283594     235.4861 
   12300    94.928922    -896.8382    73535.064   -17203.764    1283.5296   -18487.294    42.515401     242.4536 
   12350    95.775623    -807.6194    73569.367   -17170.998    1294.9778   -18465.975    42.813951    244.61612 
   12400    94.676936    -875.6632    73607.805    -17197.52    1280.1225   -18477.643    42.969082    241.81001 
   12450    94.598179   -1063.3006    73599.188    -17212.48    1279.0577   -18491.538    43.138563    241.60886 
   12500    94.340637   -936.76444    73599.433   -17209.256    1275.5755   -18484.832    43.178105    240.95109 
   12550    92.658548   -796.07772    73652.064   -17238.329     1252.832   -18491.161    43.389719    236.65494 
   12600    93.341285   -935.29079    73695.532   -17207.716    1262.0633   -18469.779    43.598645    238.39869 
   12650    93.203348    -801.3264    73719.375   -17247.066    1260.1982   -18507.265    43.719122    238.04639 
   12700    90.508316   -951.07063    73703.479   -17255.082    1223.7588   -18478.841    44.069513    231.16313 
   12750    94.047664    -1042.778    73674.078   -17244.406    1271.6142    -18516.02    44.307414    240.20282 
   12800    93.593315   -584.40628    73662.506   -17231.777    1265.4709   -18497.248    44.599605    239.04239 
   12850     93.65232   -798.53722    73688.661   -17203.042    1266.2687    -18469.31    44.623301    239.19309 
   12900     94.25051   -720.78325    73728.959   -17189.152    1274.3569   -18463.508    44.495947     240.7209 
   12950    95.912634    -561.4564    73717.618   -17204.356    1296.8304   -18501.186    44.746973    244.96605 
   13000    94.651816   -866.29443    73732.207   -17173.788    1279.7829   -18453.571    44.766904    241.74585 
   13050    96.231256   -865.17248    73673.694   -17163.363    1301.1384   -18464.502    44.838487    245.77983 
   13100    94.068621   -664.44508    73662.935   -17187.007    1271.8975   -18458.905    45.129121    240.25634 
   13150     95.73297   -1058.4581    73660.056    -17172.12    1294.4011   -18466.521    45.184762    244.50718 
   13200    94.848468   -788.07369    73633.228   -17172.986    1282.4418   -18455.427     45.18879    242.24811 
   13250    96.533107   -635.54885    73676.053   -17188.529    1305.2197   -18493.749    45.291969    246.55077 
   13300    93.337655   -387.75955    73752.521   -17225.522    1262.0142   -18487.536    45.596195    238.38942 
   13350    95.011128   -710.56569    73841.691   -17230.315    1284.6411   -18514.956    45.678678    242.66356 
   13400      94.8429   -806.02539    73887.071     -17236.4    1282.3665   -18518.766    45.896383    242.23389 
   13450    93.036569   -1003.1238    73898.037   -17231.612    1257.9432   -18489.556    46.264614    237.62043 
   13500    95.127354   -583.26273    73897.724   -17229.544    1286.2126   -18515.756    46.345166     242.9604 
   13550    92.834504    -806.0816     73948.65   -17195.399    1255.2111    -18450.61    46.860324    237.10434 
   13600      95.6377   -1010.5534    74002.637   -17182.634     1293.113   -18475.747    46.947656    244.26386 
   13650    93.230225   -1060.1312    74046.295   -17213.396    1260.5616   -18473.957    47.048847    238.11503 
   13700    94.002101   -756.76325    74004.788    -17182.35    1270.9981   -18453.348     47.25178    240.08645 
   13750    96.259357    -956.7914    73983.426   -17173.045    1301.5184   -18474.564    47.517406     245.8516 
   13800    97.126827   -1175.8987    73920.461   -17151.632    1313.2474    -18464.88    47.760196    248.06717 
   13850    95.492999   -889.28651    73888.525   -17130.626    1291.1565   -18421.782    48.000343    243.89428 
   13900    95.308476   -970.14861    73859.186   -17115.978    1288.6616    -18404.64     48.27892      243.423 
   13950    96.177634    -725.4376    73898.204   -17118.966    1300.4134   -18419.379    48.354343    245.64288 
   14000    94.707018   -787.61598    73924.349   -17139.688    1280.5293   -18420.218    48.546033    241.88684 
   14050    96.859739   -637.36293    73982.718   -17164.345    1309.6361   -18473.981    48.502175    247.38501 
   14100    94.729204   -1168.7088    74012.189   -17153.114    1280.8292   -18433.943    48.771287    241.94351 
   14150    94.298447    -779.5021    74048.221   -17182.405     1275.005    -18457.41    49.107477    240.84333 
   14200    96.309893   -781.53556    74090.913   -17175.367    1302.2017   -18477.568      49.1435    245.98067 
   14250    94.623634   -942.46799    74090.118   -17177.474    1279.4018   -18456.876    49.243714    241.67388 
   14300    92.042837   -938.95633    74076.235    -17188.55     1244.507   -18433.057     49.25662    235.08238 
   14350    95.097891   -1078.8316    74126.666   -17158.939    1285.8142   -18444.753      49.6025    242.88515 
   14400      91.6215   -897.42253    74125.029   -17191.558    1238.8101   -18430.368    49.323451    234.00626 
   14450    94.477725   -945.99036    74055.022   -17171.625     1277.429   -18449.054    49.575097    241.30122 
   14500    93.527084    -976.6267    74010.489   -17172.049    1264.5754   -18436.624    49.523474    238.87323 
   14550    93.022042   -730.93568    74019.401    -17211.64    1257.7468   -18469.386    49.657771    237.58332 
   14600    91.891595   -930.13198    74030.153   -17187.154    1242.4621   -18429.616    49.749997     234.6961 
   14650     92.31455   -922.40314    73957.558   -17226.338    1248.1808   -18474.519    49.723461    235.77635 
   14700    90.441753   -1085.6341    73915.657   -17262.915    1222.8588   -18485.774    49.831636    230.99313 
   14750    91.990668   -719.41029    73954.685   -17289.285    1243.8016   -18533.086    50.141046    234.94914 
   14800    92.346526   -936.53632    73963.868   -17299.268    1248.6132   -18547.881    50.303043    235.85802 
   14850    92.409531   -776.39036    74020.922   -17269.305    1249.4651    -18518.77    50.463562    236.01894 
   14900    89.690848   -900.30621    74093.983   -17254.683    1212.7059   -18467.389    50.896347    229.07528 
   14950    94.589559   -1097.7221    74120.748   -17243.201    1278.9411   -18522.142    51.090211    241.58685 
   15000    93.983564   -982.55743    74181.073     -17216.1    1270.7475   -18486.848    51.426633     240.0391 
   15050    93.344223   -1090.6219    74178.279   -17225.896     1262.103   -18487.999    51.537383    238.40619 
   15100    94.295829   -718.72475    74199.035   -17203.163    1274.9696   -18478.133    51.857114    240.83664 
   15150    92.730359   -886.78772    74162.852    -17176.76     1253.803   -18430.563    51.870785    236.83835 
   15200    92.749903   -894.96514    74090.766   -17176.125    1254.0672   -18430.193    51.724289    236.88827 
   15250    91.328266   -1274.0467    73996.993   -17184.013    1234.8453   -18418.858    51.996757    233.25733 
   15300    94.417101   -962.71668    74002.124   -17159.096    1276.6093   -18435.705    51.913631    241.14638 
   15350    94.726997   -997.27315    74040.276   -17146.064    1280.7994   -18426.864    52.354402    241.93787 
   15400    94.772529   -978.32091    74022.318   -17161.203     1281.415   -18442.618    52.804198    242.05416 
   15450      93.5503   -989.99123    73992.182   -17157.732    1264.8893   -18422.621    53.044878    238.93252 
   15500    94.398927    -1168.325    73917.496   -17139.301    1276.3636   -18415.665    53.197714    241.09996 
   15550    94.832498   -944.26454    73909.202   -17139.781    1282.2259   -18422.007    53.400997    242.20733 
   15600    93.512137   -801.36387    73916.721   -17136.552    1264.3733   -18400.926    53.418695    238.83505 
   15650    96.490725   -1078.7947    73936.179    -17104.17    1304.6467   -18408.816    53.631964    246.44253 
   15700    96.807845   -886.64932    73935.609   -17114.275    1308.9345    -18423.21     53.63654    247.25247 
   15750    94.999966    -863.8727    73925.606   -17115.505    1284.4902   -18399.995    54.123971    242.63505 
   15800    95.862893   -1169.3596    73897.136   -17130.277    1296.1578   -18426.435    54.441735    244.83901 
   15850    94.332518   -988.00405    73884.786   -17149.829    1275.4657   -18425.295    54.826327    240.93035 
   15900    92.204872   -853.41475    73792.076   -17158.858    1246.6979   -18405.556    54.914223    235.49623 
   15950    93.164824   -927.20277    73812.638   -17196.161    1259.6773   -18455.838    55.073065      237.948 
   16000    91.697723   -637.37392     73805.63   -17182.228    1239.8407   -18422.069    55.050165    234.20094 
   16050    93.541064   -1031.3817     73770.65   -17176.329    1264.7645   -18441.093    55.178957    238.90893 
   16100     93.50362   -662.87325    73723.531   -17161.487    1264.2582   -18425.745    55.363168     238.8133 
   16150    93.850334   -834.06879    73750.421   -17192.476    1268.9461   -18461.422     55.64456    239.69883 
   16200    93.813792   -1044.9256    73779.466   -17199.635     1268.452   -18468.087    55.956456     239.6055 
   16250    92.495405   -1307.8813    73659.742   -17208.996    1250.6262   -18459.622    56.377245    236.23826 
   16300    92.502729   -742.49301    73607.101   -17210.918    1250.7252   -18461.644    56.450005    236.25697 
   16350    91.682927   -1046.8985    73616.553   -17194.577    1239.6407   -18434.218    56.612086    234.16315 
   16400    95.793377   -747.16489    73651.948   -17180.388    1295.2179   -18475.606    56.972525    244.66146 
   16450    94.283668   -937.66779    73727.217   -17162.709    1274.8052   -18437.514     57.34324    240.80559 
   16500    94.808113   -1198.9808    73703.032   -17158.128    1281.8962   -18440.024    57.305175    242.14505 
   16550    93.312709   -1102.9012    73717.801   -17164.109    1261.6769   -18425.786    57.574434     238.3257 
   16600    93.784947    -1106.655    73742.224   -17145.968     1268.062    -18414.03      57.3827    239.53182 
   16650    92.976312   -957.11829    73758.309   -17162.174    1257.1285   -18419.302    57.371342    237.46653 
   16700    94.845885   -750.39588    73703.055   -17167.181    1282.4069   -18449.588    57.545284    242.24152 
   16750    99.181175   -958.13815     73655.48   -17134.914    1341.0241   -18475.938     57.66644    253.31408 
   16800    95.806984   -692.40502    73614.262   -17153.063    1295.4019   -18448.464    57.729361    244.69621 
   16850    95.539056   -748.01938    73681.012   -17158.883    1291.7792   -18450.662    58.025006    244.01191 
   16900    95.257547   -812.96521     73712.04    -17175.82    1287.9729   -18463.793    58.328694    243.29292 
   16950    95.985894   -781.70752    73729.594    -17131.58    1297.8209     -18429.4     58.65447    245.15316 
   17000    96.058591   -698.57199    73818.552   -17148.188    1298.8038   -18446.991    58.577992    245.33883 
   17050    93.257456   -947.04597    73887.559   -17151.436    1260.9298   -18412.366    58.754384    238.18458 
   17100    96.038333    -904.8077    73876.928   -17108.842    1298.5299   -18407.372    58.846928    245.28709 
   17150    96.262255   -763.30318    73878.428   -17121.034    1301.5576   -18422.592    59.083113      245.859 
   17200    97.796158   -840.70187    73915.625   -17155.103    1322.2974     -18477.4    59.338534    249.77667 
   17250    94.776624    -960.1698    73906.357   -17160.261    1281.4704   -18441.732    59.551795    242.06462 
   17300    95.234108   -714.22997    73940.282   -17164.555     1287.656   -18452.211    59.996065    243.23306 
   17350    91.866979   -821.55302    73902.071   -17188.036    1242.1292   -18430.165    60.432427    234.63323 
   17400    94.923368   -1150.3715    73907.797   -17174.204    1283.4545   -18457.659    60.801067    242.43941 
   17450    91.893574   -917.10201    73941.365   -17211.441    1242.4888    -18453.93    61.093779    234.70115 
   17500    90.440615   -982.97287    73975.059   -17205.442    1222.8434   -18428.286    61.238669    230.99022 
   17550    92.481872   -983.90351    73988.847   -17215.407    1250.4432   -18465.851    61.215444     236.2037 
   17600    93.190406   -1208.6009    73969.322   -17216.034    1260.0232   -18476.057    61.309061    238.01333 
   17650    91.087897   -1091.6939    73975.396   -17212.474    1231.5953   -18444.069    61.511376    232.64341 
   17700    89.531066     -1097.73    73969.245   -17201.432    1210.5455   -18411.977    61.531637    228.66718 
   17750    90.056657   -1209.7185    73985.076   -17235.653    1217.6519   -18453.305     61.56194    230.00957 
   17800    94.707397   -1101.3899    73994.302   -17244.344    1280.5344   -18524.879    61.817649    241.88781 
   17850     92.05671    -579.4747    74058.775   -17228.893    1244.6946   -18473.588    61.831452    235.11781 
   17900     93.13885   -947.14501    74100.339   -17241.955    1259.3261   -18501.281    62.229697    237.88166 
   17950    91.669378   -782.88236    74060.515   -17238.876    1239.4575   -18478.334    62.510737    234.12855 
   18000    92.815895   -710.10336    73998.165   -17232.643    1254.9595   -18487.602    62.805055    237.05681 
   18050    91.550507   -806.95925    73944.541   -17208.193    1237.8502   -18446.043    62.886767    233.82494 
   18100    92.947939    -869.0685    73946.339   -17186.602    1256.7448   -18443.347    62.784183    237.39406 
   18150    94.238852   -1108.9758    73926.175   -17183.717    1274.1992   -18457.916    62.990558    240.69112 
   18200    92.568413   -890.75756    73905.745   -17192.519    1251.6133   -18444.133    63.061096    236.42473 
   18250    92.652103   -707.76741    73874.804   -17208.814    1252.7449   -18461.559    63.479114    236.63848 
   18300    95.551389   -629.87285     73889.32   -17162.563     1291.946   -18454.509    63.749213    244.04341 
   18350     97.89228   -764.70668    73958.861    -17164.75    1323.5971   -18488.347    64.108445    250.02217 
   18400    97.231646   -987.93028    73982.434    -17180.59    1314.6647   -18495.255    64.422067    248.33488 
   18450    93.300791   -1023.6426     73942.92   -17194.933    1261.5157   -18456.449    64.336529    238.29526 
   18500    95.139063    -582.6993    73993.237   -17150.028    1286.3709   -18436.399    64.259679    242.99031 
   18550    92.772731   -1003.9058    74027.107   -17183.444    1254.3759    -18437.82    64.407242    236.94657 
   18600    92.983905   -785.70395    74011.352   -17208.889    1257.2311    -18466.12    64.725628    237.48592 
   18650    94.531668   -1144.2902    74020.536   -17188.098    1278.1584   -18466.257    65.072518    241.43899 
   18700     90.97789   -1020.4005    73932.035    -17192.38    1230.1079   -18422.488    65.206603    232.36245 
   18750    96.218874   -709.11765    73911.985   -17156.897     1300.971   -18457.868    65.363725    245.74821 
   18800    96.369896   -1451.4763    73835.248   -17148.657     1303.013    -18451.67    65.769624    246.13392 
   18850    89.962357   -1037.8558     73814.82   -17180.982    1216.3769   -18397.359    66.094616    229.76872 
   18900    93.413089    -592.1818    73805.331   -17163.126    1263.0341    -18426.16    66.363465    238.58208 
   18950    93.188945   -1414.4091    73768.804    -17141.12    1260.0035   -18401.123    66.258168     238.0096 
   19000    95.103517   -867.75911    73768.742   -17119.329    1285.8903    -18405.22    66.333019    242.89952 
   19050    93.702777   -1000.2732    73732.144    -17128.38     1266.951   -18395.331    66.747827    239.32196 
   19100    94.050354   -863.06315    73724.237   -17130.925    1271.6505   -18402.575    67.073351    240.20969 
   19150    94.848451   -800.05401    73671.379   -17125.116    1282.4416   -18407.558    67.457142    242.24807 
   19200     95.35777   -809.71911    73671.199   -17107.157    1289.3281   -18396.485    67.912369     243.5489 
   19250    95.374042   -883.48859    73679.744   -17093.187    1289.5481   -18382.735    68.159763    243.59046 
   19300    97.199693   -666.03186    73669.034   -17113.024    1314.2326   -18427.256    67.841336    248.25327 
   19350    94.115455   -928.75164    73670.548   -17101.046    1272.5308   -18373.576    68.056724    240.37596 
   19400    97.315813   -1148.0209    73669.302   -17109.571    1315.8027   -18425.373    68.365803    248.54985 
   19450    96.909645   -873.52564    73672.431   -17120.715    1310.3109   -18431.026    68.495018    247.51247 
   19500    94.613544   -817.17595    73628.745   -17150.843    1279.2654   -18430.108    68.436335    241.64811 
   19550    95.170656   -1102.6472    73604.018   -17171.976    1286.7981   -18458.774    68.546982      243.071 
   19600    95.238805   -638.79006    73629.701   -17162.617    1287.7195   -18450.336    68.648327    243.24506 
   19650    94.913823   -406.23439    73700.024   -17171.443    1283.3255   -18454.768    68.928465    242.41503 
   19700    97.522803   -779.11304    73762.417   -17166.618    1318.6014    -18485.22    69.012664    249.07851 
   19750    93.548324   -1029.8757    73811.872   -17202.241    1264.8626   -18467.103    69.459981    238.92748 
   19800    92.996059   -1350.5943    73825.136   -17190.037    1257.3955   -18447.433    69.813786    237.51696 
   19850    94.660482    -837.2115    73814.208   -17229.547    1279.9001   -18509.447    70.212636    241.76799 
   19900    89.991691   -884.13206    73885.376    -17213.38    1216.7736   -18430.154      70.3481    229.84364 
   19950    93.164624   -1157.4549     73868.16   -17198.436    1259.6746   -18458.111    70.847163    237.94748 
   20000     94.95865   -1120.1701    73841.032   -17187.363    1283.9316   -18471.295    71.212575    242.52953 
   20050     95.63063   -1078.2243    73861.167   -17209.179    1293.0174   -18502.196    71.194393     244.2458 
   20100    93.325803   -913.62341    73861.995   -17222.035    1261.8539   -18483.889    71.320487    238.35915 
   20150    92.696452   -1152.8143     73850.89   -17219.931    1253.3445   -18473.275    71.623902    236.75175 
   20200     91.61167   -873.59174    73903.361   -17226.238    1238.6772   -18464.916     71.83983    233.98116 
   20250     94.16071   -864.63596    73901.837   -17223.015    1273.1427   -18496.158     72.05396    240.49154 
   20300    93.739592    -1017.667    73872.178   -17225.317    1267.4487   -18492.766    72.125787    239.41599 
   20350     91.33907   -810.85349    73897.543   -17230.538    1234.9914    -18465.53    72.065899    233.28492 
   20400    93.124894   -1179.8802    73828.794    -17215.79    1259.1374   -18474.928    72.420925    237.84601 
   20450    96.015021   -970.98293    73798.871   -17218.854    1298.2147   -18517.068    72.203728    245.22755 
   20500    94.689921   -1056.3692    73814.876   -17197.286    1280.2981   -18477.584    71.949579    241.84318 
   20550    94.521839   -1040.1215    73770.353   -17203.933    1278.0255   -18481.958    72.244925    241.41389 
   20600    97.242341   -911.27944    73721.089   -17181.395    1314.8093   -18496.205     72.48831     248.3622 
   20650    92.589225   -925.76759    73694.658    -17182.99    1251.8947   -18434.885    72.823599    236.47789 
   20700    95.828924   -793.74381    73640.268    -17192.26    1295.6985   -18487.959     72.93309    244.75225 
   20750     94.43311   -506.61989    73653.389   -17152.385    1276.8258   -18429.211    73.343505    241.18727 
   20800    95.005454   -828.94123    73627.432   -17145.217    1284.5644   -18429.781    73.607208    242.64906 
   20850    95.367953   -903.01469    73634.711   -17151.776    1289.4657   -18441.242    74.357653    243.57491 
   20900    95.479695   -971.73583    73639.071   -17198.621    1290.9766   -18489.598    74.087373     243.8603 
   20950    93.166834   -762.92651    73671.504    -17186.92    1259.7045   -18446.624    74.197199    237.95313 
   21000    94.836762   -780.76224    73678.241   -17172.671    1282.2835   -18454.954    74.571142    242.21822 
   21050    97.990111   -404.92388    73723.316   -17127.174    1324.9198   -18452.094    74.539295    250.27204 
   21100    95.091866   -685.12351    73810.243     -17129.8    1285.7328   -18415.533    74.584528    242.86977 
   21150    95.087809   -895.82446    73843.689   -17167.496    1285.6779   -18453.174    74.823463     242.8594 
   21200    93.995176   -701.51991    73898.416   -17160.094    1270.9045   -18430.999    75.072558    240.06876 
   21250    95.425716   -773.90318    73919.437   -17137.231    1290.2468   -18427.478    75.259529    243.72244 
   21300    94.751886   -654.54235     73884.55   -17115.142    1281.1359   -18396.278     75.51306    242.00144 
   21350    94.391199    -781.6416    73896.648   -17107.051    1276.2591    -18383.31    75.445868    241.08022 
   21400    99.290838   -925.51574    73892.064   -17115.923    1342.5069    -18458.43    75.679216    253.59417 
   21450    98.318949    -805.9907    73907.301   -17129.789     1329.366   -18459.155     76.01044    251.11191 
   21500    96.985489   -984.70459    73909.315   -17086.776    1311.3364   -18398.113    76.074497    247.70618 
   21550     97.29695   -901.22903    73932.325   -17094.587    1315.5476   -18410.135    76.225802    248.50167 
   21600    96.944226   -1295.5246    73915.353   -17150.934    1310.7785   -18461.712    76.228953    247.60079 
   21650     95.66403   -1187.9071    73839.361    -17114.99     1293.469   -18408.459    76.170735     244.3311 
   21700    98.946472   -970.11465    73829.012   -17104.349    1337.8507   -18442.199    76.657311    252.71464 
   21750    94.017371   -845.91536    73810.123   -17120.764    1271.2046   -18391.969    76.611477    240.12545 
   21800    98.734379   -911.52606    73811.778   -17120.186     1334.983    -18455.17    76.790928    252.17294 
   21850    96.523426   -968.55038    73841.808   -17131.695    1305.0888   -18436.783    77.227921    246.52605 
   21900    95.404919     -982.099    73851.323    -17145.83    1289.9656   -18435.795    77.594711    243.66932 
   21950    96.860682   -1006.4603     73833.22   -17146.153    1309.6489   -18455.802    77.602186    247.38742 
   22000    94.312548   -982.13149    73844.377   -17163.957    1275.1957   -18439.153    77.786302    240.87935 
   22050     94.81914   -1279.8633     73820.04   -17157.026    1282.0453   -18439.071    78.074603    242.17321 
   22100    94.908621   -1172.4362    73798.118   -17167.162    1283.2551   -18450.417    78.182097    242.40175 
   22150    91.863403   -955.05695     73777.39   -17176.448    1242.0809   -18418.529    78.621948     234.6241 
   22200    96.931676   -904.35683    73824.605   -17198.907    1310.6088   -18509.516    78.703335    247.56874 
   22250    92.864592   -1153.3585    73851.993   -17255.416    1255.6179   -18511.034    78.909808    237.18119 
   22300    93.371292   -1044.6065    73864.199   -17228.059     1262.469   -18490.528    78.789651    238.47533 
   22350    92.100631   -1250.7087    73874.744   -17217.884    1245.2884   -18463.173    78.985999    235.22999 
   22400    92.303186   -1163.5795    73897.834   -17234.188    1248.0272   -18482.215    79.368874    235.74733 
   22450    91.889517   -677.75478     73933.88   -17260.006     1242.434    -18502.44    79.362765    234.69079 
   22500    92.853388   -734.65877    73985.418   -17234.496    1255.4664   -18489.963    79.425627    237.15257 
   22550     95.29427   -1191.2057    74043.979   -17199.033    1288.4695   -18487.503    79.667367    243.38672 
   22600    94.530209   -1024.1673    74068.485   -17201.777    1278.1386   -18479.915    79.743918    241.43526 
   22650    93.940795   -1210.8144    74136.406   -17191.564    1270.1692   -18461.733    79.866937    239.92987 
   22700    95.738177   -1109.9699    74136.575   -17204.712    1294.4715   -18499.183    80.273156    244.52048 
   22750    91.794851   -788.04198     74125.44   -17198.206     1241.154    -18439.36    80.681801    234.44901 
   22800    94.010607   -1098.1671    74089.586   -17183.465    1271.1131   -18454.578    80.694215    240.10817 
   22850    93.113421   -1152.8222    74066.027   -17221.486    1258.9823   -18480.469    80.733349    237.81671 
   22900     96.55344   -1228.0684    73981.571   -17202.253    1305.4947   -18507.748    80.582705    246.60271 
   22950    96.209044   -742.68197    73973.133    -17193.72    1300.8381   -18494.559    80.300689     245.7231 
   23000    95.184956   -1241.7952    73905.477   -17223.483    1286.9915   -18510.474    80.487798    243.10752 
   23050     96.28456    -1261.498    73834.175   -17198.486    1301.8591   -18500.345    80.755108    245.91597 
   23100     95.62945   -799.85489    73803.905   -17207.991    1293.0014   -18500.993    80.862751    244.24278 
   23150    95.805528   -923.69344    73802.161    -17218.04    1295.3822   -18513.422    80.981908     244.6925 
   23200    92.486008   -718.00161     73833.25   -17260.715    1250.4991   -18511.214    81.056146    236.21426 
   23250    94.746494   -790.18286    73872.001    -17268.97     1281.063   -18550.033    81.147257    241.98767 
   23300    92.834247   -876.35378    73876.779   -17288.524    1255.2076   -18543.732    81.234037    237.10369 
   23350     97.40066   -703.48617    73945.046   -17289.061    1316.9499   -18606.011    81.478963    248.76655 
   23400    91.598088   -1195.0123    74021.288   -17298.544    1238.4936   -18537.038     81.60052    233.94647 
   23450    94.067444   -842.27822    74040.586   -17302.558    1271.8816    -18574.44    81.808917    240.25334 
   23500    93.709058   -668.15465    74126.777   -17289.474    1267.0359    -18556.51    81.979725      239.338 
   23550    95.137854    -935.5374    74151.846   -17276.021    1286.3546   -18562.375    82.546663    242.98722 
   23600    95.138088   -1075.1273    74102.161   -17284.651    1286.3578   -18571.009    82.876938    242.98782 
   23650    90.226255   -997.27755    74044.375   -17320.179    1219.9451   -18540.125    83.031101    230.44273 
   23700    89.482758   -1367.8607     74023.75   -17297.481    1209.8923   -18507.373    82.871075     228.5438 
   23750    96.183289   -1053.9888    74003.891   -17267.884    1300.4899   -18568.374    82.782326    245.65732 
   23800    94.036557   -1267.5826    73961.295   -17235.697     1271.464   -18507.161    82.411683    240.17445 
   23850     93.96384   -875.27586    73863.532   -17235.777    1270.4808   -18506.258    82.762608    239.98873 
   23900    93.721135   -818.97993    73800.232   -17259.179    1267.1992   -18526.378    82.813184    239.36884 
   23950    96.469704   -774.50806    73826.814   -17265.046    1304.3625   -18569.409    83.282017    246.38884 
   24000    92.727362   -1071.4958    73832.592   -17274.983    1253.7624   -18528.745    83.132872     236.8307 
   24050    95.915824   -1122.3231    73890.045   -17259.927    1296.8735     -18556.8     83.23229     244.9742 
   24100    92.681497   -952.80216    73886.801   -17258.815    1253.1423   -18511.957    83.516844    236.71355 
   24150    90.663352   -717.98712    73903.204   -17252.723     1225.855   -18478.578    83.527471     231.5591 
   24200    92.291614   -989.16943    73898.012    -17269.41    1247.8707    -18517.28    83.569431    235.71777 
   24250    95.592961   -1140.7974    73853.101   -17245.933    1292.5081   -18538.441    84.095143    244.14959 
   24300     92.59935   -655.17079    73827.448    -17269.44    1252.0316   -18521.471     84.08135    236.50374 
   24350    91.410602   -867.48457    73872.159   -17285.921    1235.9586   -18521.879    84.512257    233.46762 
   24400    93.180408   -705.18914    73937.178   -17249.062     1259.888    -18508.95    84.370144     237.9878 
   24450    94.012967   -793.03852    73996.074    -17220.62     1271.145   -18491.765    84.725868     240.1142 
   24500    93.638999   -868.60322    74016.757   -17222.986    1266.0886   -18489.075    84.923371    239.15907 
   24550    92.356667   -574.44826    74063.106   -17208.472    1248.7503   -18457.222     84.87061    235.88392 
   24600    94.855323   -784.54032     74117.28   -17200.333    1282.5345   -18482.867      84.8955    242.26562 
   24650    94.230307   -1052.6554      74127.4   -17203.482    1274.0837   -18477.565     84.57805     240.6693 
   24700    94.620554   -661.68476    74144.147   -17180.654    1279.3602   -18460.014    84.781695    241.66601 
   24750    93.112121   -751.80226    74183.417   -17201.524    1258.9647   -18460.489    85.254812    237.81339 
   24800    95.640695   -954.46881    74196.538   -17189.858    1293.1535   -18483.011    85.335169     244.2715 
   24850    94.219149   -947.34246    74219.123    -17175.06    1273.9328   -18448.992    85.225302     240.6408 
   24900    94.983435   -1087.0595    74267.654   -17180.621    1284.2667   -18464.887    85.433356    242.59283 
   24950    95.775638   -958.53651    74281.971   -17188.811     1294.978   -18483.789     85.14933    244.61616 
   25000    95.703364   -1056.0173    74234.321   -17206.557    1294.0008   -18500.557     84.91264    244.43156 
   25050    96.991909   -768.98344    74255.757   -17185.863    1311.4232   -18497.286    85.039611    247.72258 
   25100    96.310622   -935.21651    74255.434   -17205.344    1302.2115   -18507.555    85.235034    245.98253 
   25150    92.905761   -914.86512    74272.017   -17204.556    1256.1746   -18460.731    85.535549    237.28633 
   25200    93.535401   -1307.3441    74241.173   -17225.938    1264.6879   -18490.626    85.758661    238.89447 
   25250    91.683246   -449.56724    74168.932   -17272.203     1239.645   -18511.848    86.069634    234.16397 
   25300    91.592687   -981.15596    74186.177   -17269.782    1238.4205   -18508.202    86.288018    233.93267 
   25350    90.571886   -1032.9643     74183.04   -17259.831    1224.6183   -18484.449    86.779615    231.32549 
   25400     95.31161   -850.76245    74142.105   -17251.456    1288.7039    -18540.16    86.658684      243.431 
   25450    91.260699   -1347.2103    74139.132   -17260.749    1233.9317    -18494.68    86.679764    233.08476 
   25500    91.750014   -1009.4716    74102.209   -17258.807    1240.5477   -18499.355    86.553987    234.33449 
   25550    93.550185   -944.09322    74136.088   -17250.506    1264.8878   -18515.394     86.79388    238.93223 
   25600    93.565196    -1299.874    74128.947   -17236.485    1265.0907   -18501.576    86.961446    238.97057 
   25650    94.814718    -614.6932     74161.39   -17237.959    1281.9855   -18519.944    87.258907    242.16191 
   25700    89.937555   -794.14371    74151.214    -17251.83    1216.0416   -18467.872    87.729389    229.70538 
   25750     95.37888   -991.63895    74244.424   -17235.318    1289.6135   -18524.931    87.949208    243.60281 
   25800    93.457644   -812.87711    74298.228   -17237.971    1263.6365   -18501.608    88.293073    238.69587 
   25850    96.826001   -893.92814    74269.628   -17222.113    1309.1799   -18531.293    88.437796    247.29884 
   25900    93.507208   -786.13347    74302.827   -17209.098    1264.3067   -18473.405    88.457669    238.82246 
   25950    96.431678    -661.1533    74238.352   -17206.048    1303.8483   -18509.896    88.277072    246.29172 
   26000    94.173086   -1171.0182    74245.395   -17235.409      1273.31   -18508.719    88.465749    240.52315 
   26050    92.438215   -1279.9764    74203.641   -17253.465    1249.8529   -18503.318    88.311134     236.0922 
   26100    93.579147   -807.44246    74144.836   -17254.388    1265.2794   -18519.668    88.417231     239.0062 
   26150    92.133914   -825.84573    74149.362   -17229.184    1245.7384   -18474.923    88.540743      235.315 
   26200    91.868479   -977.82512    74160.116    -17216.44    1242.1495    -18458.59    88.838418    234.63706 
   26250    92.262329   -965.80812    74173.797   -17224.102    1247.4747   -18471.577    89.003981    235.64297 
   26300    93.265578   -1158.0978    74136.112    -17273.14    1261.0396   -18534.179    88.983506    238.20533 
   26350     91.35091   -910.58415    74161.435   -17260.038    1235.1515    -18495.19    89.315572    233.31516 
   26400    94.529746   -1055.7056    74202.414   -17243.418    1278.1324    -18521.55    89.494366    241.43408 
   26450    91.795103   -1207.1394     74145.41   -17243.725    1241.1574   -18484.882    89.800927    234.44965 
   26500      96.3835   -664.06247    74112.424   -17227.134    1303.1969   -18530.331    89.359954    246.16867 
   26550    95.186222   -1054.7065    74115.104   -17240.538    1287.0086   -18527.547      89.7599    243.11076 
   26600    93.303005     -745.674    74180.093    -17269.02    1261.5457   -18530.566    89.726167    238.30092 
   26650    92.494955   -770.15231    74166.156   -17238.946    1250.6201   -18489.566    90.019643    236.23711 
   26700    93.535521   -488.97409    74236.896   -17260.601    1264.6895   -18525.291      90.1429    238.89478 
   26750    91.245829   -906.26271    74232.226    -17261.22    1233.7307    -18494.95    90.404448    233.04678 
   26800    97.148814   -944.66209    74244.739   -17219.314    1313.5447   -18532.859    90.414795    248.12332 
   26850    96.877691   -1144.7461    74304.062   -17246.164    1309.8788   -18556.043    90.409757    247.43086 
   26900    94.004496   -1072.4174    74326.074   -17281.989    1271.0305    -18553.02    90.578197    240.09256 
   26950    91.956301   -1149.7098    74289.493   -17307.696     1243.337   -18551.033    90.748622    234.86136 
   27000    91.928003   -684.33953    74291.506   -17305.437    1242.9543   -18548.391    90.719381    234.78909 
   27050    92.538473   -674.51217    74254.942   -17282.559    1251.2085   -18533.767    90.499971    236.34826 
   27100    95.607694   -902.41553    74293.793   -17263.895    1292.7073   -18556.602    90.607665    244.18722 
   27150    92.716009   -804.45981    74328.162    -17279.49    1253.6089   -18533.099    90.582588     236.8017 
   27200    94.898479   -971.50229    74383.315    -17294.63     1283.118   -18577.748    90.827922    242.37584 
   27250    93.441441   -842.77525    74405.953     -17296.4    1263.4175   -18559.817    90.861768    238.65449 
   27300    93.677324    -695.5585    74432.996   -17252.574    1266.6068   -18519.181    90.482844    239.25695 
   27350    95.639541   -814.87084    74472.421   -17289.988    1293.1379   -18583.126    90.458928    244.26856 
   27400    92.208965    -792.6159    74474.736   -17313.066    1246.7532    -18559.82    90.891193    235.50668 
   27450    90.501174   -876.03434    74450.091    -17308.16    1223.6622   -18531.823    90.909817    231.14489 
   27500    90.357465   -876.41122    74354.776   -17327.195    1221.7192   -18548.914    91.035214    230.77785 
   27550     93.89404   -896.43966    74356.011   -17301.732     1269.537   -18571.269    91.247459    239.81045 
   27600    95.050025   -672.79571    74444.619   -17286.576    1285.1671   -18571.743    91.620901     242.7629 
   27650    95.956174   -952.58167     74511.76   -17264.902     1297.419   -18562.321     92.05351    245.07725 
   27700    94.652117   -434.22324    74546.475   -17252.736     1279.787   -18532.523    92.126671    241.74662 
   27750     95.67719   -988.86883    74548.343   -17263.167    1293.6469   -18556.813    92.211726    244.36471 
   27800    97.479196    -896.9563    74523.109   -17244.692    1318.0118   -18562.704    92.239649    248.96713 
   27850      95.9292   -980.78331    74512.149   -17241.329    1297.0543   -18538.384     92.59422    245.00836 
   27900    94.613016   -897.16906    74457.835   -17249.001    1279.2583    -18528.26    92.525581    241.64676 
   27950    94.930812   -846.82235    74434.966   -17290.884    1283.5552    -18574.44    92.788481    242.45843 
   28000    95.257575    -974.7464    74448.627   -17281.208    1287.9733   -18569.181    92.985041    243.29299 
   28050     96.98498   -1014.5687    74431.174   -17305.868    1311.3295   -18617.197    93.388819    247.70488 
   28100    94.897591   -665.33301      74422.2   -17298.712     1283.106   -18581.818    93.325674    242.37358 
   28150     94.21389   -727.56237     74439.96   -17343.864    1273.8617   -18617.726    93.100828    240.62737 
   28200    94.580161   -702.17534    74454.026   -17337.328     1278.814   -18616.142    93.411853    241.56284 
   28250    95.982571   -973.87501    74485.167   -17332.302     1297.776   -18630.078    93.642606    245.14467 
   28300    92.475244   -911.44182     74473.46   -17357.417    1250.3535   -18607.771    93.602984    236.18677 
   28350    92.961995   -1220.1454    74408.857   -17371.138    1256.9349   -18628.073    93.897594    237.42996 
   28400    93.509931   -1075.1337    74368.063   -17354.616    1264.3435   -18618.959    94.497807    238.82942 
   28450    92.621483   -915.81417    74376.505   -17383.973    1252.3308   -18636.304     94.41832    236.56027 
   28500    96.582859   -809.54022    74351.837    -17361.31    1305.8924   -18667.202    94.236054    246.67784 
   28550    89.467977   -1289.8052     74319.58   -17404.928    1209.6924   -18614.621    94.118632    228.50605 
   28600    91.141461   -1170.2777      74321.8   -17443.315    1232.3195   -18675.634     94.29124    232.78022 
   28650    89.354902   -995.29876    74299.197   -17415.591    1208.1636   -18623.755    94.626103    228.21725 
   28700    90.184382   -862.16026    74301.878   -17376.383    1219.3789   -18595.762    94.721042    230.33579 
   28750    92.506538   -1033.3215    74300.731   -17390.814    1250.7767    -18641.59    94.742143     236.2667 
   28800    92.645695   -804.04554    74246.222   -17356.294    1252.6582   -18608.952    94.839478    236.62211 
   28850    91.455112   -652.47867    74261.119   -17371.744    1236.5604   -18608.305    94.897796     233.5813 
   28900     93.79789   -928.10332    74197.681    -17363.26     1268.237   -18631.497    94.782978    239.56488 
   28950    92.010483   -694.86432    74227.429   -17372.076    1244.0695   -18616.145    94.661941    234.99975 
   29000    90.308487   -714.87437    74208.578   -17385.767    1221.0569   -18606.824    94.768031    230.65276 
   29050    89.545196   -1057.9935     74185.14   -17388.297    1210.7365   -18599.034    94.699963    228.70327 
   29100    93.218688   -749.22499    74171.523   -17372.427    1260.4056   -18632.832    95.168635    238.08557 
   29150    92.398706   -740.06462     74132.32   -17361.092    1249.3187    -18610.41    95.334142    235.99129 
   29200    92.791838   -723.53633    74132.606   -17323.837    1254.6342   -18578.471    95.020892    236.99537 
   29250    92.625266   -510.46838    74097.835   -17298.359     1252.382   -18550.741    95.147998    236.56994 
   29300    93.450711   -1366.7713    74070.098   -17339.666    1263.5428   -18603.209    95.732036    238.67817 
   29350    93.081087   -551.84509    74040.878   -17319.986    1258.5451   -18578.531    96.134828    237.73413 
   29400     94.46167   -823.49154    74056.733    -17301.22    1277.2119   -18578.431    96.189161    241.26021 
   29450    93.678335   -801.33416    74039.302   -17305.542    1266.6205   -18572.163    96.309815    239.25953 
   29500    92.104582   -809.98181    74031.834    -17302.58    1245.3418   -18547.922    96.376113    235.24008 
   29550    95.151788   -807.87564    74035.409   -17256.914     1286.543   -18543.457    96.203233    243.02281 
   29600    93.867811    -653.2957    74016.312   -17239.203    1269.1824   -18508.385     96.34128    239.74346 
   29650    94.449364   -687.45079    74009.192   -17224.456    1277.0455   -18501.502    96.442339    241.22878 
   29700    93.976153    -695.1345    74031.859   -17216.695    1270.6473   -18487.342    96.707888    240.02017 
   29750    94.957896   -768.51168    74023.305   -17260.477    1283.9214   -18544.399     96.81775     242.5276 
   29800    93.325567   -647.80272    74070.478   -17249.373    1261.8507   -18511.224    96.963497    238.35854 
   29850    97.376039   -987.91897    74011.909   -17248.086     1316.617   -18564.703    97.009359    248.70367 
   29900    92.645781   -741.28801    73970.147   -17241.649    1252.6594   -18494.308    96.769487    236.62233 
   29950    92.100893   -691.74044    73941.668   -17284.088     1245.292    -18529.38    96.508949    235.23066 
   30000    92.327608   -784.16606    73886.248   -17288.885    1248.3574   -18537.242     96.86872     235.8097 
   30050    94.579039   -837.58666    73879.223    -17289.67    1278.7989   -18568.469    96.574302    241.55998 
   30100     94.39538   -529.48175    73860.195   -17254.809    1276.3156   -18531.125    96.461527     241.0909 
   30150    92.606475   -837.24275    73872.624   -17259.815    1252.1279   -18511.943    96.841299    236.52194 
   30200    91.938679   -705.48753    73920.343   -17277.792    1243.0987   -18520.891    96.974689    234.81636 
   30250    92.335183   -679.86801    73943.447    -17303.71    1248.4598    -18552.17      97.5139    235.82905 
   30300    90.198143    -787.8694    73998.125   -17322.652     1219.565   -18542.217    97.655381    230.37093 
   30350    92.809012   -657.36984    73991.331   -17329.331    1254.8664   -18584.198    97.906071    237.03923 
   30400    91.732676   -1036.2047    74004.051   -17334.156    1240.3133   -18574.469    98.067895    234.29021 
   30450    91.166445   -697.14865    74005.983   -17400.272    1232.6573   -18632.929    97.821682    232.84403 
   30500    90.469455   -1053.4191    74004.326   -17344.526    1223.2334   -18567.759     98.15121    231.06388 
   30550    93.346052   -735.71364    73988.304   -17325.394    1262.1277   -18587.522    98.007514    238.41086 
   30600    94.622183   -730.19533    73999.696   -17299.125    1279.3822   -18578.508    98.407732    241.67017 
   30650    93.852858   -684.78521     74093.97   -17317.118    1268.9802   -18586.098    98.550716    239.70527 
   30700    90.847351   -973.81237    74131.045   -17319.647    1228.3429    -18547.99    98.644337    232.02905 
   30750    93.138612   -1067.9002    74130.691    -17309.91    1259.3229   -18569.233    98.785267    237.88105 
   30800    93.429038   -974.45918     74102.28   -17313.118    1263.2498   -18576.368    98.767239    238.62281 
   30850    91.237387   -1284.2962    74121.395   -17329.959    1233.6166   -18563.576    98.989524    233.02522 
   30900    95.753243   -1006.0867    74132.591    -17314.26    1294.6752   -18608.935    98.983808    244.55896 
   30950    94.802508   -874.56663    74148.843   -17326.717    1281.8204   -18608.537    99.070112    242.13073 
   31000      93.4616   -999.48923    74133.602   -17328.506      1263.69   -18592.196    99.009519    238.70598 
   31050    94.635747   -1135.1376    74134.576   -17306.405    1279.5656   -18585.971    98.976775    241.70481 
   31100    95.562191   -740.28542    74117.866   -17303.234     1292.092   -18595.326    98.966508      244.071 
   31150    96.434271   -880.22289    74139.468   -17297.252    1303.8834   -18601.136    98.805574    246.29834 
   31200     93.74728   -1021.4911    74146.986   -17302.303    1267.5527   -18569.856    98.943863    239.43562 
   31250    92.690284   -884.48517    74129.138   -17298.876    1253.2611   -18552.137    99.059222      236.736 
   31300    96.113572   -1033.7745    74074.626     -17290.9    1299.5472   -18590.447    99.270167    245.47926 
   31350    94.936192   -809.15889    74061.915   -17308.575    1283.6279   -18592.203    99.402782    242.47217 
   31400    96.916471   -1075.9368    74132.474   -17279.037    1310.4032    -18589.44    99.633792    247.52991 
   31450    92.474574     -1143.92    74130.916   -17285.287    1250.3445   -18535.632    99.939473    236.18506 
   31500    93.091672   -826.65423    74144.047   -17272.972    1258.6883    -18531.66     100.0877    237.76116 
   31550    94.015763   -604.49874    74142.404   -17261.225    1271.1828   -18532.407    100.30955    240.12134 
   31600     94.95467   -1028.3424    74149.001   -17231.144    1283.8778   -18515.022    100.36117    242.51936 
   31650    93.783698   -746.35113    74116.581   -17266.166    1268.0451   -18534.211    100.23663    239.52863 
   31700    94.030485    -1180.225    74075.437   -17261.958    1271.3819    -18533.34    100.31782    240.15894 
   31750    91.687294   -840.71154    74099.193   -17304.682    1239.6997   -18544.382    99.857027     234.1743 
   31800    91.778603   -1105.5657     74073.41   -17328.242    1240.9343   -18569.176    99.943842    234.40751 
   31850     94.56834   -845.88865    74090.898   -17326.874    1278.6542   -18605.529    100.35812    241.53265 
   31900     92.05761   -1014.2458    74063.397   -17321.789    1244.7067   -18566.496    100.70231    235.12011 
   31950    94.043233   -1440.7048    74029.938   -17310.741    1271.5543   -18582.296    100.86774     240.1915 
   32000    94.646434   -729.62152    73970.936   -17285.001    1279.7101   -18564.711    100.70621    241.73211 
   32050     95.22756   -762.69459    73980.332   -17238.144    1287.5675   -18525.711    100.85123    243.21634 
   32100    93.908255   -979.10667    73959.721   -17271.688    1269.7292   -18541.417    101.02272    239.84676 
   32150    94.577705   -926.32089    73900.092   -17300.405    1278.7808   -18579.186    100.66218    241.55657 
   32200    94.804344   -897.58468    73897.287   -17291.985    1281.8452    -18573.83    100.73164    242.13542 
   32250     92.93647   -901.92975    73943.099   -17316.231    1256.5898    -18572.82    100.99802    237.36477 
   32300    91.470732    -459.4776        73981   -17287.133    1236.7716   -18523.904    100.97644    233.62119 
   32350    93.076201   -693.68779    74051.843   -17293.157    1258.4791   -18551.636    100.68044    237.72165 
   32400    96.353977   -1111.3456     74018.87    -17274.52    1302.7977   -18577.318    100.56092    246.09327 
   32450    94.820052   -923.17568    74029.813   -17246.562    1282.0576    -18528.62    100.42956    242.17554 
   32500     94.65866   -1216.2084    74053.914   -17219.258    1279.8754   -18499.133    100.84847    241.76333 
   32550    95.333237   -917.21513     74024.53   -17207.481    1288.9964   -18496.477      100.968    243.48624 
   32600    94.340849   -860.63609      74008.5   -17214.937    1275.5783   -18490.515    100.97167    240.95163 
   32650    91.721382   -632.53877    74072.395   -17263.205    1240.1606   -18503.365     101.2421    234.26137 
   32700    92.646661   -788.85541    74063.889   -17312.892    1252.6713   -18565.563     101.5487    236.62458 
   32750    91.607389   -1045.7777    74023.458   -17316.839    1238.6193   -18555.459    101.68757    233.97022 
   32800    91.995886   -768.93593     74040.73   -17308.211    1243.8722   -18552.083    101.50072    234.96246 
   32850    92.988125   -1061.5425    74072.271   -17301.143    1257.2882   -18558.431    101.94736     237.4967 
   32900    93.181198   -630.69173    74077.544   -17302.593    1259.8987   -18562.492    101.68787    237.98982 
   32950    92.719295   -981.45377     74072.63   -17284.602    1253.6534   -18538.255     102.0287    236.81009 
   33000    93.652531   -849.60418    74080.295   -17280.566    1266.2716   -18546.838    102.42448    239.19363 
   33050    93.822448   -875.80406    74087.846   -17252.698     1268.569   -18521.267     102.5088     239.6276 
   33100     95.52704   -965.11619    74088.716   -17258.702    1291.6167   -18550.319    102.59603    243.98122 
   33150    94.094648   -888.14085    74075.826   -17253.762    1272.2494   -18526.011    102.63199    240.32282 
   33200    92.796829   -910.56259    74052.976   -17257.585    1254.7017   -18512.286    102.91876    237.00812 
   33250     96.21126   -973.41347    74034.287   -17213.685    1300.8681   -18514.553    102.84213    245.72876 
   33300    95.625269   -599.50538     74050.75   -17239.063    1292.9449   -18532.008    102.79531    244.23211 
   33350    97.260355   -1081.4102    74046.742   -17241.664    1315.0528   -18556.717    103.11285     248.4082 
   33400      94.8345   -738.80879    73982.041   -17253.835    1282.2529   -18536.088     103.0064    242.21244 
   33450    91.919708   -1001.4895    73956.314   -17265.165    1242.8422   -18508.007    102.93258     234.7679 
   33500    91.775974   -684.65063    73929.856   -17286.804    1240.8988   -18527.703    102.74809     234.4008 
   33550    91.688127   -748.01083    73892.638   -17341.248     1239.711   -18580.959    102.77029    234.17643 
   33600    92.417451   -869.94988    73917.479   -17345.701    1249.5721   -18595.273    102.58839    236.03917 
   33650    91.057554    -846.6534    73940.741   -17306.261     1231.185   -18537.446    102.63085    232.56591 
   33700    94.461497   -827.81938    73930.553   -17276.038    1277.2096   -18553.247    102.80529    241.25977 
   33750     97.18681   -763.43187    73975.956   -17252.289    1314.0584   -18566.348    102.91966    248.22037 
   33800    93.063774   -750.61904    73990.471   -17285.173     1258.311   -18543.484    103.03611    237.68991 
   33850    92.894939   -972.03912    74011.065   -17286.092    1256.0282    -18542.12    102.90531    237.25869 
   33900    96.078241   -655.39432    74099.888   -17287.583    1299.0695   -18586.653    103.28612    245.38902 
   33950    92.954014   -878.58666    74107.888   -17257.196     1256.827   -18514.023    103.11908    237.40958 
[...]
   92000     95.76352   -1194.8474    74441.871   -17250.357    1294.8142   -18545.172    251.49703    244.58521 
   92050    93.503419   -1363.6937    74371.337   -17253.022    1264.2555   -18517.277    251.13588    238.81279 
   92100    96.062653   -888.62032    74385.073   -17248.616    1298.8587   -18547.474     251.2807    245.34921 
   92150    95.140742   -941.68129    74415.548   -17243.191    1286.3936   -18529.585    251.49274     242.9946 
   92200    97.274751   -615.47613    74463.393   -17222.637    1315.2475   -18537.884    251.33434    248.44497 
   92250    94.753895   -1174.2104    74485.781   -17245.979    1281.1631   -18527.142    251.37505    242.00657 
   92300    92.376918   -1398.9216    74369.912   -17300.918    1249.0241   -18549.942     251.6109    235.93564 
   92350    93.698017   -898.16992    74340.718   -17286.474    1266.8866    -18553.36    252.08865     239.3098 
   92400    93.979855   -946.95057     74373.71   -17270.689    1270.6973   -18541.386    251.30556    240.02963 
   92450    93.890682   -1067.6892    74335.701   -17279.923    1269.4916   -18549.415    251.41037    239.80188 
   92500    90.306032   -1172.8797    74301.175   -17286.327    1221.0237    -18507.35     251.9475    230.64649 
   92550    91.947709   -926.77896    74306.417   -17313.877    1243.2208   -18557.098    251.99198    234.83942 
   92600    94.857734   -842.03857    74278.123   -17297.067    1282.5671   -18579.634     252.0522    242.27178 
   92650    94.182773   -986.59432    74275.755   -17279.349     1273.441    -18552.79    251.96547    240.54789 
   92700    90.833545   -851.23159    74278.846   -17309.331    1228.1562   -18537.487    252.15153    231.99378 
   92750    93.461971   -892.96254    74271.928   -17323.693     1263.695   -18587.389     252.5062    238.70693 
   92800     92.21484   -574.38196    74329.935   -17285.177    1246.8326   -18532.009    252.97676    235.52169 
   92850    94.978996   -959.90204    74384.688   -17263.798    1284.2067   -18548.005    253.92661    242.58149 
   92900     91.42863   -1254.8008    74349.439   -17268.728    1236.2023   -18504.931    253.87035    233.51366 
   92950    96.450926   -852.55341    74298.052   -17265.284    1304.1086   -18569.393    253.62767    246.34088 
   93000    92.375886   -797.46183    74341.328   -17287.275    1249.0101   -18536.285    254.38843    235.93301 
   93050    90.472603    -1102.115    74325.252   -17297.408    1223.2759   -18520.684    253.76074    231.07192 
   93100    91.291532   -888.34756    74310.296   -17296.869    1234.3486   -18531.218    253.49576    233.16351 
   93150    94.640962   -1228.5947    74293.817   -17322.716    1279.6361   -18602.352    254.00908    241.71813 
   93200    91.499692   -1018.4039    74203.439   -17309.272    1237.1632   -18546.435    254.14369    233.69516 
   93250    89.335684    -1086.844    74173.558   -17320.854    1207.9037   -18528.758    254.37115    228.16817 
   93300    93.578558   -664.17762    74176.733   -17291.903    1265.2714   -18557.174    254.65426     239.0047 
   93350    94.401854   -1127.7108    74219.417   -17300.933    1276.4032   -18577.336    254.42203    241.10744 
   93400    94.120416   -868.74256    74193.502   -17293.344    1272.5979   -18565.942    254.81624    240.38863 
   93450    93.854091   -914.66437    74193.173   -17294.155    1268.9969   -18563.152     255.2968    239.70842 
   93500    96.299898   -511.25898    74236.295   -17236.558    1302.0665   -18538.625    255.33902    245.95514 
   93550     94.23498   -1016.9129     74314.67   -17239.414    1274.1469    -18513.56    255.83042    240.68123 
   93600    92.828975   -1235.1214    74315.127   -17257.271    1255.1363   -18512.407    255.75723    237.09022 
   93650    93.517318   -981.13776    74243.826   -17270.759    1264.4434   -18535.203    255.66499    238.84829 
   93700    93.579328   -822.42346    74222.508   -17298.905    1265.2818   -18564.187    255.29525    239.00666 
   93750    93.720153   -1346.4579    74174.386   -17288.247    1267.1859   -18555.433    255.92654    239.36634 
   93800    94.899656    -837.1011    74145.181   -17249.909    1283.1339   -18533.043     256.1483    242.37885 
   93850    94.707121   -1058.9871    74141.972   -17262.783    1280.5307   -18543.313    255.64755    241.88711 
   93900    94.855363   -963.13677    74133.841   -17284.963     1282.535   -18567.498    255.81149    242.26572 
   93950    96.704709   -795.89178    74140.387   -17271.726      1307.54   -18579.266    255.77983    246.98905 
   94000    90.197233   -751.47533    74167.768   -17300.354    1219.5527   -18519.907    256.47057    230.36861 
   94050    94.270751    -880.3257    74157.514   -17255.666    1274.6305   -18530.296    256.46369    240.77259 
   94100    93.959127   -953.48615    74148.813   -17223.593    1270.4171    -18494.01    257.01936    239.97669 
   94150     93.06905   -996.86427    74118.325   -17225.745    1258.3824   -18484.127    257.26831    237.70339 
   94200    94.185856   -644.57234    74061.602   -17253.576    1273.4827   -18527.058    257.20868    240.55577 
   94250    93.868323   -667.87814    74039.977   -17252.685    1269.1893   -18521.874    257.82529    239.74477 
   94300    92.979834   -715.32469    74056.841   -17270.877    1257.1761   -18528.053    257.28481    237.47552 
   94350    94.696346   -735.89311    74049.163   -17270.602     1280.385   -18550.987    257.34638    241.85959 
   94400    94.852308   -1265.5016    73988.888   -17277.273    1282.4937   -18559.767    258.37124    242.25792 
   94450    92.362364   -691.64815     73979.32   -17283.262    1248.8273   -18532.089    258.50621    235.89847 
   94500    91.794609   -913.01135    74003.895   -17275.484    1241.1507   -18516.635     259.2229    234.44839 
   94550    92.789113   -916.90538    73991.552   -17262.082    1254.5974   -18516.679    259.06003    236.98841 
   94600    95.236838   -699.62479    74077.416   -17285.612    1287.6929   -18573.305    259.16984    243.24003 
   94650    91.917493   -956.05931    74091.004   -17299.248    1242.8122    -18542.06    259.11737    234.76224 
   94700    93.285277   -763.19365    74117.521   -17284.819     1261.306   -18546.125    259.32951    238.25564 
   94750    91.810043   -865.93605    74065.763   -17284.024    1241.3594   -18525.383    258.44709    234.48781 
   94800     93.87651   -976.27734    73973.715   -17259.182       1269.3   -18528.482    258.46777    239.76568 
   94850    91.035158    -1018.304    73915.075   -17284.528    1230.8822    -18515.41     258.8863    232.50872 
   94900    94.559845   -1226.9927    73850.117   -17296.534    1278.5394   -18575.074    259.10365    241.51096 
   94950    92.992508   -1076.7171    73814.397   -17283.844    1257.3475   -18541.192    260.00845    237.50789 
   95000    94.728937   -1210.8883    73803.175   -17258.316    1280.8256   -18539.142    260.05172    241.94283 
   95050    91.851661   -1138.3799    73792.314   -17258.545    1241.9221   -18500.467    259.57512    234.59411 
   95100    93.176991   -1132.1457    73775.739   -17256.515    1259.8419   -18516.357     259.0207    237.97907 
   95150     93.45943   -851.68671    73748.363   -17262.821    1263.6607   -18526.482    259.43378    238.70044 
   95200    92.543901   -842.96872    73760.996   -17273.879    1251.2819    -18525.16    259.23883    236.36213 
   95250    94.824631   -1037.1453    73771.087   -17264.855    1282.1195   -18546.975    259.50383    242.18723 
   95300    93.133225   -611.02466    73765.289     -17226.9    1259.2501   -18486.151    259.69727    237.86729 
   95350     95.23177    -1322.581     73786.57   -17225.717    1287.6244   -18513.342    259.22417    243.22709 
   95400    91.738268   -860.08291    73813.323   -17258.349    1240.3889   -18498.738    259.51171    234.30449 
   95450    93.717862   -894.19421    73842.006   -17238.839    1267.1549   -18505.994    259.76932    239.36049 
   95500    93.972448   -904.57196    73810.488   -17242.039    1270.5972   -18512.637    259.69745    240.01071 
   95550    93.944016   -675.07821    73824.704    -17251.48    1270.2127   -18521.692    260.09037    239.93809 
   95600      94.7626   -732.91946    73877.358   -17257.303    1281.2808   -18538.584    260.20347     242.0288 
   95650    91.238177   -684.00481    73901.571    -17261.81    1233.6272   -18495.438    260.47491    233.02724 
   95700    96.977102   -990.10846    73921.305   -17231.087     1311.223    -18542.31    260.16037    247.68476 
   95750    93.117283   -980.52683    73932.479   -17238.379    1259.0345   -18497.413    260.44348    237.82657 
   95800    94.439533   -877.36642    73964.178   -17260.184    1276.9126   -18537.097     260.7209    241.20367 
   95850    92.330932   -646.81669    74049.934   -17265.537    1248.4023   -18513.939    260.83343    235.81819 
   95900    93.276837   -749.89462     74040.07   -17284.376    1261.1919   -18545.568    260.88144    238.23408 
   95950    92.482721   -600.98872    74056.229   -17307.388    1250.4547   -18557.842    261.01922    236.20587 
   96000    90.890898    -758.9417    74051.503   -17319.564    1228.9317   -18548.496    261.21324    232.14027 
   96050    94.283674   -703.71942    74072.236   -17287.677    1274.8053   -18562.483    261.57932     240.8056 
   96100    93.361486   -1002.0419    74102.099   -17317.208    1262.3364   -18579.544    261.14218    238.45028 
   96150    92.814352   -514.75819    74110.429   -17325.158    1254.9386   -18580.097      262.007    237.05287 
   96200    92.612111    -779.4696    74179.502   -17342.982    1252.2041   -18595.186    261.96585    236.53634 
   96250    91.856096   -868.22995    74194.259   -17374.375    1241.9821   -18616.357    262.06491    234.60544 
   96300    91.415823   -555.68294    74233.556   -17339.864    1236.0292   -18575.894    262.19927    233.48095 
   96350    89.875426   -540.96934     74268.07   -17340.516    1215.2015   -18555.718    262.25144     229.5467 
   96400    91.118302    -723.5721     74272.35   -17333.227    1232.0064   -18565.234    262.46686    232.72107 
   96450    94.183544   -883.92083    74272.881   -17328.047    1273.4514   -18601.498    262.84485    240.54986 
   96500     92.67603   -1007.9365    74235.918   -17346.376    1253.0684   -18599.444    263.14244    236.69959 
   96550    94.715964   -876.35072     74193.52   -17319.452    1280.6502   -18600.102    263.61148    241.90969 
   96600    89.577989   -1168.5006    74240.685   -17335.827    1211.1799   -18547.007    263.97549    228.78703 
   96650    89.035464   -787.78887    74207.492   -17343.645    1203.8445    -18547.49    264.19433    227.40139 
   96700    94.201852   -1101.7204    74263.899   -17354.012    1273.6989   -18627.711    263.95854    240.59662 
   96750    90.122693   -1108.8355    74277.044   -17373.372    1218.5448   -18591.917    264.01692    230.17823 
   96800    89.604762   -1162.1385    74270.732    -17361.28    1211.5419   -18572.822    264.33123    228.85541 
   96850    95.155463   -1035.5684    74260.725   -17318.301    1286.5927   -18604.893     264.0197     243.0322 
   96900    92.829259   -1000.8061    74257.563   -17273.685    1255.1402   -18528.825    263.73715    237.09095 
   96950     94.12713   -888.62317     74237.87   -17331.743    1272.6886   -18604.432    263.98487    240.40578 
   97000    95.281965   -939.73343    74304.249   -17300.837    1288.3031    -18589.14    264.48016    243.35529 
   97050    93.948068   -704.11439    74326.574   -17308.178    1270.2675   -18578.445    265.00774    239.94844 
   97100    93.280051   -982.36204    74335.423   -17365.103    1261.2353   -18626.338     265.5491    238.24229 
   97150    91.974891   -791.92984    74365.767   -17356.192    1243.5883   -18599.781    265.92726    234.90884 
   97200    93.734459    -941.8369    74320.113   -17356.856    1267.3793   -18624.235    266.02264    239.40287 
   97250    94.579881   -1229.2115    74302.895   -17356.743    1278.8103   -18635.553    265.92593    241.56213 
   97300    91.704174   -1157.9058    74252.143   -17386.958     1239.928   -18626.886    265.97486    234.21742 
   97350    92.198083   -892.60558    74241.403   -17373.007    1246.6061   -18619.613    266.28901    235.47889 
   97400    94.307166   -524.66404    74241.478   -17339.913    1275.1229   -18615.035    265.92794     240.8656 
   97450     94.96819   -685.47218    74289.458   -17333.265    1284.0606   -18617.326    266.82325    242.55389 
   97500    93.843847    -876.4541     74308.85   -17349.168    1268.8584   -18618.026    266.90415    239.68226 
   97550    91.798488   -1093.8196    74296.758   -17400.252    1241.2032   -18641.455    267.64966     234.4583 
   97600    93.498127   -939.15475    74321.638   -17388.431    1264.1839   -18652.615     267.7317    238.79927 
   97650     92.78323   -677.50045     74359.16   -17427.147    1254.5178   -18681.665    267.53965    236.97339 
   97700    91.180656   -943.47744    74354.098   -17421.031    1232.8495    -18653.88    267.80637    232.88032 
   97750    90.570499   -892.02656    74328.091   -17405.128    1224.5996   -18629.728     267.4161    231.32195 
   97800    90.239989   -855.47884     74360.56   -17382.872    1220.1308   -18603.003    268.17789    230.47781 
   97850     90.22245   -830.73942    74354.868   -17362.844    1219.8936   -18582.737    268.67932    230.43302 
   97900    89.264354   -570.88225    74365.493   -17355.423    1206.9393   -18562.363    268.37822    227.98599 
   97950    91.049141   -1205.3769    74345.532   -17351.384    1231.0713   -18582.455     268.6103    232.54443 
   98000    94.000115   -834.10631    74326.786   -17299.773    1270.9713   -18570.744    268.16299    240.08138 
   98050    93.049205   -641.38102    74347.828   -17305.248    1258.1141   -18563.362     268.1189     237.6527 
   98100    91.228888   -935.12383    74336.877   -17266.087    1233.5016   -18499.589    268.45484    233.00351 
   98150    96.916664   -611.68014     74396.49   -17240.013    1310.4058   -18550.419    268.16127     247.5304 
   98200    94.846655   -728.40296     74410.45   -17222.699    1282.4173   -18505.116    268.51345    242.24348 
   98250    92.831347   -878.32217    74456.981   -17252.186    1255.1684   -18507.354    268.50742    237.09628 
   98300    94.335379   -983.46086    74485.365   -17268.028    1275.5044   -18543.533    268.03629    240.93766 
   98350     96.51495   -977.50385    74519.632   -17249.942    1304.9742   -18554.916    268.76341     246.5044 
   98400     95.44197   -993.59027    74473.899   -17295.105    1290.4665   -18585.572    269.16839    243.76395 
   98450    90.893332   -1017.2651    74417.194   -17312.399    1228.9646   -18541.364    269.11094    232.14648 
   98500    93.807343   -806.44238    74460.129   -17273.479    1268.3648   -18541.844    269.49406    239.58903 
   98550    92.238344   -697.11828     74504.17   -17302.983    1247.1504   -18550.134    269.60616    235.58172 
   98600    90.941493   -843.28065    74553.514   -17326.365    1229.6158   -18555.981    269.44271    232.26949 
   98650    94.034709   -1162.7619    74577.638   -17302.867     1271.439   -18574.306    269.97273    240.16973 
   98700    93.526926    -904.4944    74580.394   -17266.188    1264.5733   -18530.762     271.1792    238.87283 
   98750    93.305629   -895.37624     74615.32   -17249.513    1261.5812   -18511.095    271.03132    238.30762 
   98800    94.111802   -781.45885    74623.556   -17232.407    1272.4814   -18504.888    270.46633    240.36663 
   98850    93.753599   -853.07694    74631.066   -17221.861    1267.6381   -18489.499     270.1646    239.45176 
   98900    93.867784    -1144.883    74632.569   -17272.875     1269.182   -18542.057    269.82487    239.74339 
   98950    96.549774    -774.6187    74638.985   -17251.584    1305.4451   -18557.029    270.32295    246.59334 
   99000    94.645399   -942.60086    74639.082   -17264.802    1279.6961   -18544.498    270.93778    241.72947 
   99050    93.081089   -935.29367    74600.451   -17281.423    1258.5452   -18539.968     270.8059    237.73413 
   99100     93.38176   -1032.9043    74619.214   -17301.325    1262.6105   -18563.936    270.93478    238.50206 
   99150    94.169777   -776.13091    74740.602   -17284.513    1273.2653   -18557.778    271.04824     240.5147 
   99200    93.444914   -784.55401    74753.802   -17318.624    1263.4644   -18582.089    270.53866    238.66336 
   99250    94.856827   -967.44088    74792.503    -17325.84    1282.5548   -18608.395    270.76497    242.26946 
   99300    95.746064   -978.71192    74824.428   -17289.775    1294.5782   -18584.353    270.70001    244.54062 
   99350    93.466273   -1006.9069    74807.153   -17319.978    1263.7532   -18583.731    270.65289    238.71791 
   99400    94.412726   -971.74348     74760.05   -17294.144    1276.5502   -18570.694    270.79602    241.13521 
   99450    95.225991   -1068.7868    74742.153   -17312.109    1287.5463   -18599.655    271.44454    243.21233 
   99500    95.573645   -1119.6884    74706.487   -17303.464    1292.2469   -18595.711     271.3847    244.10025 
   99550     92.60254   -1068.5361    74687.476   -17320.213    1252.0747   -18572.288    271.79174    236.51189 
   99600    88.464903   -1300.3979    74711.752   -17343.002    1196.1299   -18539.132    271.42466    225.94414 
   99650    91.775742   -1432.6276    74639.521   -17327.595    1240.8956   -18568.491    271.72546     234.4002 
   99700    93.722723   -1118.1342    74635.089   -17324.029    1267.2207    -18591.25    272.23157     239.3729 
   99750    91.851946   -1080.9206    74689.412   -17296.154     1241.926    -18538.08    272.18373    234.59483 
   99800    93.106272   -695.96065    74678.753   -17288.824    1258.8857    -18547.71    272.08155    237.79845 
   99850    94.603807   -802.06277    74719.767   -17285.632    1279.1338   -18564.766    272.25386    241.62324 
   99900    93.301966   -776.03104    74677.038   -17300.574    1261.5316   -18562.106    272.15579    238.29826 
   99950    92.908253    -964.5379    74718.465   -17277.851    1256.2082   -18534.059    272.29696     237.2927 
  100000    92.287047   -662.44926    74708.097    -17309.02    1247.8089   -18556.829     272.6544    235.70611 
Loop time of 61.631 on 60 procs for 100000 steps with 4537 atoms

Performance: 700.946 ns/day, 0.034 hours/ns, 1622.560 timesteps/s
100.0% CPU use with 60 MPI tasks x no OpenMP threads

MPI task timing breakdown:
Section |  min time  |  avg time  |  max time  |%varavg| %total
---------------------------------------------------------------
Pair    | 26.287     | 32.405     | 38.872     |  74.7 | 52.58
Neigh   | 0.69589    | 1.5269     | 3.4886     |  90.7 |  2.48
Comm    | 14.947     | 20.823     | 27.505     |  90.8 | 33.79
Output  | 0.11463    | 0.11771    | 0.12956    |   0.5 |  0.19
Modify  | 4.2466     | 6.021      | 7.5206     |  34.9 |  9.77
Other   |            | 0.7368     |            |       |  1.20

Nlocal:    75.6167 ave 150 max 35 min
Histogram: 35 5 0 0 0 0 0 0 5 15
Nghost:    784.4 ave 850 max 730 min
Histogram: 6 13 2 11 8 0 0 1 12 7
Neighs:    0 ave 0 max 0 min
Histogram: 60 0 0 0 0 0 0 0 0 0
FullNghs:  7603.07 ave 19261 max 1865 min
Histogram: 40 0 0 0 0 0 0 0 1 19

Total # of neighbors = 456184
Ave neighs/atom = 100.547
Neighbor list builds = 5646
Dangerous builds = 0

write_data		${DIR}/data.eq-${NAME}-${TEMP}
write_data		run_18/data.eq-${NAME}-${TEMP}
write_data		run_18/data.eq-het_freeze_18-${TEMP}
write_data		run_18/data.eq-het_freeze_18-240
undump          1

reset_timestep  0

unfix           2
unfix           3
unfix           4


################################################
#######         Run Simulation         #########
################################################

log				${DIR}/log.run_${NAME}
log				run_18/log.run_${NAME}
log				run_18/log.run_het_freeze_18
