LAMMPS data file via write_data, version 16 Mar 2018, timestep = 8000000

4990 atoms
2 atom types

0.0000000000000000e+00 4.9219999999999999e+01 xlo xhi
0.0000000000000000e+00 4.9019635930410494e+01 ylo yhi
1.1650785321480122e+00 3.8834921467853647e+01 zlo zhi

Masses

1 18.015
2 12.01

Atoms # atomic

2558 1 1.5070512120926902e+00 3.1826817465220145e+00 3.6995070349711554e+00 2 -4 0
4193 1 7.1007381663609728e+00 8.9638207475017069e+00 5.9494439618879849e+00 4 -1 1
2586 1 4.1824394870447961e+00 2.4641339758277718e+00 2.8336160927897138e+00 3 0 0
3797 1 1.0464632213698672e+00 1.2041645666915457e+01 9.9017671430532896e+00 2 2 1
2564 1 9.4375819732611905e+00 1.7235756033611740e+00 3.7110007794866751e+00 0 -2 0
2224 1 7.3125469888229366e+00 2.5612646878461023e+00 9.8033811758378526e+00 -5 -1 0
508 1 2.8103772646259859e+00 7.1790971326693818e+00 3.5706679822559391e+00 2 -1 1
165 1 7.8938753193170297e-01 5.7094174349188860e+00 2.5154499534762538e+00 5 -1 1
3877 1 6.0668877270302026e+00 4.6451769424452518e+00 3.4996988232381625e+00 5 1 0
2220 1 5.2525766877393947e+00 7.1347827700973570e+00 2.6860257744266836e+00 0 0 1
1265 1 8.5036893980297652e+00 4.3993559830867506e+00 2.7524124448718696e+00 1 -1 1
2907 1 1.0443873898144803e+01 6.1582554023764295e+00 3.5824082893448486e+00 2 2 1
939 1 3.3564260608334830e+00 1.1652508558722831e+01 3.3808165168081299e+00 -1 -2 1
2161 1 1.6103996878272215e+00 9.6797673481588653e+00 2.5976452811825208e+00 0 2 1
151 1 7.2380858548049192e+00 9.2154913929513214e+00 3.3471307586637380e+00 4 2 1
2109 1 6.0228851309085281e+00 1.1358277531398954e+01 2.5013272356384975e+00 3 1 0
2576 1 9.9204642457444852e+00 8.6772828295410083e+00 2.4329382697486404e+00 1 1 0
1883 1 1.1512268685348584e+01 1.0609936564268482e+01 3.4316098850672172e+00 -3 -3 1
1731 1 1.9260222530699243e+00 2.8538413331673960e+00 6.2625572609709845e+00 -3 0 1
1349 1 2.9788555515085711e+00 8.4679560149998145e-01 1.0162432811018457e+01 0 0 1
3368 1 3.2508493564307726e+00 8.3969246327782521e-01 7.5138117371625102e+00 0 -2 1
2582 1 8.7999787916119345e+00 1.0955360341146177e+01 1.0003020278556585e+01 -3 -1 0
880 1 7.3922326871375832e+00 2.0166636364135617e+00 6.9085176074356909e+00 -1 0 0
2545 1 5.6400779264187610e+00 1.7530362029584956e-01 6.1053879989305608e+00 0 1 1
2597 1 9.8128435543145720e+00 1.7773037924600745e+00 6.3381643713158766e+00 -4 3 -1
124 1 1.1718199370304232e+01 3.7146746384286935e+00 7.1031179566072185e+00 0 1 0
2716 1 2.8751797739705287e+00 7.0273144084448145e+00 6.3715259197230436e+00 -1 1 -1
1763 1 3.8177794794507753e+00 4.6602364922165922e+00 7.4524607006383112e+00 2 -4 0
3355 1 3.7987925075814628e+00 5.0632695552055669e+00 1.0304690629092448e+01 2 1 0
2955 1 8.6242719457479797e+00 1.0722977577254568e+01 7.1905933930878048e+00 -1 2 1
527 1 6.3334624985275845e+00 4.3707429645083504e+00 6.2524549968150662e+00 1 0 0
4634 1 8.2826575906435540e+00 6.6885818812660158e+00 9.9324558699124896e+00 -1 2 1
1737 1 1.1641311692453609e+01 4.1126893948106300e+00 9.9264647022787038e+00 4 0 1
1834 1 7.7189404238632742e+00 6.4788785307750958e+00 7.3393234384338664e+00 -2 3 1
3751 1 1.0411585765706874e+01 6.0378290276271036e+00 6.3791361810739042e+00 8 1 1
4298 1 1.1138316327911150e+01 1.0428498414142719e+01 6.2598628971926225e+00 -1 2 0
2189 1 3.3106506978251207e+00 1.1398162455200055e+01 6.1567024218080828e+00 1 -2 0
3370 1 1.2212941621071529e+01 8.1805401250551668e+00 1.0059678471605828e+01 3 -1 1
3023 1 4.4464516736345274e+00 9.0619484875725309e+00 6.8835145432474736e+00 2 5 1
2086 1 4.8361252903583321e+00 9.2166972716330484e+00 9.9647209557170573e+00 -1 0 1
944 1 9.4243369961422685e-01 1.1744401411583546e+01 7.1655249328108299e+00 2 2 0
3498 1 2.8237221894118114e-01 7.7189922552377670e+00 7.5234478067288411e+00 -1 1 0
535 1 1.5629049478899706e-01 7.6405513465519128e+00 1.0181737622260501e+01 3 2 1
120 1 1.2081246042453898e+01 1.4286046474790717e+00 2.9353939291617377e+00 -3 0 0
1292 1 3.1973039586291194e+00 8.5643434059318757e-01 1.4490114844503109e+01 1 1 2
4303 1 4.8569510741946189e+00 2.9930783791946092e+00 1.3857052161209031e+01 3 -3 0
4648 1 7.5977178262624356e+00 2.6507447332639562e+00 1.4064521281909416e+01 -1 3 1
2916 1 4.6267661722346665e+00 2.7094702471814220e+00 1.1176792192398974e+01 -3 -1 0
4605 1 6.2693328855390744e+00 1.1210082525813633e+01 1.0822266508256392e+01 1 1 0
4202 1 2.0557684713008606e+00 9.7827783572437035e+00 1.1066052563924400e+01 1 -1 0
2676 1 1.1342308787312068e+00 5.5718116224800216e+00 1.3932075869480856e+01 2 1 0
4563 1 3.7630085762478758e+00 5.2461175870876806e+00 1.4552773783706577e+01 2 3 0
4644 1 5.1496621961551992e-01 1.2327790743505582e+00 1.3682014990926262e+01 0 2 1
283 2 8.6134999999999984e+00 1.0656442593567498e+01 1.6844015901547078e+01 0 0 0
382 1 5.6457430563753332e+00 7.1868328487439372e+00 1.3726751152143363e+01 4 -3 1
3428 1 8.3584065383195245e+00 6.9202527697455816e+00 1.4456139120329876e+01 -4 -3 1
284 2 9.8440000000000012e+00 1.1366872099805333e+01 1.6844015901547078e+01 0 0 0
896 1 1.1750483861284883e+01 3.9879815940906536e+00 1.4346300313822319e+01 -2 -2 0
358 1 9.2678786991551938e+00 4.6212019368364112e+00 1.3516204897916200e+01 2 1 0
307 2 1.1074500000000002e+01 1.0656442593567498e+01 1.6844015901547078e+01 0 0 0
286 2 1.1074500000000002e+01 9.2355835810918343e+00 1.6844015901547078e+01 0 0 0
1356 1 1.8654127416233881e+00 9.8334292048400407e+00 1.3900645503091658e+01 2 2 0
308 2 1.2304999999999998e+01 1.1366872099805333e+01 1.6844015901547078e+01 0 0 0
3798 1 4.5883888516422218e+00 9.6228583159455106e+00 1.4427698726991274e+01 -1 2 1
2156 1 6.5635382289416366e+00 1.1384928092490197e+01 1.3611978935422878e+01 -1 -4 1
3713 1 9.0363953783259419e+00 1.0918435933904695e+01 1.4611282300292507e+01 3 3 0
477 1 1.0290629538505561e+01 8.6609334288917186e+00 1.3835479421825749e+01 -3 -3 1
2678 1 9.1665418406049426e+00 4.3974679038470290e+00 1.0851863827711899e+01 0 1 0
193 2 0.0000000000000000e+00 2.8417180249513345e+00 1.6844015901547078e+01 0 0 0
194 2 0.0000000000000000e+00 0.0000000000000000e+00 1.6844015901547078e+01 0 0 0
195 2 1.2305000000000001e+00 7.1042950623783474e-01 1.6844015901547078e+01 0 0 0
199 2 1.2305000000000001e+00 2.1312885187134998e+00 1.6844015901547078e+01 0 0 0
200 2 2.4610000000000003e+00 2.8417180249513345e+00 1.6844015901547078e+01 0 0 0
201 2 2.4610000000000003e+00 0.0000000000000000e+00 1.6844015901547078e+01 0 0 0
202 2 3.6915000000000004e+00 7.1042950623783474e-01 1.6844015901547078e+01 0 0 0
210 2 3.6914999999999996e+00 2.1312885187134998e+00 1.6844015901547078e+01 0 0 0
211 2 4.9220000000000006e+00 2.8417180249513332e+00 1.6844015901547078e+01 0 0 0
212 2 4.9220000000000006e+00 0.0000000000000000e+00 1.6844015901547078e+01 0 0 0
213 2 6.1524999999999999e+00 7.1042950623783407e-01 1.6844015901547078e+01 0 0 0
225 2 6.1524999999999999e+00 2.1312885187134989e+00 1.6844015901547078e+01 0 0 0
226 2 7.3829999999999991e+00 2.8417180249513345e+00 1.6844015901547078e+01 0 0 0
227 2 7.3829999999999991e+00 0.0000000000000000e+00 1.6844015901547078e+01 0 0 0
228 2 8.6134999999999984e+00 7.1042950623783407e-01 1.6844015901547078e+01 0 0 0
244 2 8.6134999999999984e+00 2.1312885187135002e+00 1.6844015901547078e+01 0 0 0
245 2 9.8440000000000012e+00 2.8417180249513332e+00 1.6844015901547078e+01 0 0 0
246 2 9.8440000000000012e+00 0.0000000000000000e+00 1.6844015901547078e+01 0 0 0
247 2 1.1074500000000002e+01 7.1042950623783330e-01 1.6844015901547078e+01 0 0 0
267 2 1.1074500000000002e+01 2.1312885187135002e+00 1.6844015901547078e+01 0 0 0
197 2 0.0000000000000000e+00 4.2625770374269996e+00 1.6844015901547078e+01 0 0 0
198 2 1.2305000000000001e+00 4.9730065436648339e+00 1.6844015901547078e+01 0 0 0
206 2 1.2305000000000001e+00 6.3938655561404980e+00 1.6844015901547078e+01 0 0 0
208 2 2.4610000000000003e+00 4.2625770374269996e+00 1.6844015901547078e+01 0 0 0
209 2 3.6914999999999996e+00 4.9730065436648339e+00 1.6844015901547078e+01 0 0 0
221 2 3.6914999999999996e+00 6.3938655561404980e+00 1.6844015901547078e+01 0 0 0
196 2 0.0000000000000000e+00 7.1042950623783341e+00 1.6844015901547078e+01 0 0 0
207 2 2.4610000000000003e+00 7.1042950623783341e+00 1.6844015901547078e+01 0 0 0
223 2 4.9220000000000006e+00 4.2625770374269978e+00 1.6844015901547078e+01 0 0 0
224 2 6.1524999999999999e+00 4.9730065436648339e+00 1.6844015901547078e+01 0 0 0
240 2 6.1524999999999999e+00 6.3938655561404980e+00 1.6844015901547078e+01 0 0 0
242 2 7.3829999999999991e+00 4.2625770374269996e+00 1.6844015901547078e+01 0 0 0
222 2 4.9220000000000006e+00 7.1042950623783341e+00 1.6844015901547078e+01 0 0 0
241 2 7.3830000000000009e+00 7.1042950623783341e+00 1.6844015901547078e+01 0 0 0
243 2 8.6135000000000002e+00 4.9730065436648339e+00 1.6844015901547078e+01 0 0 0
263 2 8.6135000000000002e+00 6.3938655561404980e+00 1.6844015901547078e+01 0 0 0
265 2 9.8440000000000012e+00 4.2625770374270004e+00 1.6844015901547078e+01 0 0 0
266 2 1.1074500000000002e+01 4.9730065436648339e+00 1.6844015901547078e+01 0 0 0
287 2 1.1074500000000002e+01 6.3938655561404980e+00 1.6844015901547078e+01 0 0 0
264 2 9.8440000000000012e+00 7.1042950623783341e+00 1.6844015901547078e+01 0 0 0
236 2 3.6914999999999996e+00 1.0656442593567499e+01 1.6844015901547078e+01 0 0 0
204 2 0.0000000000000000e+00 8.5251540748539991e+00 1.6844015901547078e+01 0 0 0
205 2 1.2305000000000001e+00 9.2355835810918343e+00 1.6844015901547078e+01 0 0 0
219 2 2.4610000000000003e+00 8.5251540748539991e+00 1.6844015901547078e+01 0 0 0
220 2 3.6915000000000004e+00 9.2355835810918343e+00 1.6844015901547078e+01 0 0 0
203 2 0.0000000000000000e+00 1.1366872099805333e+01 1.6844015901547078e+01 0 0 0
217 2 1.2305000000000001e+00 1.0656442593567498e+01 1.6844015901547078e+01 0 0 0
218 2 2.4610000000000003e+00 1.1366872099805333e+01 1.6844015901547078e+01 0 0 0
237 2 4.9220000000000006e+00 1.1366872099805333e+01 1.6844015901547078e+01 0 0 0
260 2 7.3829999999999991e+00 1.1366872099805333e+01 1.6844015901547078e+01 0 0 0
259 2 6.1524999999999999e+00 1.0656442593567499e+01 1.6844015901547078e+01 0 0 0
238 2 4.9220000000000006e+00 8.5251540748539991e+00 1.6844015901547078e+01 0 0 0
239 2 6.1524999999999999e+00 9.2355835810918343e+00 1.6844015901547078e+01 0 0 0
261 2 7.3830000000000009e+00 8.5251540748539991e+00 1.6844015901547078e+01 0 0 0
262 2 8.6134999999999984e+00 9.2355835810918343e+00 1.6844015901547078e+01 0 0 0
285 2 9.8440000000000012e+00 8.5251540748539956e+00 1.6844015901547078e+01 0 0 0
3366 1 5.6488584470360488e+00 6.8265613578290001e+00 1.1111054425172982e+01 -1 4 0
2049 1 9.8711617361032626e+00 8.7690622403919694e+00 1.0988001107228476e+01 0 0 1
4196 1 3.3219310888285358e-01 1.0145795638768420e+00 1.1006161915892573e+01 1 2 0
4286 1 1.3631066631747821e+00 5.4326794733288519e+00 1.1331687821508408e+01 2 3 1
4353 1 1.4797962101441944e-01 7.8750936715086564e+00 1.4389389134566127e+01 0 2 0
59 1 4.8599402593836150e-01 1.2111533534069805e+01 1.4629455968417606e+01 -1 -3 0
549 2 0.0000000000000000e+00 1.4208590124756650e+00 2.0029441922071111e+01 0 0 0
550 2 0.0000000000000000e+00 0.0000000000000000e+00 2.0029441922071111e+01 0 0 0
554 2 1.2305000000000001e+00 2.1312885187134998e+00 2.0029441922071111e+01 0 0 0
555 2 2.4610000000000003e+00 1.4208590124756650e+00 2.0029441922071111e+01 0 0 0
556 2 2.4610000000000003e+00 0.0000000000000000e+00 2.0029441922071111e+01 0 0 0
564 2 3.6914999999999996e+00 2.1312885187134998e+00 2.0029441922071111e+01 0 0 0
710 2 0.0000000000000000e+00 2.8417180249513345e+00 2.3214867942611697e+01 0 0 0
711 2 0.0000000000000000e+00 0.0000000000000000e+00 2.3214867942611697e+01 0 0 0
712 2 1.2305000000000001e+00 7.1042950623783474e-01 2.3214867942611697e+01 0 0 0
716 2 1.2305000000000001e+00 2.1312885187134998e+00 2.3214867942611697e+01 0 0 0
717 2 2.4610000000000003e+00 2.8417180249513345e+00 2.3214867942611697e+01 0 0 0
718 2 2.4610000000000003e+00 0.0000000000000000e+00 2.3214867942611697e+01 0 0 0
719 2 3.6915000000000004e+00 7.1042950623783474e-01 2.3214867942611697e+01 0 0 0
727 2 3.6914999999999996e+00 2.1312885187134998e+00 2.3214867942611697e+01 0 0 0
553 2 1.2305000000000001e+00 3.5521475311891644e+00 2.0029441922071111e+01 0 0 0
563 2 3.6914999999999996e+00 3.5521475311891644e+00 2.0029441922071111e+01 0 0 0
565 2 4.9220000000000006e+00 1.4208590124756650e+00 2.0029441922071111e+01 0 0 0
566 2 4.9220000000000006e+00 0.0000000000000000e+00 2.0029441922071111e+01 0 0 0
578 2 6.1524999999999999e+00 2.1312885187134989e+00 2.0029441922071111e+01 0 0 0
579 2 7.3829999999999991e+00 1.4208590124756659e+00 2.0029441922071111e+01 0 0 0
580 2 7.3829999999999991e+00 0.0000000000000000e+00 2.0029441922071111e+01 0 0 0
728 2 4.9220000000000006e+00 2.8417180249513332e+00 2.3214867942611697e+01 0 0 0
729 2 4.9220000000000006e+00 0.0000000000000000e+00 2.3214867942611697e+01 0 0 0
730 2 6.1524999999999999e+00 7.1042950623783407e-01 2.3214867942611697e+01 0 0 0
742 2 6.1524999999999999e+00 2.1312885187134989e+00 2.3214867942611697e+01 0 0 0
743 2 7.3829999999999991e+00 2.8417180249513345e+00 2.3214867942611697e+01 0 0 0
744 2 7.3829999999999991e+00 0.0000000000000000e+00 2.3214867942611697e+01 0 0 0
577 2 6.1524999999999999e+00 3.5521475311891644e+00 2.0029441922071111e+01 0 0 0
596 2 8.6134999999999984e+00 2.1312885187135002e+00 2.0029441922071111e+01 0 0 0
597 2 9.8440000000000012e+00 1.4208590124756659e+00 2.0029441922071111e+01 0 0 0
598 2 9.8440000000000012e+00 0.0000000000000000e+00 2.0029441922071111e+01 0 0 0
618 2 1.1074500000000002e+01 2.1312885187135002e+00 2.0029441922071111e+01 0 0 0
745 2 8.6134999999999984e+00 7.1042950623783407e-01 2.3214867942611697e+01 0 0 0
761 2 8.6134999999999984e+00 2.1312885187135002e+00 2.3214867942611697e+01 0 0 0
762 2 9.8440000000000012e+00 2.8417180249513332e+00 2.3214867942611697e+01 0 0 0
763 2 9.8440000000000012e+00 0.0000000000000000e+00 2.3214867942611697e+01 0 0 0
764 2 1.1074500000000002e+01 7.1042950623783330e-01 2.3214867942611697e+01 0 0 0
784 2 1.1074500000000002e+01 2.1312885187135002e+00 2.3214867942611697e+01 0 0 0
595 2 8.6134999999999984e+00 3.5521475311891657e+00 2.0029441922071111e+01 0 0 0
617 2 1.1074500000000002e+01 3.5521475311891644e+00 2.0029441922071111e+01 0 0 0
551 2 0.0000000000000000e+00 5.6834360499026637e+00 2.0029441922071111e+01 0 0 0
552 2 0.0000000000000000e+00 4.2625770374269996e+00 2.0029441922071111e+01 0 0 0
560 2 1.2305000000000001e+00 6.3938655561404980e+00 2.0029441922071111e+01 0 0 0
561 2 2.4610000000000003e+00 5.6834360499026637e+00 2.0029441922071111e+01 0 0 0
562 2 2.4610000000000003e+00 4.2625770374269996e+00 2.0029441922071111e+01 0 0 0
574 2 3.6914999999999996e+00 6.3938655561404980e+00 2.0029441922071111e+01 0 0 0
714 2 0.0000000000000000e+00 4.2625770374269996e+00 2.3214867942611697e+01 0 0 0
715 2 1.2305000000000001e+00 4.9730065436648339e+00 2.3214867942611697e+01 0 0 0
723 2 1.2305000000000001e+00 6.3938655561404980e+00 2.3214867942611697e+01 0 0 0
725 2 2.4610000000000003e+00 4.2625770374269996e+00 2.3214867942611697e+01 0 0 0
726 2 3.6914999999999996e+00 4.9730065436648339e+00 2.3214867942611697e+01 0 0 0
738 2 3.6914999999999996e+00 6.3938655561404980e+00 2.3214867942611697e+01 0 0 0
559 2 1.2305000000000001e+00 7.8147245686161639e+00 2.0029441922071111e+01 0 0 0
573 2 3.6914999999999996e+00 7.8147245686161639e+00 2.0029441922071111e+01 0 0 0
713 2 0.0000000000000000e+00 7.1042950623783341e+00 2.3214867942611697e+01 0 0 0
724 2 2.4610000000000003e+00 7.1042950623783341e+00 2.3214867942611697e+01 0 0 0
575 2 4.9220000000000006e+00 5.6834360499026637e+00 2.0029441922071111e+01 0 0 0
576 2 4.9220000000000006e+00 4.2625770374269978e+00 2.0029441922071111e+01 0 0 0
592 2 6.1524999999999999e+00 6.3938655561404980e+00 2.0029441922071111e+01 0 0 0
593 2 7.3829999999999991e+00 5.6834360499026637e+00 2.0029441922071111e+01 0 0 0
594 2 7.3829999999999991e+00 4.2625770374269996e+00 2.0029441922071111e+01 0 0 0
740 2 4.9220000000000006e+00 4.2625770374269978e+00 2.3214867942611697e+01 0 0 0
741 2 6.1524999999999999e+00 4.9730065436648339e+00 2.3214867942611697e+01 0 0 0
757 2 6.1524999999999999e+00 6.3938655561404980e+00 2.3214867942611697e+01 0 0 0
759 2 7.3829999999999991e+00 4.2625770374269996e+00 2.3214867942611697e+01 0 0 0
591 2 6.1524999999999999e+00 7.8147245686161639e+00 2.0029441922071111e+01 0 0 0
739 2 4.9220000000000006e+00 7.1042950623783341e+00 2.3214867942611697e+01 0 0 0
758 2 7.3830000000000009e+00 7.1042950623783341e+00 2.3214867942611697e+01 0 0 0
614 2 8.6135000000000002e+00 6.3938655561404980e+00 2.0029441922071111e+01 0 0 0
615 2 9.8440000000000012e+00 5.6834360499026637e+00 2.0029441922071111e+01 0 0 0
616 2 9.8440000000000012e+00 4.2625770374270004e+00 2.0029441922071111e+01 0 0 0
637 2 1.1074500000000002e+01 6.3938655561404980e+00 2.0029441922071111e+01 0 0 0
760 2 8.6135000000000002e+00 4.9730065436648339e+00 2.3214867942611697e+01 0 0 0
780 2 8.6135000000000002e+00 6.3938655561404980e+00 2.3214867942611697e+01 0 0 0
782 2 9.8440000000000012e+00 4.2625770374270004e+00 2.3214867942611697e+01 0 0 0
783 2 1.1074500000000002e+01 4.9730065436648339e+00 2.3214867942611697e+01 0 0 0
804 2 1.1074500000000002e+01 6.3938655561404980e+00 2.3214867942611697e+01 0 0 0
613 2 8.6135000000000002e+00 7.8147245686161639e+00 2.0029441922071111e+01 0 0 0
636 2 1.1074500000000002e+01 7.8147245686161639e+00 2.0029441922071111e+01 0 0 0
781 2 9.8440000000000012e+00 7.1042950623783341e+00 2.3214867942611697e+01 0 0 0
557 2 0.0000000000000000e+00 9.9460130873296642e+00 2.0029441922071111e+01 0 0 0
558 2 0.0000000000000000e+00 8.5251540748539991e+00 2.0029441922071111e+01 0 0 0
571 2 2.4610000000000003e+00 9.9460130873296642e+00 2.0029441922071111e+01 0 0 0
572 2 2.4610000000000003e+00 8.5251540748539991e+00 2.0029441922071111e+01 0 0 0
721 2 0.0000000000000000e+00 8.5251540748539991e+00 2.3214867942611697e+01 0 0 0
722 2 1.2305000000000001e+00 9.2355835810918343e+00 2.3214867942611697e+01 0 0 0
736 2 2.4610000000000003e+00 8.5251540748539991e+00 2.3214867942611697e+01 0 0 0
737 2 3.6915000000000004e+00 9.2355835810918343e+00 2.3214867942611697e+01 0 0 0
569 2 1.2305000000000001e+00 1.2077301606043163e+01 2.0029441922071111e+01 0 0 0
570 2 1.2305000000000001e+00 1.0656442593567498e+01 2.0029441922071111e+01 0 0 0
587 2 3.6914999999999996e+00 1.2077301606043163e+01 2.0029441922071111e+01 0 0 0
588 2 3.6914999999999996e+00 1.0656442593567499e+01 2.0029441922071111e+01 0 0 0
720 2 0.0000000000000000e+00 1.1366872099805333e+01 2.3214867942611697e+01 0 0 0
734 2 1.2305000000000001e+00 1.0656442593567498e+01 2.3214867942611697e+01 0 0 0
735 2 2.4610000000000003e+00 1.1366872099805333e+01 2.3214867942611697e+01 0 0 0
753 2 3.6914999999999996e+00 1.0656442593567499e+01 2.3214867942611697e+01 0 0 0
589 2 4.9220000000000006e+00 9.9460130873296642e+00 2.0029441922071111e+01 0 0 0
590 2 4.9220000000000006e+00 8.5251540748539991e+00 2.0029441922071111e+01 0 0 0
611 2 7.3830000000000009e+00 9.9460130873296642e+00 2.0029441922071111e+01 0 0 0
612 2 7.3830000000000009e+00 8.5251540748539991e+00 2.0029441922071111e+01 0 0 0
755 2 4.9220000000000006e+00 8.5251540748539991e+00 2.3214867942611697e+01 0 0 0
756 2 6.1524999999999999e+00 9.2355835810918343e+00 2.3214867942611697e+01 0 0 0
778 2 7.3830000000000009e+00 8.5251540748539991e+00 2.3214867942611697e+01 0 0 0
609 2 6.1524999999999999e+00 1.2077301606043163e+01 2.0029441922071111e+01 0 0 0
610 2 6.1524999999999999e+00 1.0656442593567499e+01 2.0029441922071111e+01 0 0 0
754 2 4.9220000000000006e+00 1.1366872099805333e+01 2.3214867942611697e+01 0 0 0
776 2 6.1524999999999999e+00 1.0656442593567499e+01 2.3214867942611697e+01 0 0 0
777 2 7.3829999999999991e+00 1.1366872099805333e+01 2.3214867942611697e+01 0 0 0
634 2 9.8440000000000012e+00 9.9460130873296642e+00 2.0029441922071111e+01 0 0 0
635 2 9.8440000000000012e+00 8.5251540748539956e+00 2.0029441922071111e+01 0 0 0
779 2 8.6134999999999984e+00 9.2355835810918343e+00 2.3214867942611697e+01 0 0 0
802 2 9.8440000000000012e+00 8.5251540748539956e+00 2.3214867942611697e+01 0 0 0
803 2 1.1074500000000002e+01 9.2355835810918343e+00 2.3214867942611697e+01 0 0 0
632 2 8.6135000000000002e+00 1.2077301606043163e+01 2.0029441922071111e+01 0 0 0
633 2 8.6134999999999984e+00 1.0656442593567498e+01 2.0029441922071111e+01 0 0 0
655 2 1.1074500000000002e+01 1.2077301606043163e+01 2.0029441922071111e+01 0 0 0
656 2 1.1074500000000002e+01 1.0656442593567498e+01 2.0029441922071111e+01 0 0 0
800 2 8.6134999999999984e+00 1.0656442593567498e+01 2.3214867942611697e+01 0 0 0
801 2 9.8440000000000012e+00 1.1366872099805333e+01 2.3214867942611697e+01 0 0 0
824 2 1.1074500000000002e+01 1.0656442593567498e+01 2.3214867942611697e+01 0 0 0
825 2 1.2304999999999998e+01 1.1366872099805333e+01 2.3214867942611697e+01 0 0 0
1843 1 2.4211245898352307e+00 7.4696765643050334e-01 2.6412806435804715e+01 1 2 -1
3759 1 4.1155763561067760e+00 9.3979236073450885e+00 2.6603723735059631e+01 0 2 -1
1773 1 6.1479918070777000e+00 1.1182367227158432e+01 2.5744379053807982e+01 -1 -1 0
3526 1 4.3827716653106785e+00 2.6177660098268203e+00 2.5676792012763105e+01 -2 2 0
3482 1 6.9519853907577263e+00 2.1039434860527435e+00 2.6675600355845663e+01 -3 -3 0
469 1 1.1945134242614175e+01 8.1202691383117145e+00 2.6577849697077209e+01 -4 -3 0
85 1 6.9957644581609690e-01 1.2013294582133348e+01 2.9038545699621842e+01 -3 1 0
3530 1 1.1289247444350810e+01 3.8610869123160256e+00 2.6400606728503480e+01 -1 0 -1
4687 1 4.0033176983494814e+00 9.4725642513546209e+00 2.9338672763001128e+01 3 -1 0
3418 1 3.2653804609359423e+00 4.9429410544855639e+00 2.6688136238349976e+01 4 1 -1
4247 1 7.2190830300654385e-01 5.2601336635055045e+00 2.5484562056236101e+01 1 0 0
2206 1 1.1383875901471052e+01 3.9316314531528600e+00 2.9138542228285214e+01 -1 0 -1
2997 1 1.2108038659317305e+01 8.3297180035763176e+00 2.9388599742195378e+01 1 -2 0
4332 1 4.8207535322851598e+00 6.7900050420265696e+00 2.5543981017599815e+01 3 2 -1
1342 1 7.5557371454578144e+00 6.5659345051595510e+00 2.6125427243127305e+01 -3 -3 1
2099 1 8.8684521755745394e+00 1.1147138700558015e+01 2.6534701510627627e+01 1 4 0
2180 1 8.6998576412147290e+00 3.9521458134932663e+00 2.5848979907720135e+01 2 -1 0
2905 1 9.4231230340172765e+00 8.3788836070117725e+00 2.5754348870185613e+01 1 -2 -1
4650 1 1.3589992718935602e+00 9.6544910310631433e+00 2.5575414624289852e+01 -1 1 0
2683 1 7.6582363443820851e+00 6.3784136665472504e+00 2.8963672694002920e+01 -1 2 -1
924 1 6.9256139630279172e+00 2.3282342966235654e+00 2.9414229833603418e+01 -1 0 -1
122 1 1.2174330601442504e+01 1.3983313652845162e+00 2.5652388247304067e+01 0 -1 0
2616 1 3.5576934135025617e-01 1.1995618417391615e+01 2.6090780439679218e+01 0 3 0
1371 1 8.7367552962132020e+00 1.1063593155826780e+01 2.9268218491026229e+01 -3 -2 0
1223 1 2.5284081298873300e+00 7.2722274992231561e-01 2.9272615622981412e+01 0 -2 0
1210 1 1.0769636390826065e-02 7.8417619388005830e+00 2.8960997617130303e+01 -1 -1 0
3831 1 3.2614699916757162e+00 4.7630975521545613e+00 2.9383858863166537e+01 3 -2 -1
4595 1 1.7643491909617914e+00 3.3129765222969736e+00 3.3974015708037626e+01 4 2 0
404 1 3.6007559294144729e+00 1.1308159488020918e+01 3.6890722352461154e+01 4 3 -1
2191 1 6.0573496504012780e-02 1.6580771277982373e+00 3.3039843914558830e+01 0 1 0
2987 1 4.3088112025581973e+00 2.4352726411497181e+00 3.0145481664848187e+01 2 5 0
2151 1 4.3115759338791264e+00 2.6651669193023020e+00 3.2868460328708878e+01 -2 2 0
1237 1 8.5314511639451194e+00 4.1593994495452886e+00 3.7783247896595313e+01 1 -2 0
3737 1 5.2748570980576899e+00 4.7950174479075014e-01 3.3929005156448440e+01 0 -2 -1
3854 1 1.7576741871089678e+00 9.3147133691777579e+00 3.7613264543048373e+01 1 3 -1
3779 1 9.8381864782635429e+00 8.4572255258593145e+00 3.7413787731411603e+01 0 4 0
3878 1 7.2354271255748177e+00 8.7653282617855659e+00 3.6423802099671647e+01 -1 -1 0
4606 1 6.6170057543469307e-01 5.5160080690054105e+00 3.3050743865193887e+01 5 2 -1
4555 1 8.6079682729684226e-01 5.4315948345530423e+00 3.0134918363072028e+01 1 -1 0
1379 1 5.2063286317005746e+00 7.0890327207809056e+00 3.2804544818701963e+01 4 1 0
1255 1 5.0501714017749642e+00 6.7892855390268574e+00 2.9919126732615862e+01 -1 -4 0
4299 1 1.1269040331355662e+01 1.0584384348146175e+01 3.6218764487449633e+01 0 -2 -1
2704 1 8.7390237558177510e+00 4.3023406254580951e+00 3.2973148726636040e+01 1 0 -1
17 1 8.7778066334577538e+00 4.0715616817409233e+00 3.0229531766892361e+01 0 -1 -1
1202 1 1.4421414493064835e+00 9.7733577114290355e+00 3.0272303049033425e+01 -2 0 0
2596 1 1.5353028967200313e+00 9.9761734905883603e+00 3.3027050399920121e+01 0 -1 -1
118 1 3.6923551524896490e+00 1.1561495293309155e+01 3.4065869428946002e+01 1 -3 -1
4583 1 7.1113728931640745e+00 8.8131139348275624e+00 3.3699863195958301e+01 -3 1 0
3774 1 6.1629463942672551e+00 1.1333885426682240e+01 3.3024598522975012e+01 4 4 -1
2553 1 5.9814098997409531e+00 1.1116555578798819e+01 3.0297271381367548e+01 -2 3 -1
4614 1 6.3313293588101720e+00 1.1172738574416712e+01 3.7341451428625874e+01 2 -2 0
2205 1 1.1381035542776660e+01 1.0232425967909116e+01 3.3566751600280256e+01 -2 0 -1
4345 1 9.2738870587457924e+00 8.3431743433292205e+00 2.9985714475948942e+01 1 1 0
489 1 9.6005565864958413e+00 8.3889379471829777e+00 3.2759756476689518e+01 -3 1 0
1040 1 1.7456356275091909e+00 3.0655977797232419e+00 3.6708522430128838e+01 -1 4 -2
2065 1 1.8831247306483628e-01 1.3926037461994660e+00 3.0258922301996229e+01 2 -2 0
2688 1 4.4518593069128389e+00 2.6562372713911531e+00 3.7534345471044929e+01 4 3 -1
2964 1 9.5508600787679754e+00 1.9262272843207835e+00 3.3908827670737949e+01 0 6 0
1845 1 9.4487312546099638e+00 1.7880520869963843e+00 3.6464800196407680e+01 1 1 -1
3533 1 1.0595294141873934e+01 5.8435162300237211e+00 3.6607198954601628e+01 -3 1 0
2657 1 2.6003419531228582e+00 7.5422137752419838e+00 3.3665814673868738e+01 1 1 -2
2059 1 1.0131816825668054e+00 5.4156969836943691e+00 3.7600347021688862e+01 0 3 0
444 1 2.9786430782191577e+00 7.3314854144912784e+00 3.6582317980543451e+01 0 -2 0
4323 1 6.0486521286246351e+00 4.7809419212129800e+00 3.3610918324287525e+01 2 -1 -1
1220 1 5.4937275685061815e+00 7.0539933290427808e+00 3.7796564062120623e+01 -2 0 -1
1228 1 6.2453040598201452e+00 4.5409945661432705e+00 3.6496907249485389e+01 1 1 0
3855 1 1.0532752981912163e+01 6.1657383320356276e+00 3.3833617388733728e+01 -7 -3 0
473 1 7.8241342223834973e+00 5.1676824191663175e-02 3.0259571468561113e+01 -3 -5 0
2897 1 7.9312925892086161e+00 5.4320668947052571e-02 3.7561860824220602e+01 2 1 0
1799 1 5.3790384283343826e+00 3.5005189659755770e-01 3.6600750900731924e+01 0 -2 -1
2644 1 1.2122789353025214e+01 1.5778874397201812e+00 3.0047771320124212e+01 7 1 -1
1209 1 1.2121286147226796e+01 1.4496064135582234e+00 3.7630651380808047e+01 4 3 0
2890 1 1.2150939090186998e+01 1.5920470239546556e+00 3.3057893551893159e+01 -3 -1 0
1007 1 2.3226908962763066e+00 1.4005308256196974e+01 2.5657664388544772e+00 0 -3 0
2091 1 3.9274989894400756e+00 1.5907913819110679e+01 3.6397628058685818e+00 2 0 1
4199 1 6.4426751362266215e+00 1.5306986545947176e+01 2.6564008104192043e+00 1 2 0
2667 1 8.1432573087180078e+00 1.3196361802733332e+01 3.0890350267539826e+00 3 1 0
1775 1 1.0681656401045439e+01 1.3013535829753801e+01 2.3118231570481340e+00 -3 0 1
4319 1 9.8829522938841041e+00 2.3692971757291243e+01 7.1883656652649686e+00 0 -3 0
1276 1 3.0276704364667713e+00 1.8333568730231473e+01 2.7565689437548411e+00 2 1 1
3026 1 7.3279276464290923e+00 2.4127048656197974e+01 2.4622901403283697e+00 0 -3 0
385 1 7.1066153921657387e+00 1.9668079729774309e+01 2.5611367373689435e+00 1 -2 1
402 1 4.6961980931020593e+00 2.0100054914590327e+01 3.7533209199343212e+00 0 1 0
4237 1 8.2273893264050226e+00 1.7305662592063875e+01 3.3091096205424586e+00 0 2 0
1216 1 1.0744572510423749e+01 1.6881089076429340e+01 2.1181782590067679e+00 1 0 1
1396 1 5.9238875189582405e+00 2.2067861727677261e+01 7.3408260137159660e+00 1 0 0
982 1 9.0857112121004591e-01 2.3025617978645375e+01 3.2904661476041372e+00 -1 3 0
2565 1 3.5038384170879175e+00 2.2276410871848064e+01 2.7451879002617519e+00 -3 -3 1
3351 1 8.9283327660875766e+00 1.9594665344399605e+01 9.7523497924503388e+00 3 2 1
3036 1 1.0096490941249321e+01 2.3765894539917603e+01 9.9077907403224561e+00 -1 -2 1
414 1 8.4399948558445050e+00 2.1783941725646194e+01 3.3479963718996864e+00 3 3 0
4201 1 1.0686702465235317e+01 2.1345315182947886e+01 2.2433772242461680e+00 -5 1 1
4357 1 4.9313492842580176e-01 1.8717520312837959e+01 3.3834400821781583e+00 0 3 0
1355 1 4.2014899147980254e+00 1.5586947719956170e+01 6.5000353132976434e+00 -3 -2 1
1733 1 1.7662174887152684e+00 1.6199081439327983e+01 9.8769825015210859e+00 -1 0 1
1246 1 1.4923785140805066e+00 1.6169336317271366e+01 7.2028219791010324e+00 -4 2 1
3439 1 5.2929296910664982e+00 1.3390168688330668e+01 9.7366708837840825e+00 -1 0 0
4664 1 5.3924252076407111e+00 1.3131512567148901e+01 7.0996592652048047e+00 -1 2 2
3059 1 8.1707112589759525e+00 1.3196239570390558e+01 6.0839670632321656e+00 0 4 0
2057 1 1.0815796541870648e+00 2.2780192901915829e+01 5.9906708061358449e+00 0 1 1
3761 1 9.5211879419324976e+00 1.5153207096906760e+01 7.3567639245447065e+00 2 0 0
4212 1 9.4575370633047395e+00 1.5149278923737942e+01 1.0088908697464435e+01 1 -2 1
2559 1 8.3663069160624417e+00 2.1610936103801333e+01 6.2387101074057210e+00 2 0 1
123 1 4.2939081169037124e-01 1.8517180097687838e+01 6.0415880638864286e+00 4 -2 0
3846 1 4.4533581867371836e+00 2.0101670475666289e+01 6.4019191474935591e+00 -2 0 1
2640 1 5.8299320347107564e+00 1.7665439696578908e+01 9.9016184809832630e+00 -2 2 1
879 1 5.6623540780329078e+00 1.7727095950922511e+01 7.2319292623760285e+00 -1 -4 0
4536 1 1.1732461405406095e+01 1.8444128432251848e+01 6.1506465138175948e+00 3 4 1
144 1 7.9465266178879501e+00 1.6967418245421523e+01 5.9807859908678829e+00 2 0 1
3802 1 9.2300907154949901e+00 1.9251001154464554e+01 7.0004347961499027e+00 1 -5 1
62 1 1.2268965766897100e+01 2.2893283394876690e+01 6.0703516103804809e+00 -5 3 0