LAMMPS data file via write_data, version 16 Mar 2018, timestep = 100000

4990 atoms
2 atom types

0.0000000000000000e+00 4.9219999999999999e+01 xlo xhi
0.0000000000000000e+00 4.9019635930410494e+01 ylo yhi
1.9901600932460042e+00 3.8009839906755161e+01 zlo zhi

Masses

1 18.015
2 12.01

Atoms # atomic

3831 1 3.5657670465600759e+00 1.9953514465761559e+00 4.2456033713668795e+00 0 0 0
484 1 7.9348199613928525e+00 8.1684798259462643e-01 3.9388041607205020e+00 0 0 1
4619 1 7.8380379426076541e+00 3.2691355892384788e+00 5.1777811851397777e+00 0 0 1
3855 1 5.5252518847002339e+00 3.8772153933202294e+00 3.0392994830181062e+00 0 0 1
2980 1 1.1785596503371563e+01 2.9740926056636892e+00 5.2717868099197487e+00 0 1 1
3060 1 1.8188098109774120e+00 4.0945589486417866e+00 4.2026604387084925e+00 1 0 1
1312 1 2.6434611704404061e+00 7.3104212741842716e+00 4.1091469595951642e+00 0 -1 1
2927 1 1.0135882091211519e+00 7.5643198851944975e+00 6.3948385265461818e+00 0 0 1
4529 1 4.7821271104318379e+00 5.8579909373311487e+00 4.8672569355421338e+00 0 0 1
3754 1 7.7230822012481557e+00 6.7679730797607949e+00 5.0866908678474250e+00 0 1 1
4236 1 1.0646393252064332e+01 7.7343298586827061e+00 5.9216922731263102e+00 1 1 0
1201 1 1.0081817611101215e+01 5.1722352719118314e+00 4.1361391427528202e+00 0 1 1
3779 1 2.5399784580552316e+00 1.0650120193387178e+01 2.8813756822514431e+00 1 0 1
1272 1 2.4316661804010558e+00 1.1623092246816753e+01 5.8352088916580058e+00 1 -1 0
3788 1 6.6317524453660068e+00 8.4528158420652844e+00 3.0860298117870864e+00 2 0 1
59 1 4.5631713089496424e+00 9.5391174575504927e+00 5.1236508201874393e+00 0 0 0
3519 1 7.1032885633857212e+00 1.1297957176265587e+01 4.8362654432728336e+00 0 -1 0
4632 1 9.7916463453681430e+00 1.0284393721462555e+01 4.7802067798704426e+00 0 1 0
2629 1 1.1175362151409329e+01 1.1335406481849306e+01 2.5145295963990115e+00 0 1 1
1808 1 2.0873023540164199e+00 9.0104106803824913e-01 9.4126848126211904e+00 1 0 0
3018 1 3.9869385043396219e+00 3.2584061192108820e+00 9.9248619313936466e+00 0 1 0
1397 1 8.6022127325351661e-01 1.0213891708950470e-02 7.0933020652666992e+00 -1 0 0
438 1 4.8968444182272197e+00 2.2667987950988255e+00 6.9174594758330468e+00 0 0 2
433 1 6.9488027715142824e+00 3.9861781257581788e+00 8.0104966737614163e+00 0 -1 0
1706 1 9.6603094099898126e+00 1.3722126933753669e+00 6.8801090226174644e+00 0 2 0
2872 1 8.5315787928441384e+00 2.1326693723072272e+00 9.6288534425746732e+00 0 0 0
930 1 1.8363767993441689e+00 5.9280749262738803e+00 9.1055830463257976e+00 2 1 0
4698 1 3.1209149447939568e+00 8.0389604224075093e+00 1.0744384093355135e+01 1 0 0
4318 1 7.2253926819694211e-02 4.8402083070557689e+00 6.5280788367406704e+00 0 1 0
2172 1 7.6234406636291761e+00 6.4149988796457915e+00 8.9209201708526678e+00 0 0 1
439 1 5.2762757202377779e+00 5.7656585411462800e+00 1.0977345003666912e+01 1 0 0
2099 1 4.3365996904819442e+00 5.6639627343731238e+00 7.6098685252660818e+00 1 0 1
1250 1 1.0072235749459594e+01 7.1774130430926677e+00 9.9344997249602756e+00 1 1 2
3395 1 1.0471329867670084e+01 4.2965905358075167e+00 1.0142773483233745e+01 0 0 2
1746 1 2.3642050279542004e+00 9.7029248286950853e+00 7.8965451487870642e+00 0 0 1
2988 1 1.1978569260282605e+00 1.1547238920535801e+01 9.7647563007331932e+00 1 -1 0
1338 1 5.3832239659676935e+00 1.2107569467165034e+01 9.2367485095588115e+00 0 0 1
4364 1 7.5712279921754613e+00 8.8053678455424240e+00 7.1340306833222389e+00 1 0 1
2708 1 5.3599410998158596e+00 9.5238288051387823e+00 1.0101943164352106e+01 0 0 -1
3829 1 4.8549462461767048e+00 8.4919374897815487e+00 7.6295297020207400e+00 0 -1 1
152 1 9.4924904825165584e+00 1.0711368409234117e+01 8.5969763678025117e+00 1 0 1
3718 1 1.1286252847915192e+01 9.0309870253757776e+00 8.4133328468681974e+00 1 0 0
3351 1 3.1134674613572660e-01 3.5696610658086936e+00 1.4461444586240900e+01 1 0 1
4261 1 3.0711990058997976e+00 2.7649938761254922e+00 1.4299848735467986e+01 1 0 1
1756 1 5.6003556723716672e+00 3.3093036795165900e+00 1.4195007126464954e+01 -1 0 0
1803 1 7.0848441325776408e+00 9.8044532971595055e-01 1.4672123785606294e+01 0 0 0
2887 1 6.1675792156983924e+00 1.9346629130821629e+00 1.1415843711963630e+01 0 -1 0
4276 1 1.0657986549228353e+01 8.6169887369142750e-01 1.2892417643134330e+01 0 0 0
1357 1 8.9250315954498305e+00 2.7807206128742941e+00 1.4067828543649114e+01 1 2 1
2996 1 9.0141471874322421e-01 6.7976236551847267e+00 1.3524287511770503e+01 0 0 1
949 1 1.6264126936782584e+00 4.0964399525789474e+00 1.1847417552724531e+01 0 0 0
373 1 3.8192862609598808e+00 7.4333345516058724e+00 1.3530830008127538e+01 1 0 1
492 1 6.1099355634583059e+00 6.0561800198304088e+00 1.4319504227845574e+01 0 0 0
2700 1 7.8980036517906518e+00 4.7119361579899861e+00 1.2015581188988348e+01 1 0 1
146 1 8.9739278631153301e+00 6.2645750577407924e+00 1.4312981337337376e+01 -1 1 0
6 1 1.1251037500069534e+01 4.7393008194116426e+00 1.4384874611033510e+01 1 1 0
1227 1 1.0918646921983470e+01 7.7292655759139581e+00 1.2608815758166259e+01 0 1 1
34 1 4.3538258928464341e-01 1.2121785539228789e+01 1.4251652910418844e+01 0 0 1
76 1 3.5524204832552138e+00 1.2142130593981111e+01 1.4302922230932314e+01 -1 0 0
2591 1 3.9281030185280491e-01 8.3370595005952257e+00 1.1252294841833795e+01 0 -1 0
456 1 7.5566956906189153e+00 9.0489588378208676e+00 1.4258128241029123e+01 0 0 1
2883 1 7.3200516009366439e+00 8.5452390775481764e+00 1.1412470981923535e+01 0 1 1
4627 1 4.7755581858338569e+00 9.6288331844644937e+00 1.4435377466316860e+01 -1 0 0
2720 1 9.5784113322068798e+00 1.0402657627727285e+01 1.1616393826549661e+01 1 0 1
2201 1 8.3811195478306217e+00 1.1534916694761533e+01 1.4111567929117838e+01 1 1 1
1202 1 1.1926787397815128e+01 9.8674833052647486e+00 1.4240326278424778e+01 0 -1 1
193 2 0.0000000000000000e+00 2.8417180249513345e+00 1.6982266771937482e+01 0 0 0
194 2 0.0000000000000000e+00 0.0000000000000000e+00 1.6982266771937482e+01 0 0 0
195 2 1.2305000000000001e+00 7.1042950623783474e-01 1.6982266771937482e+01 0 0 0
199 2 1.2305000000000001e+00 2.1312885187134998e+00 1.6982266771937482e+01 0 0 0
200 2 2.4610000000000003e+00 2.8417180249513345e+00 1.6982266771937482e+01 0 0 0
201 2 2.4610000000000003e+00 0.0000000000000000e+00 1.6982266771937482e+01 0 0 0
202 2 3.6915000000000004e+00 7.1042950623783474e-01 1.6982266771937482e+01 0 0 0
210 2 3.6914999999999996e+00 2.1312885187134998e+00 1.6982266771937482e+01 0 0 0
211 2 4.9220000000000006e+00 2.8417180249513332e+00 1.6982266771937482e+01 0 0 0
212 2 4.9220000000000006e+00 0.0000000000000000e+00 1.6982266771937482e+01 0 0 0
213 2 6.1524999999999999e+00 7.1042950623783407e-01 1.6982266771937482e+01 0 0 0
225 2 6.1524999999999999e+00 2.1312885187134989e+00 1.6982266771937482e+01 0 0 0
226 2 7.3829999999999991e+00 2.8417180249513345e+00 1.6982266771937482e+01 0 0 0
227 2 7.3829999999999991e+00 0.0000000000000000e+00 1.6982266771937482e+01 0 0 0
228 2 8.6134999999999984e+00 7.1042950623783407e-01 1.6982266771937482e+01 0 0 0
244 2 8.6134999999999984e+00 2.1312885187135002e+00 1.6982266771937482e+01 0 0 0
245 2 9.8440000000000012e+00 2.8417180249513332e+00 1.6982266771937482e+01 0 0 0
246 2 9.8440000000000012e+00 0.0000000000000000e+00 1.6982266771937482e+01 0 0 0
247 2 1.1074500000000002e+01 7.1042950623783330e-01 1.6982266771937482e+01 0 0 0
267 2 1.1074500000000002e+01 2.1312885187135002e+00 1.6982266771937482e+01 0 0 0
197 2 0.0000000000000000e+00 4.2625770374269996e+00 1.6982266771937482e+01 0 0 0
198 2 1.2305000000000001e+00 4.9730065436648339e+00 1.6982266771937482e+01 0 0 0
206 2 1.2305000000000001e+00 6.3938655561404980e+00 1.6982266771937482e+01 0 0 0
208 2 2.4610000000000003e+00 4.2625770374269996e+00 1.6982266771937482e+01 0 0 0
209 2 3.6914999999999996e+00 4.9730065436648339e+00 1.6982266771937482e+01 0 0 0
221 2 3.6914999999999996e+00 6.3938655561404980e+00 1.6982266771937482e+01 0 0 0
196 2 0.0000000000000000e+00 7.1042950623783341e+00 1.6982266771937482e+01 0 0 0
207 2 2.4610000000000003e+00 7.1042950623783341e+00 1.6982266771937482e+01 0 0 0
223 2 4.9220000000000006e+00 4.2625770374269978e+00 1.6982266771937482e+01 0 0 0
224 2 6.1524999999999999e+00 4.9730065436648339e+00 1.6982266771937482e+01 0 0 0
240 2 6.1524999999999999e+00 6.3938655561404980e+00 1.6982266771937482e+01 0 0 0
242 2 7.3829999999999991e+00 4.2625770374269996e+00 1.6982266771937482e+01 0 0 0
222 2 4.9220000000000006e+00 7.1042950623783341e+00 1.6982266771937482e+01 0 0 0
241 2 7.3830000000000009e+00 7.1042950623783341e+00 1.6982266771937482e+01 0 0 0
243 2 8.6135000000000002e+00 4.9730065436648339e+00 1.6982266771937482e+01 0 0 0
263 2 8.6135000000000002e+00 6.3938655561404980e+00 1.6982266771937482e+01 0 0 0
265 2 9.8440000000000012e+00 4.2625770374270004e+00 1.6982266771937482e+01 0 0 0
266 2 1.1074500000000002e+01 4.9730065436648339e+00 1.6982266771937482e+01 0 0 0
287 2 1.1074500000000002e+01 6.3938655561404980e+00 1.6982266771937482e+01 0 0 0
264 2 9.8440000000000012e+00 7.1042950623783341e+00 1.6982266771937482e+01 0 0 0
204 2 0.0000000000000000e+00 8.5251540748539991e+00 1.6982266771937482e+01 0 0 0
205 2 1.2305000000000001e+00 9.2355835810918343e+00 1.6982266771937482e+01 0 0 0
219 2 2.4610000000000003e+00 8.5251540748539991e+00 1.6982266771937482e+01 0 0 0
220 2 3.6915000000000004e+00 9.2355835810918343e+00 1.6982266771937482e+01 0 0 0
203 2 0.0000000000000000e+00 1.1366872099805333e+01 1.6982266771937482e+01 0 0 0
217 2 1.2305000000000001e+00 1.0656442593567498e+01 1.6982266771937482e+01 0 0 0
218 2 2.4610000000000003e+00 1.1366872099805333e+01 1.6982266771937482e+01 0 0 0
236 2 3.6914999999999996e+00 1.0656442593567499e+01 1.6982266771937482e+01 0 0 0
237 2 4.9220000000000006e+00 1.1366872099805333e+01 1.6982266771937482e+01 0 0 0
261 2 7.3830000000000009e+00 8.5251540748539991e+00 1.6982266771937482e+01 0 0 0
259 2 6.1524999999999999e+00 1.0656442593567499e+01 1.6982266771937482e+01 0 0 0
260 2 7.3829999999999991e+00 1.1366872099805333e+01 1.6982266771937482e+01 0 0 0
238 2 4.9220000000000006e+00 8.5251540748539991e+00 1.6982266771937482e+01 0 0 0
239 2 6.1524999999999999e+00 9.2355835810918343e+00 1.6982266771937482e+01 0 0 0
283 2 8.6134999999999984e+00 1.0656442593567498e+01 1.6982266771937482e+01 0 0 0
262 2 8.6134999999999984e+00 9.2355835810918343e+00 1.6982266771937482e+01 0 0 0
286 2 1.1074500000000002e+01 9.2355835810918343e+00 1.6982266771937482e+01 0 0 0
307 2 1.1074500000000002e+01 1.0656442593567498e+01 1.6982266771937482e+01 0 0 0
308 2 1.2304999999999998e+01 1.1366872099805333e+01 1.6982266771937482e+01 0 0 0
284 2 9.8440000000000012e+00 1.1366872099805333e+01 1.6982266771937482e+01 0 0 0
285 2 9.8440000000000012e+00 8.5251540748539956e+00 1.6982266771937482e+01 0 0 0
549 2 0.0000000000000000e+00 1.4208590124756650e+00 2.0028152190812992e+01 0 0 0
550 2 0.0000000000000000e+00 0.0000000000000000e+00 2.0028152190812992e+01 0 0 0
554 2 1.2305000000000001e+00 2.1312885187134998e+00 2.0028152190812992e+01 0 0 0
555 2 2.4610000000000003e+00 1.4208590124756650e+00 2.0028152190812992e+01 0 0 0
556 2 2.4610000000000003e+00 0.0000000000000000e+00 2.0028152190812992e+01 0 0 0
564 2 3.6914999999999996e+00 2.1312885187134998e+00 2.0028152190812992e+01 0 0 0
710 2 0.0000000000000000e+00 2.8417180249513345e+00 2.3074037609687707e+01 0 0 0
711 2 0.0000000000000000e+00 0.0000000000000000e+00 2.3074037609687707e+01 0 0 0
712 2 1.2305000000000001e+00 7.1042950623783474e-01 2.3074037609687707e+01 0 0 0
716 2 1.2305000000000001e+00 2.1312885187134998e+00 2.3074037609687707e+01 0 0 0
717 2 2.4610000000000003e+00 2.8417180249513345e+00 2.3074037609687707e+01 0 0 0
718 2 2.4610000000000003e+00 0.0000000000000000e+00 2.3074037609687707e+01 0 0 0
719 2 3.6915000000000004e+00 7.1042950623783474e-01 2.3074037609687707e+01 0 0 0
727 2 3.6914999999999996e+00 2.1312885187134998e+00 2.3074037609687707e+01 0 0 0
553 2 1.2305000000000001e+00 3.5521475311891644e+00 2.0028152190812992e+01 0 0 0
563 2 3.6914999999999996e+00 3.5521475311891644e+00 2.0028152190812992e+01 0 0 0
565 2 4.9220000000000006e+00 1.4208590124756650e+00 2.0028152190812992e+01 0 0 0
566 2 4.9220000000000006e+00 0.0000000000000000e+00 2.0028152190812992e+01 0 0 0
578 2 6.1524999999999999e+00 2.1312885187134989e+00 2.0028152190812992e+01 0 0 0
579 2 7.3829999999999991e+00 1.4208590124756659e+00 2.0028152190812992e+01 0 0 0
580 2 7.3829999999999991e+00 0.0000000000000000e+00 2.0028152190812992e+01 0 0 0
728 2 4.9220000000000006e+00 2.8417180249513332e+00 2.3074037609687707e+01 0 0 0
729 2 4.9220000000000006e+00 0.0000000000000000e+00 2.3074037609687707e+01 0 0 0
730 2 6.1524999999999999e+00 7.1042950623783407e-01 2.3074037609687707e+01 0 0 0
742 2 6.1524999999999999e+00 2.1312885187134989e+00 2.3074037609687707e+01 0 0 0
743 2 7.3829999999999991e+00 2.8417180249513345e+00 2.3074037609687707e+01 0 0 0
744 2 7.3829999999999991e+00 0.0000000000000000e+00 2.3074037609687707e+01 0 0 0
577 2 6.1524999999999999e+00 3.5521475311891644e+00 2.0028152190812992e+01 0 0 0
596 2 8.6134999999999984e+00 2.1312885187135002e+00 2.0028152190812992e+01 0 0 0
597 2 9.8440000000000012e+00 1.4208590124756659e+00 2.0028152190812992e+01 0 0 0
598 2 9.8440000000000012e+00 0.0000000000000000e+00 2.0028152190812992e+01 0 0 0
618 2 1.1074500000000002e+01 2.1312885187135002e+00 2.0028152190812992e+01 0 0 0
745 2 8.6134999999999984e+00 7.1042950623783407e-01 2.3074037609687707e+01 0 0 0
761 2 8.6134999999999984e+00 2.1312885187135002e+00 2.3074037609687707e+01 0 0 0
762 2 9.8440000000000012e+00 2.8417180249513332e+00 2.3074037609687707e+01 0 0 0
763 2 9.8440000000000012e+00 0.0000000000000000e+00 2.3074037609687707e+01 0 0 0
764 2 1.1074500000000002e+01 7.1042950623783330e-01 2.3074037609687707e+01 0 0 0
784 2 1.1074500000000002e+01 2.1312885187135002e+00 2.3074037609687707e+01 0 0 0
595 2 8.6134999999999984e+00 3.5521475311891657e+00 2.0028152190812992e+01 0 0 0
617 2 1.1074500000000002e+01 3.5521475311891644e+00 2.0028152190812992e+01 0 0 0
551 2 0.0000000000000000e+00 5.6834360499026637e+00 2.0028152190812992e+01 0 0 0
552 2 0.0000000000000000e+00 4.2625770374269996e+00 2.0028152190812992e+01 0 0 0
560 2 1.2305000000000001e+00 6.3938655561404980e+00 2.0028152190812992e+01 0 0 0
561 2 2.4610000000000003e+00 5.6834360499026637e+00 2.0028152190812992e+01 0 0 0
562 2 2.4610000000000003e+00 4.2625770374269996e+00 2.0028152190812992e+01 0 0 0
574 2 3.6914999999999996e+00 6.3938655561404980e+00 2.0028152190812992e+01 0 0 0
714 2 0.0000000000000000e+00 4.2625770374269996e+00 2.3074037609687707e+01 0 0 0
715 2 1.2305000000000001e+00 4.9730065436648339e+00 2.3074037609687707e+01 0 0 0
723 2 1.2305000000000001e+00 6.3938655561404980e+00 2.3074037609687707e+01 0 0 0
725 2 2.4610000000000003e+00 4.2625770374269996e+00 2.3074037609687707e+01 0 0 0
726 2 3.6914999999999996e+00 4.9730065436648339e+00 2.3074037609687707e+01 0 0 0
738 2 3.6914999999999996e+00 6.3938655561404980e+00 2.3074037609687707e+01 0 0 0
559 2 1.2305000000000001e+00 7.8147245686161639e+00 2.0028152190812992e+01 0 0 0
573 2 3.6914999999999996e+00 7.8147245686161639e+00 2.0028152190812992e+01 0 0 0
713 2 0.0000000000000000e+00 7.1042950623783341e+00 2.3074037609687707e+01 0 0 0
724 2 2.4610000000000003e+00 7.1042950623783341e+00 2.3074037609687707e+01 0 0 0
575 2 4.9220000000000006e+00 5.6834360499026637e+00 2.0028152190812992e+01 0 0 0
576 2 4.9220000000000006e+00 4.2625770374269978e+00 2.0028152190812992e+01 0 0 0
592 2 6.1524999999999999e+00 6.3938655561404980e+00 2.0028152190812992e+01 0 0 0
593 2 7.3829999999999991e+00 5.6834360499026637e+00 2.0028152190812992e+01 0 0 0
594 2 7.3829999999999991e+00 4.2625770374269996e+00 2.0028152190812992e+01 0 0 0
740 2 4.9220000000000006e+00 4.2625770374269978e+00 2.3074037609687707e+01 0 0 0
741 2 6.1524999999999999e+00 4.9730065436648339e+00 2.3074037609687707e+01 0 0 0
757 2 6.1524999999999999e+00 6.3938655561404980e+00 2.3074037609687707e+01 0 0 0
759 2 7.3829999999999991e+00 4.2625770374269996e+00 2.3074037609687707e+01 0 0 0
591 2 6.1524999999999999e+00 7.8147245686161639e+00 2.0028152190812992e+01 0 0 0
739 2 4.9220000000000006e+00 7.1042950623783341e+00 2.3074037609687707e+01 0 0 0
758 2 7.3830000000000009e+00 7.1042950623783341e+00 2.3074037609687707e+01 0 0 0
614 2 8.6135000000000002e+00 6.3938655561404980e+00 2.0028152190812992e+01 0 0 0
615 2 9.8440000000000012e+00 5.6834360499026637e+00 2.0028152190812992e+01 0 0 0
616 2 9.8440000000000012e+00 4.2625770374270004e+00 2.0028152190812992e+01 0 0 0
637 2 1.1074500000000002e+01 6.3938655561404980e+00 2.0028152190812992e+01 0 0 0
760 2 8.6135000000000002e+00 4.9730065436648339e+00 2.3074037609687707e+01 0 0 0
780 2 8.6135000000000002e+00 6.3938655561404980e+00 2.3074037609687707e+01 0 0 0
782 2 9.8440000000000012e+00 4.2625770374270004e+00 2.3074037609687707e+01 0 0 0
783 2 1.1074500000000002e+01 4.9730065436648339e+00 2.3074037609687707e+01 0 0 0
804 2 1.1074500000000002e+01 6.3938655561404980e+00 2.3074037609687707e+01 0 0 0
613 2 8.6135000000000002e+00 7.8147245686161639e+00 2.0028152190812992e+01 0 0 0
636 2 1.1074500000000002e+01 7.8147245686161639e+00 2.0028152190812992e+01 0 0 0
781 2 9.8440000000000012e+00 7.1042950623783341e+00 2.3074037609687707e+01 0 0 0
557 2 0.0000000000000000e+00 9.9460130873296642e+00 2.0028152190812992e+01 0 0 0
558 2 0.0000000000000000e+00 8.5251540748539991e+00 2.0028152190812992e+01 0 0 0
571 2 2.4610000000000003e+00 9.9460130873296642e+00 2.0028152190812992e+01 0 0 0
572 2 2.4610000000000003e+00 8.5251540748539991e+00 2.0028152190812992e+01 0 0 0
721 2 0.0000000000000000e+00 8.5251540748539991e+00 2.3074037609687707e+01 0 0 0
722 2 1.2305000000000001e+00 9.2355835810918343e+00 2.3074037609687707e+01 0 0 0
736 2 2.4610000000000003e+00 8.5251540748539991e+00 2.3074037609687707e+01 0 0 0
737 2 3.6915000000000004e+00 9.2355835810918343e+00 2.3074037609687707e+01 0 0 0
569 2 1.2305000000000001e+00 1.2077301606043163e+01 2.0028152190812992e+01 0 0 0
570 2 1.2305000000000001e+00 1.0656442593567498e+01 2.0028152190812992e+01 0 0 0
587 2 3.6914999999999996e+00 1.2077301606043163e+01 2.0028152190812992e+01 0 0 0
588 2 3.6914999999999996e+00 1.0656442593567499e+01 2.0028152190812992e+01 0 0 0
720 2 0.0000000000000000e+00 1.1366872099805333e+01 2.3074037609687707e+01 0 0 0
734 2 1.2305000000000001e+00 1.0656442593567498e+01 2.3074037609687707e+01 0 0 0
735 2 2.4610000000000003e+00 1.1366872099805333e+01 2.3074037609687707e+01 0 0 0
753 2 3.6914999999999996e+00 1.0656442593567499e+01 2.3074037609687707e+01 0 0 0
589 2 4.9220000000000006e+00 9.9460130873296642e+00 2.0028152190812992e+01 0 0 0
590 2 4.9220000000000006e+00 8.5251540748539991e+00 2.0028152190812992e+01 0 0 0
611 2 7.3830000000000009e+00 9.9460130873296642e+00 2.0028152190812992e+01 0 0 0
612 2 7.3830000000000009e+00 8.5251540748539991e+00 2.0028152190812992e+01 0 0 0
755 2 4.9220000000000006e+00 8.5251540748539991e+00 2.3074037609687707e+01 0 0 0
756 2 6.1524999999999999e+00 9.2355835810918343e+00 2.3074037609687707e+01 0 0 0
778 2 7.3830000000000009e+00 8.5251540748539991e+00 2.3074037609687707e+01 0 0 0
609 2 6.1524999999999999e+00 1.2077301606043163e+01 2.0028152190812992e+01 0 0 0
610 2 6.1524999999999999e+00 1.0656442593567499e+01 2.0028152190812992e+01 0 0 0
754 2 4.9220000000000006e+00 1.1366872099805333e+01 2.3074037609687707e+01 0 0 0
776 2 6.1524999999999999e+00 1.0656442593567499e+01 2.3074037609687707e+01 0 0 0
777 2 7.3829999999999991e+00 1.1366872099805333e+01 2.3074037609687707e+01 0 0 0
634 2 9.8440000000000012e+00 9.9460130873296642e+00 2.0028152190812992e+01 0 0 0
635 2 9.8440000000000012e+00 8.5251540748539956e+00 2.0028152190812992e+01 0 0 0
779 2 8.6134999999999984e+00 9.2355835810918343e+00 2.3074037609687707e+01 0 0 0
802 2 9.8440000000000012e+00 8.5251540748539956e+00 2.3074037609687707e+01 0 0 0
803 2 1.1074500000000002e+01 9.2355835810918343e+00 2.3074037609687707e+01 0 0 0
632 2 8.6135000000000002e+00 1.2077301606043163e+01 2.0028152190812992e+01 0 0 0
633 2 8.6134999999999984e+00 1.0656442593567498e+01 2.0028152190812992e+01 0 0 0
655 2 1.1074500000000002e+01 1.2077301606043163e+01 2.0028152190812992e+01 0 0 0
656 2 1.1074500000000002e+01 1.0656442593567498e+01 2.0028152190812992e+01 0 0 0
800 2 8.6134999999999984e+00 1.0656442593567498e+01 2.3074037609687707e+01 0 0 0
801 2 9.8440000000000012e+00 1.1366872099805333e+01 2.3074037609687707e+01 0 0 0
824 2 1.1074500000000002e+01 1.0656442593567498e+01 2.3074037609687707e+01 0 0 0
825 2 1.2304999999999998e+01 1.1366872099805333e+01 2.3074037609687707e+01 0 0 0
4307 1 3.3865166844698447e+00 1.4172094354146221e+00 2.5860790700239260e+01 0 2 -1
3452 1 7.6864714383870081e-01 2.8128833712555488e+00 2.6375276531329451e+01 0 1 -1
1362 1 3.2751277060524235e+00 1.9235353914212183e+00 2.8580872260045357e+01 1 1 0
2892 1 8.0770109448921321e+00 2.4614446316121219e+00 2.8442030997396454e+01 1 1 -1
2137 1 7.6073762261493982e+00 2.0896272832061213e+00 2.5883054563805093e+01 -1 0 -1
1853 1 5.3400994400458686e+00 3.6148911790764182e+00 2.5519694133451900e+01 1 0 -1
1318 1 5.6562124638739775e+00 3.6414392256045454e+00 2.8698491151148083e+01 0 2 -1
888 1 1.0303599020418185e+01 2.8742978090574298e+00 2.5483486607514095e+01 0 1 0
97 1 1.8148936075365257e-01 7.4025541491360078e+00 2.5664425037188472e+01 0 -1 -1
2568 1 2.9993742194327888e+00 7.8684566603237238e+00 2.5656806537335012e+01 0 1 -1
2589 1 4.4555159065016531e-01 7.5766782387003415e+00 2.8318147832656280e+01 0 0 0
913 1 5.2443379886890691e+00 6.2578729026605275e+00 2.6618461447953042e+01 0 1 -1
372 1 7.8346230740262817e+00 7.1937630696265220e+00 2.5537777566201900e+01 1 1 0
1248 1 1.2013803101003367e+01 7.2109301164465238e+00 2.5581149984097237e+01 1 0 0
4594 1 1.0038483277673523e+01 5.6553502698125468e+00 2.6386895183887127e+01 1 0 1
69 1 3.2508700909068771e+00 1.0471106959515010e+01 2.6331965198964834e+01 0 0 -1
3871 1 5.6792209159149900e+00 1.1186141320242719e+01 2.5719414609129061e+01 -1 2 -1
1011 1 7.6831397858040802e+00 9.7000420626980812e+00 2.6597360217636176e+01 0 1 -1
4266 1 1.0213205845410451e+01 1.1016287734571307e+01 2.5712022080221310e+01 -1 -1 0
467 1 1.1486668601367617e+01 8.2136446327371253e+00 2.8503684135543221e+01 0 1 -1
2897 1 3.8694121167119104e+00 3.0217515939066226e+00 3.3198928573184062e+01 0 1 0
480 1 7.7563747346758349e-01 3.1840886767989032e+00 2.9555982086015472e+01 0 0 -1
154 1 7.5134550079139881e+00 1.3009533152162975e+00 3.3225869458960190e+01 -1 0 0
4343 1 4.9351905696953207e+00 4.2398505966279043e-01 3.2843585687149634e+01 -1 1 -1
2188 1 8.6905091786802799e+00 9.9669900089224039e-01 3.0677704470341645e+01 -2 1 0
440 1 1.1354188847079683e+01 1.4951136848880511e+00 3.1390307359441366e+01 0 0 0
3462 1 3.9336983497150007e+00 4.5964976111431302e+00 3.0872900473944025e+01 -1 0 -1
981 1 1.4583493831091017e+00 5.7245342776744934e+00 3.0702634017907140e+01 1 1 -1
1839 1 1.4613360533524351e+00 5.6612184156531198e+00 3.3434476549612612e+01 1 0 -1
2686 1 5.5693306044902027e+00 6.2157185926231406e+00 3.2476437897546177e+01 -1 1 -1
1793 1 5.1273872613368452e+00 6.8955821174951053e+00 2.9498808734084296e+01 -1 0 -1
4560 1 9.3331488566135477e+00 7.3425921712325781e+00 2.9723895655330104e+01 0 1 0
3854 1 9.0934495838714540e+00 6.4227294050982975e+00 3.2744345454293025e+01 1 1 -1
3040 1 1.2279117067304389e+01 4.1399576687526691e+00 3.0524456904983683e+01 1 0 -1
978 1 1.1691665757066380e+01 5.2314554663489909e+00 3.2952239335295744e+01 -1 0 -2
1236 1 9.8269382243417720e+00 4.4272846581865224e+00 2.9020173632783283e+01 1 1 0
392 1 1.5257827107443345e+00 1.1195246054418551e+01 3.2559735893365030e+01 0 0 -1
4649 1 2.9713256641150516e+00 8.3894615133500974e+00 2.9916440569993192e+01 1 1 0
3405 1 3.6538307683421305e+00 9.4064059088037606e+00 3.2386795991029672e+01 0 0 0
1794 1 3.4697672793810508e+00 1.0864092326651896e+01 2.9044210803713899e+01 0 0 -1
2600 1 6.6857301588495925e+00 1.0835101816324331e+01 3.1032396242182042e+01 0 -1 -1
2125 1 7.2044390701346552e+00 8.8077194901180444e+00 2.9053361736683481e+01 0 0 0
3791 1 1.0762203461572547e+01 1.2175640429149562e+01 3.0443754002599931e+01 1 1 -1
3377 1 9.1030013905237546e+00 1.1449966668287496e+01 3.2461761418331164e+01 -1 1 0
2963 1 1.6182408713803105e+00 3.0210490392222650e-01 3.5667238453958724e+01 0 1 1
927 1 1.1234923200207376e+00 3.1722179637994596e+00 3.4625452601058186e+01 1 0 -1
956 1 7.8241787193415835e-01 3.3440085012392378e+00 3.7487461361453583e+01 -1 0 -1
4579 1 4.5203027544610217e+00 1.8763435628461935e+00 3.7105778416712930e+01 1 1 0
167 1 7.5034490827172453e+00 4.0568390741017746e+00 3.3585094386425745e+01 0 1 -1
4630 1 6.5849450686099287e+00 5.9241330319118046e-02 3.6019264695378126e+01 1 1 0
2622 1 8.9195332761148016e+00 3.5422409462406623e+00 3.6143964229665293e+01 1 0 0
4351 1 1.1597860056720661e+01 3.5272998531205197e+00 3.5243079878437449e+01 0 2 -1
382 1 8.9817703954678176e+00 8.4755153526581517e-01 3.7304057417676013e+01 1 1 0
4375 1 1.2118489880562521e+01 1.3604687837158734e-02 3.3703130788624215e+01 -1 0 -1
2896 1 3.5304626206037359e+00 7.3372631369503960e+00 3.3893683225297622e+01 1 1 -1
4564 1 1.7291271511889246e+00 7.6973573108659075e+00 3.7359669199636208e+01 0 0 0
4535 1 5.1920916566558208e+00 4.0999852817528737e+00 3.5287693887186478e+01 0 1 -1
2670 1 5.8733064604298519e+00 6.3452386461621204e+00 3.7229247542069999e+01 1 1 0
2646 1 8.4406111860425153e+00 6.8018389453772041e+00 3.5684506130146247e+01 1 0 0
3472 1 1.0521851999857301e+01 6.2608499060510079e+00 3.7633602950225338e+01 0 0 0
3752 1 6.0670723623020917e-01 1.1955501156807259e+01 3.6482406816575676e+01 0 0 0
1838 1 3.9600371994670360e+00 8.2216993455240139e+00 3.6215548490662712e+01 0 1 -1
2938 1 7.8586690103607530e+00 1.0656598609748478e+01 3.5696659853704752e+01 0 0 1
474 1 5.6132052119950133e+00 1.1079204974108492e+01 3.3867035931307313e+01 1 0 0
2705 1 4.3717035868837648e+00 1.1179234126467017e+01 3.6376893920261722e+01 1 1 -1
100 1 6.4706820790412793e+00 1.1930913646542811e+01 3.7904716454947085e+01 1 -1 -1
361 1 8.9145405205999921e+00 9.1284250793004986e+00 3.7983317920208016e+01 1 1 -1
3445 1 9.4056594368437612e+00 9.1304302158587465e+00 3.4010005254229746e+01 -1 -1 -1
3461 1 1.1847611928923904e+01 8.8043226562822028e+00 3.4922798054521152e+01 1 0 -1
2181 1 1.0328924771624127e+01 1.2161504084411058e+01 3.6180316269970994e+01 0 1 -1
2711 1 3.9358871267845190e+00 1.3777126567124375e+01 6.0136064800117159e+00 0 1 0
1216 1 1.7600404815527715e+00 1.3646434677104422e+01 2.6427548218680634e+00 2 -1 1
2240 1 3.5007074645869524e-01 1.3206899126928292e+01 5.3304752436001692e+00 1 -1 1
2874 1 4.4947397740092816e+00 1.6172093812233776e+01 4.3341910804265567e+00 0 0 0
2939 1 1.1234280984156250e+01 1.6108961424040725e+01 5.4069472929397957e+00 0 1 0
1238 1 1.1816914714225025e+01 1.3515380009203296e+01 4.6825523550843187e+00 1 0 1
2723 1 2.1020856919426958e+00 1.7525641216360903e+01 5.0332685336885401e+00 1 0 0
1817 1 2.2407156035155960e+00 1.9505990878768600e+01 2.9806202673510089e+00 1 0 1
1822 1 6.5421236750840537e+00 1.8099874254473676e+01 5.0117399031112893e+00 0 0 1
4575 1 5.5818119320093205e+00 2.0202609810692042e+01 6.3341463392922757e+00 0 0 1
2552 1 8.8511246391141150e+00 1.8659605520773791e+01 4.0192524454947200e+00 0 1 1
360 1 1.0141639734594010e+01 1.6565578846795841e+01 2.7696293210567280e+00 1 0 1
1333 1 3.9444390254529913e+00 2.1863240137638247e+01 4.2966210427001403e+00 1 0 0
2604 1 2.0258599796431769e+00 2.4164493347875869e+01 4.7258193008285350e+00 1 0 1
3522 1 1.2397537535587924e-01 2.4001381112047341e+01 2.6361457509289892e+00 0 0 0
2558 1 6.4262329154920206e+00 2.3165843833114426e+01 3.4812444950434660e+00 2 -1 0
999 1 7.9107095679345338e+00 2.1877018748090478e+01 5.7864424162066186e+00 0 -1 0
1809 1 1.0808418638773581e+01 2.0936567387436465e+01 5.6879532228595826e+00 1 1 0
57 1 8.8964092743755501e+00 2.1227627743776605e+01 2.6820272929545226e+00 1 0 0
2061 1 1.0869607370339791e+01 2.2825909302739156e+01 3.6149098788385183e+00 1 1 0
1833 1 2.3349103580876691e+00 1.5540607940073865e+01 7.8027222027239240e+00 2 1 1
4197 1 3.0427660649723149e+00 1.3506476620076249e+01 9.5205254746001415e+00 0 1 1
1868 1 6.7892406008337582e+00 1.3215388441734040e+01 6.9818145096501061e+00 -1 0 0
969 1 6.5803129618494243e+00 1.6036818018667731e+01 7.1868828315838797e+00 1 -1 0
2157 1 9.7207363865907865e+00 1.6241228923105457e+01 1.0189492678846722e+01 -1 0 0
3751 1 9.7345792896827170e+00 1.2792281434105082e+01 6.5811725492829103e+00 2 1 1
4556 1 9.4164445772882424e+00 1.5655361051775898e+01 7.4378571848282053e+00 1 -1 1
4651 1 1.1850362798352563e+01 1.3403952560918137e+01 8.4845786084459682e+00 1 0 0
1869 1 2.9268322247109153e+00 1.8984552472434572e+01 7.2487447747336082e+00 0 0 0
975 1 2.4165815137744886e+00 1.8917935664688624e+01 1.0301334892410001e+01 1 1 0
2634 1 6.8245362442387965e+00 1.9480460299098372e+01 8.7776577396592899e+00 1 0 0
3732 1 4.6867194271011376e+00 1.7123360252130329e+01 8.6462561832879992e+00 0 -1 1
1789 1 1.1545158034076698e+01 1.8568539315575443e+01 9.1815782977501463e+00 0 0 0
2595 1 9.3864571921057696e+00 1.8760015196857783e+01 7.0782871791143371e+00 0 0 0
140 1 2.6828629430685993e+00 2.2068025256595590e+01 6.9912229679675173e+00 1 0 1
4569 1 4.0072841928911789e+00 2.3337691487489717e+01 9.2554312770159441e+00 0 0 1
2064 1 6.6828180636362484e+00 2.4295171561067630e+01 8.8025984189262676e+00 1 0 1
98 1 8.0417723722404784e+00 2.2032783725351955e+01 8.7199102998411568e+00 0 -1 1
4557 1 1.0049191327057333e+01 2.1792300405579837e+01 1.0950509461722046e+01 0 -1 1
2702 1 1.1886751574667741e+01 2.3828126849239471e+01 9.6997160733023975e+00 0 1 0
2160 1 1.9790220967644763e+00 1.5105533746099434e+01 1.4553408225791232e+01 0 0 0
2632 1 3.4171940915224899e+00 1.4612344010045744e+01 1.2125794190965934e+01 0 0 0
4339 1 6.2604433949495046e+00 1.3218460018029544e+01 1.3947577497127664e+01 1 0 0
2155 1 7.7771368969361356e+00 1.5742670368708190e+01 1.4103677400966795e+01 -1 0 1
4226 1 5.8522482294689180e+00 1.3974892304120219e+01 1.1412067715981552e+01 0 0 0