LAMMPS data file via write_data, version 16 Mar 2018, timestep = 100000

6736 atoms
2 atom types

0.0000000000000000e+00 4.9219999999999999e+01 xlo xhi
0.0000000000000000e+00 4.9019635930410494e+01 ylo yhi
8.8969951600881458e-01 5.9172300483990938e+01 zlo zhi

Masses

1 18.015
2 12.01

Atoms # atomic

1802 1 4.4220229644751621e+00 2.7561863305454981e+00 3.9886354022982218e+00 0 0 0
1788 1 1.2273703597601147e+01 1.6439258939434720e+00 1.2893919125186407e+01 2 0 0
67 1 6.1832065853348883e+00 2.8577018569690846e+00 2.0169652070028010e+00 0 1 1
5124 1 3.2580580364595026e+00 5.5383712157259559e+00 2.1526323073537101e+00 0 1 1
2802 1 3.9421928831659336e-01 1.7868901422188455e+00 3.6958998865803481e+00 1 2 1
2634 1 3.4145756396094922e+00 1.0521916167045175e+01 1.3131118249929299e+01 1 1 1
1064 1 1.0297400171352782e+01 3.3230367479036489e+00 4.4510234664996799e+00 1 -1 1
3463 1 4.8883105467091009e-01 9.7240013129695289e+00 2.1408729860787616e+00 2 0 0
1122 1 1.0789164587772675e+01 8.8996533169845282e+00 9.9445627054525172e+00 0 0 1
2884 1 1.1280669518586356e+01 8.7096786862689779e+00 3.3147232886112725e+00 0 1 1
3699 1 2.8385000861084864e+00 6.2335310609697308e+00 6.7015366081956431e+00 1 1 0
6079 1 1.0149699433372499e+01 7.6510256373817798e-01 1.1004424654643007e+01 1 1 1
195 1 4.4595963064232285e+00 5.7889289454957105e+00 4.5805327930945676e+00 0 0 1
2076 1 5.7704691641837735e+00 2.4606368673776968e+00 6.7143800281200487e+00 0 0 0
2509 1 1.1182877993526301e+01 8.5090332800176327e+00 6.1038946337695803e+00 0 1 1
4263 1 8.7780370861354804e+00 7.6671385528908989e+00 2.4461854002965095e+00 1 0 1
4234 1 1.0933455980723462e+01 5.3663969992014202e+00 6.4803774943492565e+00 1 1 1
3834 1 7.0808290975988895e+00 1.0971897134628319e+00 1.2957574726177075e+01 -1 0 0
2056 1 1.1685895403429294e+00 1.0051982051632296e+01 4.8642948339782759e+00 -1 0 1
2051 1 9.2836623915454393e+00 4.4602149173762138e+00 1.1912800841920840e+01 2 1 0
5938 1 4.9876163208877715e+00 8.2402114457903348e+00 3.3851038287550170e+00 0 1 1
4316 1 1.0076597699507007e+01 6.7993978682518641e-01 5.4842583648809082e+00 0 -1 1
3414 1 7.3743424046385364e+00 8.9861428480134862e+00 4.4369395840612720e+00 0 0 1
3431 1 1.1638384650578068e+01 1.1589993356627083e+01 2.7859114665529354e+00 1 1 1
4595 1 7.6811436778364139e-01 4.4420597300831099e+00 3.6845291261061792e+00 1 1 0
6042 1 2.0855439170103027e+00 3.9243421308982138e+00 8.0610694915503984e+00 1 0 1
5151 1 1.0543101541648554e+01 9.9374627847453034e+00 1.2344589326031198e+01 1 0 0
4142 1 8.4295127875656561e+00 4.7048538099180988e+00 2.8946654266313270e+00 -2 0 1
970 1 5.6433457970754919e+00 2.9784504020004983e+00 9.6340613602926695e+00 -1 0 1
4215 1 2.6861571805326383e+00 3.9937186671016343e+00 1.0630615744222144e+01 -1 0 1
2429 1 5.7689287907564726e+00 1.0262071165490539e+01 1.3967517921294752e+01 0 0 0
3648 1 1.6764680825002043e+00 1.1080316409350356e+01 1.5358463882311488e+01 1 0 0
4180 1 9.1181914649106481e+00 2.7186733645839474e+00 7.6287381485312142e+00 1 1 1
3483 1 1.1649863949621714e+01 2.0144598101036579e+00 8.6622471771990668e+00 0 0 0
5227 1 3.1256964253856911e+00 1.2901623625984036e+00 1.3824334821940791e+01 0 1 0
287 1 9.3381357854894143e-01 9.5845246038879548e+00 9.4253400528529276e+00 1 0 0
5179 1 7.0078126316577620e+00 9.3253989746390750e-02 6.2107132394902580e+00 1 0 0
5936 1 6.8751683564228818e+00 7.5111309050609725e+00 6.6587668043875494e+00 2 1 1
4256 1 7.0952173909038798e+00 4.7383954153986938e+00 5.3066250028128241e+00 0 2 1
2865 1 6.8064344221675812e+00 5.5902940926178548e+00 1.0432784433805969e+01 1 1 1
4423 1 4.6250348800900110e+00 7.7165160808658637e+00 8.1416956869231143e+00 1 1 1
5958 1 1.0973452787855081e+01 6.2573097325461671e+00 1.0204796459760528e+01 0 2 1
5468 1 8.7692109257106381e+00 5.8552396196133669e+00 8.3334603399241018e+00 0 -1 0
496 1 3.4040847105207193e+00 1.0356968846568838e+01 7.6689173554707217e+00 0 1 0
1895 1 5.5978097157651598e+00 1.0975208656109645e+01 9.3531551290620456e+00 -1 1 0
1042 1 4.0825469108944885e+00 1.0340119116905088e+01 5.1057387830718817e+00 0 1 1
792 1 7.1013886182766282e+00 8.5890455976936710e+00 1.0398121116467140e+01 0 0 1
2843 1 8.7443858945568493e+00 9.4140311382364725e+00 8.0419155663973712e+00 0 0 1
5101 1 9.2205879529041290e+00 1.1178444733878267e+01 4.4125877470497468e+00 0 0 1
3376 1 3.1437930553944740e+00 1.1468231092763119e+00 1.1090462510597119e+01 1 -1 0
2717 1 8.3427699576409768e+00 2.2092370560895702e+00 1.0551468322134932e+01 1 0 1
469 1 1.4549393769986543e-01 3.2389013092738339e+00 1.2182297215683180e+01 1 -1 0
4257 1 1.6820663256185187e+00 5.9536117993472537e+00 1.3454631038438022e+01 0 1 1
4242 1 4.5693348403508898e+00 5.1942967205924884e+00 1.3553314974659983e+01 0 -1 1
746 1 2.5781214312437535e+00 9.6931925644452266e-01 4.9767971728729812e+00 0 -1 1
6218 1 4.0541600909031636e+00 6.6204491970836017e+00 1.0494721621370848e+01 0 0 1
1800 1 1.9310673513429488e-01 1.3116884088518159e+00 1.4785549635678377e+01 0 2 0
5557 1 7.2477597525855080e+00 5.9395306306290143e+00 1.3413108834624104e+01 1 0 0
3773 1 5.0997474129129525e+00 2.9360364517556703e+00 1.4487829203633510e+01 1 -2 0
4323 1 8.1223781756457942e+00 8.8474323914082120e+00 1.3021153233029002e+01 0 -1 1
5097 1 6.9013885616578341e-02 7.6965845005847724e+00 6.5079352417120475e+00 1 0 0
3774 1 1.9795314966148023e+00 8.1489207613591468e+00 1.2040587800566163e+01 -1 2 0
882 1 8.3725479963784704e+00 2.9090285862059622e+00 1.4727189356354341e+01 0 1 1
6111 1 1.8506528680861534e+00 7.6581662052935933e+00 9.3679570109121946e-01 1 0 1
6129 1 1.7048152777464265e+00 1.1301383670418117e+00 7.5929291974486519e+00 1 1 1
404 1 1.1370582865848208e+01 6.0893718050596117e+00 1.3773518074257003e+01 0 -1 0
3710 1 8.9236263087140522e+00 1.2035859500851315e+01 7.2943966293503104e+00 0 2 0
421 1 4.8058517805697593e-01 1.2176331653239661e+01 6.2883256459266956e+00 1 0 0
5918 1 3.1598884892417898e+00 1.2130822885647889e+01 1.0906760152468182e+01 1 0 0
4260 1 1.1333517699841410e+01 2.2818849582328000e+00 1.5353276238475969e+01 1 1 1
125 1 7.4710190288639691e+00 9.9346355653381160e+00 1.0109452621664679e+00 0 0 1
602 2 9.8440000000000012e+00 1.1366872099805333e+01 2.6818975456165106e+01 0 0 0
3802 1 1.8353644792538928e+00 8.8235512311286861e+00 1.6946327702744412e+01 1 -1 0
1999 1 3.0914615246615194e+00 1.9502631642422426e+00 2.0567850368220213e+01 1 0 0
5224 1 1.3890490000326261e+00 2.3460464967452421e+00 1.7158115808031102e+01 0 0 0
3846 1 3.9159741070710807e+00 3.1557446027600795e+00 1.7039611061869085e+01 0 1 1
2104 1 1.1093900775342123e+01 3.6185948073465197e+00 1.9486371840562679e+01 0 0 0
4524 1 8.3773966745271835e+00 2.1719486503546879e+00 1.7508252241327302e+01 0 0 1
4492 1 7.9814929319194761e+00 3.7689294835858993e+00 1.9754768128290930e+01 0 0 1
5365 1 1.2093930962658018e+01 9.9130525247083927e+00 1.5592170016665655e+01 1 -1 0
1842 1 1.9286176189709980e-01 4.6845250628082020e+00 1.7874128341564816e+01 1 1 0
2526 1 3.7121850901589823e+00 4.7432585842013522e+00 2.0877299538028442e+01 -1 0 1
3766 1 8.0562483196443111e+00 5.5937655951725889e+00 1.6146064586781279e+01 -1 0 0
1981 1 5.6933053195303982e+00 5.3212952818437822e+00 1.9024376883046894e+01 0 2 0
1113 1 1.0273392344686300e+01 7.7127424728899543e+00 1.6299043167707460e+01 -1 0 1
601 2 8.6134999999999984e+00 1.0656442593567498e+01 2.6818975456165106e+01 0 0 0
3497 1 1.8364491978169597e+00 6.1583502564367487e+00 1.6332927164712011e+01 1 0 0
1738 1 1.0482248730749573e+01 1.0413758512814915e+00 2.0208304330928875e+01 1 0 1
2031 1 4.6755022189879210e+00 9.2649671600838062e+00 1.6612116991211067e+01 -1 0 0
604 2 1.1074500000000002e+01 9.2355835810918343e+00 2.6818975456165106e+01 0 0 0
4474 1 8.5586402157671682e+00 1.0249476747660049e+01 1.6964463902291595e+01 0 1 0
5930 1 6.3892559234372701e+00 9.6672459832456958e+00 1.8932296957313294e+01 1 -1 0
1834 1 9.9406500113613774e+00 1.1217885199581314e+01 1.9129472464286376e+01 1 0 0
3438 1 1.2229953953834364e+01 1.1102395541632376e+01 2.1510346521947032e+01 -2 1 1
5291 1 8.0511980016575069e-01 1.3198738579207807e+00 2.4426336029228228e+01 1 1 0
5118 1 3.4196431016290099e+00 1.6329153592642971e+00 2.3210484305831727e+01 1 0 1
3677 1 7.3474395322256720e+00 2.2962955603591664e+00 2.1904108986491813e+01 1 2 0
494 1 1.5163663201595972e+00 1.1607329832888309e+01 2.4098378363095289e+01 -2 0 1
2181 1 5.2118126466073003e+00 3.6076626446428346e+00 2.3556185978653527e+01 -1 0 0
6071 1 9.7039926509517773e+00 1.8265013577513234e+00 2.2987423851620665e+01 0 1 1
625 2 1.1074500000000002e+01 1.0656442593567498e+01 2.6818975456165106e+01 0 0 0
580 2 8.6134999999999984e+00 9.2355835810918343e+00 2.6818975456165106e+01 0 0 0
2097 1 1.2356956792595617e+00 5.7061215623313837e+00 2.0482308650364406e+01 2 0 0
2585 1 1.2823384165855416e+00 6.4743363039072115e+00 2.3518053427797440e+01 1 0 1
6156 1 3.5119707716820692e+00 9.6207871030305068e+00 2.2996430134813227e+01 0 0 1
4344 1 1.0935726997774077e+01 4.6243106424383091e+00 1.6814230467083590e+01 0 0 1
4294 1 9.7459208101574983e+00 6.1247590382913071e+00 2.3479527096535467e+01 0 -1 1
4574 1 4.4374653474097592e+00 6.1919927176199021e+00 2.3625078323004875e+01 0 0 0
2798 1 6.8401661580647346e+00 7.1582802195511688e+00 2.3570720187213411e+01 0 0 0
144 1 1.0635334859328102e+01 7.7481410562654274e+00 1.9540741239321864e+01 0 0 0
5164 1 8.9852167655142523e+00 5.9134945716681466e+00 2.0792945733041215e+01 1 0 0
4455 1 1.0891907428137420e+01 3.8480690435696485e+00 2.4118882351121659e+01 0 0 1
466 1 1.1160315137482360e+01 8.3912033699049786e+00 2.4483893657796759e+01 1 0 0
5264 1 1.5477128386771271e+00 3.4283247979039744e-01 1.9075467218679805e+01 0 0 0
5266 1 1.2231925787524365e+00 8.3891531790283231e+00 2.0487604307342224e+01 -1 -1 0
3437 1 3.3675875858735762e+00 1.0183384807070755e+01 2.0222859606905025e+01 0 0 0
4360 1 6.4726944947040783e+00 7.3698701504645152e+00 2.0726404277885980e+01 0 0 1
6011 1 6.2789641429618799e+00 9.8942608853698122e+00 2.3239196546376345e+01 0 0 1
626 2 1.2304999999999998e+01 1.1366872099805333e+01 2.6818975456165106e+01 0 0 0
603 2 9.8440000000000012e+00 8.5251540748539956e+00 2.6818975456165106e+01 0 0 0
4326 1 9.3650473337717344e+00 1.0146336910879423e+01 2.4185493059633782e+01 2 0 1
414 1 9.2625069991334694e+00 9.3971484503523985e+00 2.1216287108763421e+01 0 0 0
511 2 0.0000000000000000e+00 2.8417180249513345e+00 2.6818975456165106e+01 0 0 0
512 2 0.0000000000000000e+00 0.0000000000000000e+00 2.6818975456165106e+01 0 0 0
513 2 1.2305000000000001e+00 7.1042950623783474e-01 2.6818975456165106e+01 0 0 0
517 2 1.2305000000000001e+00 2.1312885187134998e+00 2.6818975456165106e+01 0 0 0
518 2 2.4610000000000003e+00 2.8417180249513345e+00 2.6818975456165106e+01 0 0 0
519 2 2.4610000000000003e+00 0.0000000000000000e+00 2.6818975456165106e+01 0 0 0
520 2 3.6915000000000004e+00 7.1042950623783474e-01 2.6818975456165106e+01 0 0 0
528 2 3.6914999999999996e+00 2.1312885187134998e+00 2.6818975456165106e+01 0 0 0
529 2 4.9220000000000006e+00 2.8417180249513332e+00 2.6818975456165106e+01 0 0 0
530 2 4.9220000000000006e+00 0.0000000000000000e+00 2.6818975456165106e+01 0 0 0
531 2 6.1524999999999999e+00 7.1042950623783407e-01 2.6818975456165106e+01 0 0 0
543 2 6.1524999999999999e+00 2.1312885187134989e+00 2.6818975456165106e+01 0 0 0
544 2 7.3829999999999991e+00 2.8417180249513345e+00 2.6818975456165106e+01 0 0 0
545 2 7.3829999999999991e+00 0.0000000000000000e+00 2.6818975456165106e+01 0 0 0
546 2 8.6134999999999984e+00 7.1042950623783407e-01 2.6818975456165106e+01 0 0 0
562 2 8.6134999999999984e+00 2.1312885187135002e+00 2.6818975456165106e+01 0 0 0
563 2 9.8440000000000012e+00 2.8417180249513332e+00 2.6818975456165106e+01 0 0 0
564 2 9.8440000000000012e+00 0.0000000000000000e+00 2.6818975456165106e+01 0 0 0
565 2 1.1074500000000002e+01 7.1042950623783330e-01 2.6818975456165106e+01 0 0 0
585 2 1.1074500000000002e+01 2.1312885187135002e+00 2.6818975456165106e+01 0 0 0
514 2 0.0000000000000000e+00 7.1042950623783341e+00 2.6818975456165106e+01 0 0 0
515 2 0.0000000000000000e+00 4.2625770374269996e+00 2.6818975456165106e+01 0 0 0
516 2 1.2305000000000001e+00 4.9730065436648339e+00 2.6818975456165106e+01 0 0 0
524 2 1.2305000000000001e+00 6.3938655561404980e+00 2.6818975456165106e+01 0 0 0
525 2 2.4610000000000003e+00 7.1042950623783341e+00 2.6818975456165106e+01 0 0 0
526 2 2.4610000000000003e+00 4.2625770374269996e+00 2.6818975456165106e+01 0 0 0
527 2 3.6914999999999996e+00 4.9730065436648339e+00 2.6818975456165106e+01 0 0 0
539 2 3.6914999999999996e+00 6.3938655561404980e+00 2.6818975456165106e+01 0 0 0
540 2 4.9220000000000006e+00 7.1042950623783341e+00 2.6818975456165106e+01 0 0 0
541 2 4.9220000000000006e+00 4.2625770374269978e+00 2.6818975456165106e+01 0 0 0
542 2 6.1524999999999999e+00 4.9730065436648339e+00 2.6818975456165106e+01 0 0 0
558 2 6.1524999999999999e+00 6.3938655561404980e+00 2.6818975456165106e+01 0 0 0
559 2 7.3830000000000009e+00 7.1042950623783341e+00 2.6818975456165106e+01 0 0 0
560 2 7.3829999999999991e+00 4.2625770374269996e+00 2.6818975456165106e+01 0 0 0
561 2 8.6135000000000002e+00 4.9730065436648339e+00 2.6818975456165106e+01 0 0 0
581 2 8.6135000000000002e+00 6.3938655561404980e+00 2.6818975456165106e+01 0 0 0
582 2 9.8440000000000012e+00 7.1042950623783341e+00 2.6818975456165106e+01 0 0 0
583 2 9.8440000000000012e+00 4.2625770374270004e+00 2.6818975456165106e+01 0 0 0
584 2 1.1074500000000002e+01 4.9730065436648339e+00 2.6818975456165106e+01 0 0 0
605 2 1.1074500000000002e+01 6.3938655561404980e+00 2.6818975456165106e+01 0 0 0
521 2 0.0000000000000000e+00 1.1366872099805333e+01 2.6818975456165106e+01 0 0 0
522 2 0.0000000000000000e+00 8.5251540748539991e+00 2.6818975456165106e+01 0 0 0
523 2 1.2305000000000001e+00 9.2355835810918343e+00 2.6818975456165106e+01 0 0 0
535 2 1.2305000000000001e+00 1.0656442593567498e+01 2.6818975456165106e+01 0 0 0
536 2 2.4610000000000003e+00 1.1366872099805333e+01 2.6818975456165106e+01 0 0 0
537 2 2.4610000000000003e+00 8.5251540748539991e+00 2.6818975456165106e+01 0 0 0
538 2 3.6915000000000004e+00 9.2355835810918343e+00 2.6818975456165106e+01 0 0 0
554 2 3.6914999999999996e+00 1.0656442593567499e+01 2.6818975456165106e+01 0 0 0
578 2 7.3829999999999991e+00 1.1366872099805333e+01 2.6818975456165106e+01 0 0 0
579 2 7.3830000000000009e+00 8.5251540748539991e+00 2.6818975456165106e+01 0 0 0
556 2 4.9220000000000006e+00 8.5251540748539991e+00 2.6818975456165106e+01 0 0 0
555 2 4.9220000000000006e+00 1.1366872099805333e+01 2.6818975456165106e+01 0 0 0
557 2 6.1524999999999999e+00 9.2355835810918343e+00 2.6818975456165106e+01 0 0 0
577 2 6.1524999999999999e+00 1.0656442593567499e+01 2.6818975456165106e+01 0 0 0
2886 1 4.5725533968294467e+00 6.1593566552498524e+00 1.6241736308345260e+01 1 2 1
4616 1 5.7289219698916432e+00 1.0051935500306377e+00 1.9958812335898042e+01 1 0 1
775 1 6.7670116217915464e+00 1.1481023861343257e+01 2.1150906275206371e+01 0 0 1
974 1 6.2212373591535961e+00 7.8437238517239904e-01 1.7237121185927943e+01 0 0 1
5389 1 1.2643001118301317e-01 9.0885848919919177e+00 2.3125008537726206e+01 1 1 0
4393 1 4.2483282736682613e+00 1.2211225108753650e+01 1.6803606923044370e+01 0 -1 1
1837 1 1.6288333612730583e+00 1.2252050310369116e+01 1.9010799092945824e+01 1 0 0
1250 2 0.0000000000000000e+00 1.4208590124756650e+00 3.0031000000000041e+01 0 0 0
1251 2 0.0000000000000000e+00 0.0000000000000000e+00 3.0031000000000041e+01 0 0 0
1254 2 1.2305000000000001e+00 3.5521475311891644e+00 3.0031000000000041e+01 0 0 0
1255 2 1.2305000000000001e+00 2.1312885187134998e+00 3.0031000000000041e+01 0 0 0
1256 2 2.4610000000000003e+00 1.4208590124756650e+00 3.0031000000000041e+01 0 0 0
1257 2 2.4610000000000003e+00 0.0000000000000000e+00 3.0031000000000041e+01 0 0 0
1264 2 3.6914999999999996e+00 3.5521475311891644e+00 3.0031000000000041e+01 0 0 0
1265 2 3.6914999999999996e+00 2.1312885187134998e+00 3.0031000000000041e+01 0 0 0
1411 2 0.0000000000000000e+00 2.8417180249513345e+00 3.3243024543836427e+01 0 0 0
1412 2 0.0000000000000000e+00 0.0000000000000000e+00 3.3243024543836427e+01 0 0 0
1413 2 1.2305000000000001e+00 7.1042950623783474e-01 3.3243024543836427e+01 0 0 0
1417 2 1.2305000000000001e+00 2.1312885187134998e+00 3.3243024543836427e+01 0 0 0
1418 2 2.4610000000000003e+00 2.8417180249513345e+00 3.3243024543836427e+01 0 0 0
1419 2 2.4610000000000003e+00 0.0000000000000000e+00 3.3243024543836427e+01 0 0 0
1420 2 3.6915000000000004e+00 7.1042950623783474e-01 3.3243024543836427e+01 0 0 0
1428 2 3.6914999999999996e+00 2.1312885187134998e+00 3.3243024543836427e+01 0 0 0
1266 2 4.9220000000000006e+00 1.4208590124756650e+00 3.0031000000000041e+01 0 0 0
1267 2 4.9220000000000006e+00 0.0000000000000000e+00 3.0031000000000041e+01 0 0 0
1278 2 6.1524999999999999e+00 3.5521475311891644e+00 3.0031000000000041e+01 0 0 0
1279 2 6.1524999999999999e+00 2.1312885187134989e+00 3.0031000000000041e+01 0 0 0
1280 2 7.3829999999999991e+00 1.4208590124756659e+00 3.0031000000000041e+01 0 0 0
1281 2 7.3829999999999991e+00 0.0000000000000000e+00 3.0031000000000041e+01 0 0 0
1429 2 4.9220000000000006e+00 2.8417180249513332e+00 3.3243024543836427e+01 0 0 0
1430 2 4.9220000000000006e+00 0.0000000000000000e+00 3.3243024543836427e+01 0 0 0
1431 2 6.1524999999999999e+00 7.1042950623783407e-01 3.3243024543836427e+01 0 0 0
1443 2 6.1524999999999999e+00 2.1312885187134989e+00 3.3243024543836427e+01 0 0 0
1444 2 7.3829999999999991e+00 2.8417180249513345e+00 3.3243024543836427e+01 0 0 0
1445 2 7.3829999999999991e+00 0.0000000000000000e+00 3.3243024543836427e+01 0 0 0
1296 2 8.6134999999999984e+00 3.5521475311891657e+00 3.0031000000000041e+01 0 0 0
1297 2 8.6134999999999984e+00 2.1312885187135002e+00 3.0031000000000041e+01 0 0 0
1298 2 9.8440000000000012e+00 1.4208590124756659e+00 3.0031000000000041e+01 0 0 0
1299 2 9.8440000000000012e+00 0.0000000000000000e+00 3.0031000000000041e+01 0 0 0
1318 2 1.1074500000000002e+01 3.5521475311891644e+00 3.0031000000000041e+01 0 0 0
1319 2 1.1074500000000002e+01 2.1312885187135002e+00 3.0031000000000041e+01 0 0 0
1446 2 8.6134999999999984e+00 7.1042950623783407e-01 3.3243024543836427e+01 0 0 0
1462 2 8.6134999999999984e+00 2.1312885187135002e+00 3.3243024543836427e+01 0 0 0
1463 2 9.8440000000000012e+00 2.8417180249513332e+00 3.3243024543836427e+01 0 0 0
1464 2 9.8440000000000012e+00 0.0000000000000000e+00 3.3243024543836427e+01 0 0 0
1465 2 1.1074500000000002e+01 7.1042950623783330e-01 3.3243024543836427e+01 0 0 0
1485 2 1.1074500000000002e+01 2.1312885187135002e+00 3.3243024543836427e+01 0 0 0
1252 2 0.0000000000000000e+00 5.6834360499026637e+00 3.0031000000000041e+01 0 0 0
1253 2 0.0000000000000000e+00 4.2625770374269996e+00 3.0031000000000041e+01 0 0 0
1260 2 1.2305000000000001e+00 7.8147245686161639e+00 3.0031000000000041e+01 0 0 0
1261 2 1.2305000000000001e+00 6.3938655561404980e+00 3.0031000000000041e+01 0 0 0
1262 2 2.4610000000000003e+00 5.6834360499026637e+00 3.0031000000000041e+01 0 0 0
1263 2 2.4610000000000003e+00 4.2625770374269996e+00 3.0031000000000041e+01 0 0 0
1274 2 3.6914999999999996e+00 7.8147245686161639e+00 3.0031000000000041e+01 0 0 0
1275 2 3.6914999999999996e+00 6.3938655561404980e+00 3.0031000000000041e+01 0 0 0
1414 2 0.0000000000000000e+00 7.1042950623783341e+00 3.3243024543836427e+01 0 0 0
1415 2 0.0000000000000000e+00 4.2625770374269996e+00 3.3243024543836427e+01 0 0 0
1416 2 1.2305000000000001e+00 4.9730065436648339e+00 3.3243024543836427e+01 0 0 0
1424 2 1.2305000000000001e+00 6.3938655561404980e+00 3.3243024543836427e+01 0 0 0
1425 2 2.4610000000000003e+00 7.1042950623783341e+00 3.3243024543836427e+01 0 0 0
1426 2 2.4610000000000003e+00 4.2625770374269996e+00 3.3243024543836427e+01 0 0 0
1427 2 3.6914999999999996e+00 4.9730065436648339e+00 3.3243024543836427e+01 0 0 0
1439 2 3.6914999999999996e+00 6.3938655561404980e+00 3.3243024543836427e+01 0 0 0
1276 2 4.9220000000000006e+00 5.6834360499026637e+00 3.0031000000000041e+01 0 0 0
1277 2 4.9220000000000006e+00 4.2625770374269978e+00 3.0031000000000041e+01 0 0 0
1292 2 6.1524999999999999e+00 7.8147245686161639e+00 3.0031000000000041e+01 0 0 0
1293 2 6.1524999999999999e+00 6.3938655561404980e+00 3.0031000000000041e+01 0 0 0
1294 2 7.3829999999999991e+00 5.6834360499026637e+00 3.0031000000000041e+01 0 0 0
1295 2 7.3829999999999991e+00 4.2625770374269996e+00 3.0031000000000041e+01 0 0 0
1440 2 4.9220000000000006e+00 7.1042950623783341e+00 3.3243024543836427e+01 0 0 0
1441 2 4.9220000000000006e+00 4.2625770374269978e+00 3.3243024543836427e+01 0 0 0
1442 2 6.1524999999999999e+00 4.9730065436648339e+00 3.3243024543836427e+01 0 0 0
1458 2 6.1524999999999999e+00 6.3938655561404980e+00 3.3243024543836427e+01 0 0 0
1459 2 7.3830000000000009e+00 7.1042950623783341e+00 3.3243024543836427e+01 0 0 0
1460 2 7.3829999999999991e+00 4.2625770374269996e+00 3.3243024543836427e+01 0 0 0
1314 2 8.6135000000000002e+00 7.8147245686161639e+00 3.0031000000000041e+01 0 0 0
1315 2 8.6135000000000002e+00 6.3938655561404980e+00 3.0031000000000041e+01 0 0 0
1316 2 9.8440000000000012e+00 5.6834360499026637e+00 3.0031000000000041e+01 0 0 0
1317 2 9.8440000000000012e+00 4.2625770374270004e+00 3.0031000000000041e+01 0 0 0
1337 2 1.1074500000000002e+01 7.8147245686161639e+00 3.0031000000000041e+01 0 0 0
1338 2 1.1074500000000002e+01 6.3938655561404980e+00 3.0031000000000041e+01 0 0 0
1461 2 8.6135000000000002e+00 4.9730065436648339e+00 3.3243024543836427e+01 0 0 0
1481 2 8.6135000000000002e+00 6.3938655561404980e+00 3.3243024543836427e+01 0 0 0
1482 2 9.8440000000000012e+00 7.1042950623783341e+00 3.3243024543836427e+01 0 0 0
1483 2 9.8440000000000012e+00 4.2625770374270004e+00 3.3243024543836427e+01 0 0 0
1484 2 1.1074500000000002e+01 4.9730065436648339e+00 3.3243024543836427e+01 0 0 0
1505 2 1.1074500000000002e+01 6.3938655561404980e+00 3.3243024543836427e+01 0 0 0
1258 2 0.0000000000000000e+00 9.9460130873296642e+00 3.0031000000000041e+01 0 0 0
1259 2 0.0000000000000000e+00 8.5251540748539991e+00 3.0031000000000041e+01 0 0 0
1270 2 1.2305000000000001e+00 1.2077301606043163e+01 3.0031000000000041e+01 0 0 0
1271 2 1.2305000000000001e+00 1.0656442593567498e+01 3.0031000000000041e+01 0 0 0
1272 2 2.4610000000000003e+00 9.9460130873296642e+00 3.0031000000000041e+01 0 0 0
1273 2 2.4610000000000003e+00 8.5251540748539991e+00 3.0031000000000041e+01 0 0 0
1288 2 3.6914999999999996e+00 1.2077301606043163e+01 3.0031000000000041e+01 0 0 0
1289 2 3.6914999999999996e+00 1.0656442593567499e+01 3.0031000000000041e+01 0 0 0
1421 2 0.0000000000000000e+00 1.1366872099805333e+01 3.3243024543836427e+01 0 0 0
1422 2 0.0000000000000000e+00 8.5251540748539991e+00 3.3243024543836427e+01 0 0 0
1423 2 1.2305000000000001e+00 9.2355835810918343e+00 3.3243024543836427e+01 0 0 0
1435 2 1.2305000000000001e+00 1.0656442593567498e+01 3.3243024543836427e+01 0 0 0
1436 2 2.4610000000000003e+00 1.1366872099805333e+01 3.3243024543836427e+01 0 0 0
1437 2 2.4610000000000003e+00 8.5251540748539991e+00 3.3243024543836427e+01 0 0 0
1438 2 3.6915000000000004e+00 9.2355835810918343e+00 3.3243024543836427e+01 0 0 0
1454 2 3.6914999999999996e+00 1.0656442593567499e+01 3.3243024543836427e+01 0 0 0
1290 2 4.9220000000000006e+00 9.9460130873296642e+00 3.0031000000000041e+01 0 0 0
1291 2 4.9220000000000006e+00 8.5251540748539991e+00 3.0031000000000041e+01 0 0 0
1310 2 6.1524999999999999e+00 1.2077301606043163e+01 3.0031000000000041e+01 0 0 0
1311 2 6.1524999999999999e+00 1.0656442593567499e+01 3.0031000000000041e+01 0 0 0
1312 2 7.3830000000000009e+00 9.9460130873296642e+00 3.0031000000000041e+01 0 0 0
1313 2 7.3830000000000009e+00 8.5251540748539991e+00 3.0031000000000041e+01 0 0 0
1455 2 4.9220000000000006e+00 1.1366872099805333e+01 3.3243024543836427e+01 0 0 0
1456 2 4.9220000000000006e+00 8.5251540748539991e+00 3.3243024543836427e+01 0 0 0
1457 2 6.1524999999999999e+00 9.2355835810918343e+00 3.3243024543836427e+01 0 0 0
1477 2 6.1524999999999999e+00 1.0656442593567499e+01 3.3243024543836427e+01 0 0 0
1478 2 7.3829999999999991e+00 1.1366872099805333e+01 3.3243024543836427e+01 0 0 0
1479 2 7.3830000000000009e+00 8.5251540748539991e+00 3.3243024543836427e+01 0 0 0
1333 2 8.6135000000000002e+00 1.2077301606043163e+01 3.0031000000000041e+01 0 0 0
1334 2 8.6134999999999984e+00 1.0656442593567498e+01 3.0031000000000041e+01 0 0 0
1335 2 9.8440000000000012e+00 9.9460130873296642e+00 3.0031000000000041e+01 0 0 0
1336 2 9.8440000000000012e+00 8.5251540748539956e+00 3.0031000000000041e+01 0 0 0
1356 2 1.1074500000000002e+01 1.2077301606043163e+01 3.0031000000000041e+01 0 0 0
1357 2 1.1074500000000002e+01 1.0656442593567498e+01 3.0031000000000041e+01 0 0 0
1480 2 8.6134999999999984e+00 9.2355835810918343e+00 3.3243024543836427e+01 0 0 0
1501 2 8.6134999999999984e+00 1.0656442593567498e+01 3.3243024543836427e+01 0 0 0
1502 2 9.8440000000000012e+00 1.1366872099805333e+01 3.3243024543836427e+01 0 0 0
1503 2 9.8440000000000012e+00 8.5251540748539956e+00 3.3243024543836427e+01 0 0 0
1504 2 1.1074500000000002e+01 9.2355835810918343e+00 3.3243024543836427e+01 0 0 0
1525 2 1.1074500000000002e+01 1.0656442593567498e+01 3.3243024543836427e+01 0 0 0
1526 2 1.2304999999999998e+01 1.1366872099805333e+01 3.3243024543836427e+01 0 0 0
148 1 5.9967615827231304e+00 7.6373689053111766e+00 4.0855203193727533e+01 0 1 -1
1111 1 6.5524631925487435e+00 3.9980605037175874e+00 3.5805014456238155e+01 -1 2 0
285 1 3.8950537628393822e+00 4.0985125598430523e+00 3.9833939091513031e+01 1 0 -1
831 1 3.3136670148148162e+00 1.8997080477910228e-01 4.2100634149560548e+01 0 0 -1
1143 1 5.0732364839701241e+00 2.2527697077767517e+00 3.7308388588052324e+01 0 -1 -1
5544 1 9.1531402481313044e+00 3.0092813151389066e+00 3.5840702170845844e+01 -1 2 -1
5087 1 1.9442253362473658e+00 2.4376389272757866e+00 4.0491275241845983e+01 1 1 0
5805 1 1.1668865990523550e+01 3.0672377534085586e+00 3.5647185749628690e+01 0 1 -1
5433 1 9.2372118414491702e+00 2.0758381503527596e+00 3.8317571936987974e+01 1 0 -1
3385 1 3.6445723980916811e+00 1.1263456475271244e+01 3.9936051060387371e+01 1 1 0
6291 1 2.7311636138665656e+00 3.2235164433757184e+00 3.6859506294413791e+01 2 1 0
1932 1 8.7293185080302642e+00 8.2874379462547960e+00 4.3871641034971901e+01 1 1 -1
1712 1 1.1741568309213724e+01 1.1189251683630500e+01 4.2775205370699368e+01 0 2 0
5346 1 3.7094054659163822e+00 8.2824140957720118e+00 3.6159972200133936e+01 1 -1 -1
2701 1 1.4903024969653638e+00 5.9759098307372520e+00 3.9034226171053064e+01 2 0 0
4572 1 6.2540994921467847e+00 6.5566638563603306e+00 3.6293948226493384e+01 2 1 0
3590 1 6.8410319347463986e+00 5.9204973388313515e+00 3.9248207055063062e+01 1 -1 -1
5405 1 8.4865490439696636e+00 8.4649607061791059e+00 3.5711477109346831e+01 1 0 -1
3554 1 1.0972951767785670e+01 7.8336323849047993e+00 3.6669635434531585e+01 1 1 -1
2137 1 1.0398755005478566e+01 2.0206247982020087e+00 4.3118904162561179e+01 0 0 -1
478 1 3.6421242719037488e+00 8.6563076561379955e+00 3.8925768734562851e+01 1 1 -1
773 1 3.8344294617962427e+00 1.1077776984219394e+01 3.5633070032303664e+01 0 1 0
5879 1 6.7742735255635882e+00 1.4282950203114326e+00 3.9357787721470004e+01 0 1 0
4129 1 1.1179854005071784e+01 1.1982798091434141e+01 3.6581258487542812e+01 1 1 0
2705 1 8.5176168009244382e+00 1.1044644086018540e+01 3.6581097321452376e+01 0 0 0
5949 1 8.4568280667457341e+00 1.0268056783559715e+01 3.9438678024420526e+01 0 0 0
6191 1 4.7227027596847151e+00 9.6638274184883333e+00 4.3936409451859603e+01 1 0 0
4307 1 1.1469248926704665e+01 7.2867427020404669e+00 4.0868024096000596e+01 0 0 0
6307 1 1.1534136754072209e+01 1.4382196000804093e+00 3.9201742300105920e+01 0 0 -1
757 1 4.6145326747478954e+00 3.0271083944826036e+00 4.3728314736156292e+01 -1 2 0
1161 1 7.1981486392328513e+00 9.6232865985965432e+00 4.2149008840789946e+01 1 1 -1
741 1 9.1366482677753140e+00 3.9972449506341259e+00 4.2190687739390839e+01 -1 -1 0
3642 1 1.1014821593318841e+01 1.2051481347116425e+01 3.9314867865141963e+01 2 1 -1
830 1 1.9233694242757200e+00 5.8563642237856177e+00 3.6189731115640683e+01 0 1 0
1711 1 6.3048481935935072e+00 3.3461163445646758e+00 4.1347611221718594e+01 0 1 0
4221 1 4.4701227038141687e+00 6.1265043846359610e+00 4.2403055875762405e+01 1 0 0
4484 1 9.5024207857530385e+00 7.9822009918578249e+00 3.9069039384004739e+01 0 2 0
1166 1 1.0543819065090567e+01 6.1465147738495984e+00 4.3244543725449262e+01 1 1 0
399 1 9.3183300533356839e+00 4.4025376517361554e+00 3.9507552125820425e+01 0 0 -1
1144 1 1.7432097738195340e+00 3.6237458108848721e+00 4.3895389003505031e+01 -1 0 0
375 1 2.1537894872393775e+00 7.0860717586209203e+00 4.1466575583445021e+01 0 0 -1
794 1 2.2880630001601943e+00 1.0022900657749457e+01 4.2287448148309721e+01 0 0 -1
2057 1 5.2234375739042127e-01 1.1533164805951024e+01 4.4475118294029571e+01 0 0 -1
2030 1 5.3928140673691549e-01 1.2622730019693531e+00 3.6486895026183774e+01 2 -1 -1
5439 1 6.0318404181443439e+00 2.3193198525693901e-01 4.3249743205386778e+01 1 0 -1
3807 1 1.1920017401151425e+01 5.0618748064536581e+00 3.8885545470894186e+01 1 1 -1
6182 1 7.1479120130321929e+00 1.2046169270887896e+01 4.2648084176739076e+01 0 1 0
2439 1 6.3474161917319591e+00 1.2016106074677003e+01 3.9595247274408052e+01 0 1 0
2569 1 4.1768481192019387e+00 1.1243824001867786e+00 4.8016318805136393e+01 -1 1 0
4518 1 5.2895823077547801e+00 3.2546890210969619e+00 4.6496760043320435e+01 1 2 0
2501 1 8.3386796071333116e+00 2.1910130696867975e+00 4.7404418619925252e+01 0 0 0
2681 1 8.3581673901615083e+00 7.0517340746646262e+00 5.8050321887510108e+01 -1 1 0
217 1 9.6929759556028738e+00 1.3623978473220850e+00 5.0273360664274392e+01 2 -2 -1
2806 1 1.0786596491618694e+01 2.6125160983934546e+00 4.6042205172431537e+01 -1 1 -1
4391 1 4.7567633791940143e+00 8.7307764916271662e+00 5.8787278708563747e+01 0 0 0
3 1 1.9301165557103204e+00 9.2732333434467655e+00 4.5636794711899199e+01 1 1 0
2068 1 2.3745346042074988e+00 9.5370791191312829e+00 4.8266832039902042e+01 0 1 -1
4545 1 3.6920779728521649e+00 5.4990372155672178e+00 4.6836408614980286e+01 1 1 0