LAMMPS data file via write_data, version 16 Mar 2018, timestep = 8000000

4560 atoms
2 atom types

0.0000000000000000e+00 4.9219999999999999e+01 xlo xhi
0.0000000000000000e+00 4.9019635930410494e+01 ylo yhi
7.2998845261808398e-01 3.3210011547375657e+01 zlo zhi

Masses

1 18.015
2 12.01

Atoms # atomic

147 2 0.0000000000000000e+00 2.8417180249513345e+00 2.8830733850284380e+00 0 0 0
149 2 0.0000000000000000e+00 0.0000000000000000e+00 2.8830733850284380e+00 0 0 0
151 2 1.2305000000000001e+00 7.1042950623783474e-01 2.8830733850284380e+00 0 0 0
158 2 1.2305000000000001e+00 2.1312885187134998e+00 2.8830733850284380e+00 0 0 0
160 2 2.4610000000000003e+00 2.8417180249513345e+00 2.8830733850284380e+00 0 0 0
162 2 2.4610000000000003e+00 0.0000000000000000e+00 2.8830733850284380e+00 0 0 0
164 2 3.6915000000000004e+00 7.1042950623783474e-01 2.8830733850284380e+00 0 0 0
179 2 3.6914999999999996e+00 2.1312885187134998e+00 2.8830733850284380e+00 0 0 0
181 2 4.9220000000000006e+00 2.8417180249513332e+00 2.8830733850284380e+00 0 0 0
183 2 4.9220000000000006e+00 0.0000000000000000e+00 2.8830733850284380e+00 0 0 0
185 2 6.1524999999999999e+00 7.1042950623783407e-01 2.8830733850284380e+00 0 0 0
208 2 6.1524999999999999e+00 2.1312885187134989e+00 2.8830733850284380e+00 0 0 0
210 2 7.3829999999999991e+00 2.8417180249513345e+00 2.8830733850284380e+00 0 0 0
212 2 7.3829999999999991e+00 0.0000000000000000e+00 2.8830733850284380e+00 0 0 0
214 2 8.6134999999999984e+00 7.1042950623783407e-01 2.8830733850284380e+00 0 0 0
245 2 8.6134999999999984e+00 2.1312885187135002e+00 2.8830733850284380e+00 0 0 0
247 2 9.8440000000000012e+00 2.8417180249513332e+00 2.8830733850284380e+00 0 0 0
249 2 9.8440000000000012e+00 0.0000000000000000e+00 2.8830733850284380e+00 0 0 0
251 2 1.1074500000000002e+01 7.1042950623783330e-01 2.8830733850284380e+00 0 0 0
290 2 1.1074500000000002e+01 2.1312885187135002e+00 2.8830733850284380e+00 0 0 0
154 2 0.0000000000000000e+00 4.2625770374269996e+00 2.8830733850284380e+00 0 0 0
156 2 1.2305000000000001e+00 4.9730065436648339e+00 2.8830733850284380e+00 0 0 0
171 2 1.2305000000000001e+00 6.3938655561404980e+00 2.8830733850284380e+00 0 0 0
175 2 2.4610000000000003e+00 4.2625770374269996e+00 2.8830733850284380e+00 0 0 0
177 2 3.6914999999999996e+00 4.9730065436648339e+00 2.8830733850284380e+00 0 0 0
200 2 3.6914999999999996e+00 6.3938655561404980e+00 2.8830733850284380e+00 0 0 0
152 2 0.0000000000000000e+00 7.1042950623783341e+00 2.8830733850284380e+00 0 0 0
173 2 2.4610000000000003e+00 7.1042950623783341e+00 2.8830733850284380e+00 0 0 0
204 2 4.9220000000000006e+00 4.2625770374269978e+00 2.8830733850284380e+00 0 0 0
206 2 6.1524999999999999e+00 4.9730065436648339e+00 2.8830733850284380e+00 0 0 0
237 2 6.1524999999999999e+00 6.3938655561404980e+00 2.8830733850284380e+00 0 0 0
241 2 7.3829999999999991e+00 4.2625770374269996e+00 2.8830733850284380e+00 0 0 0
202 2 4.9220000000000006e+00 7.1042950623783341e+00 2.8830733850284380e+00 0 0 0
239 2 7.3830000000000009e+00 7.1042950623783341e+00 2.8830733850284380e+00 0 0 0
243 2 8.6135000000000002e+00 4.9730065436648339e+00 2.8830733850284380e+00 0 0 0
282 2 8.6135000000000002e+00 6.3938655561404980e+00 2.8830733850284380e+00 0 0 0
286 2 9.8440000000000012e+00 4.2625770374270004e+00 2.8830733850284380e+00 0 0 0
288 2 1.1074500000000002e+01 4.9730065436648339e+00 2.8830733850284380e+00 0 0 0
329 2 1.1074500000000002e+01 6.3938655561404980e+00 2.8830733850284380e+00 0 0 0
284 2 9.8440000000000012e+00 7.1042950623783341e+00 2.8830733850284380e+00 0 0 0
167 2 0.0000000000000000e+00 8.5251540748539991e+00 2.8830733850284380e+00 0 0 0
169 2 1.2305000000000001e+00 9.2355835810918343e+00 2.8830733850284380e+00 0 0 0
196 2 2.4610000000000003e+00 8.5251540748539991e+00 2.8830733850284380e+00 0 0 0
198 2 3.6915000000000004e+00 9.2355835810918343e+00 2.8830733850284380e+00 0 0 0
165 2 0.0000000000000000e+00 1.1366872099805333e+01 2.8830733850284380e+00 0 0 0
192 2 1.2305000000000001e+00 1.0656442593567498e+01 2.8830733850284380e+00 0 0 0
194 2 2.4610000000000003e+00 1.1366872099805333e+01 2.8830733850284380e+00 0 0 0
229 2 3.6914999999999996e+00 1.0656442593567499e+01 2.8830733850284380e+00 0 0 0
233 2 4.9220000000000006e+00 8.5251540748539991e+00 2.8830733850284380e+00 0 0 0
235 2 6.1524999999999999e+00 9.2355835810918343e+00 2.8830733850284380e+00 0 0 0
278 2 7.3830000000000009e+00 8.5251540748539991e+00 2.8830733850284380e+00 0 0 0
231 2 4.9220000000000006e+00 1.1366872099805333e+01 2.8830733850284380e+00 0 0 0
274 2 6.1524999999999999e+00 1.0656442593567499e+01 2.8830733850284380e+00 0 0 0
276 2 7.3829999999999991e+00 1.1366872099805333e+01 2.8830733850284380e+00 0 0 0
280 2 8.6134999999999984e+00 9.2355835810918343e+00 2.8830733850284380e+00 0 0 0
325 2 9.8440000000000012e+00 8.5251540748539956e+00 2.8830733850284380e+00 0 0 0
327 2 1.1074500000000002e+01 9.2355835810918343e+00 2.8830733850284380e+00 0 0 0
321 2 8.6134999999999984e+00 1.0656442593567498e+01 2.8830733850284380e+00 0 0 0
323 2 9.8440000000000012e+00 1.1366872099805333e+01 2.8830733850284380e+00 0 0 0
368 2 1.1074500000000002e+01 1.0656442593567498e+01 2.8830733850284380e+00 0 0 0
370 2 1.2304999999999998e+01 1.1366872099805333e+01 2.8830733850284380e+00 0 0 0
148 2 0.0000000000000000e+00 1.4208590124756650e+00 5.9725621620227827e+00 0 0 0
150 2 0.0000000000000000e+00 0.0000000000000000e+00 5.9725621620227827e+00 0 0 0
159 2 1.2305000000000001e+00 2.1312885187134998e+00 5.9725621620227827e+00 0 0 0
161 2 2.4610000000000003e+00 1.4208590124756650e+00 5.9725621620227827e+00 0 0 0
163 2 2.4610000000000003e+00 0.0000000000000000e+00 5.9725621620227827e+00 0 0 0
180 2 3.6914999999999996e+00 2.1312885187134998e+00 5.9725621620227827e+00 0 0 0
157 2 1.2305000000000001e+00 3.5521475311891644e+00 5.9725621620227827e+00 0 0 0
178 2 3.6914999999999996e+00 3.5521475311891644e+00 5.9725621620227827e+00 0 0 0
182 2 4.9220000000000006e+00 1.4208590124756650e+00 5.9725621620227827e+00 0 0 0
184 2 4.9220000000000006e+00 0.0000000000000000e+00 5.9725621620227827e+00 0 0 0
209 2 6.1524999999999999e+00 2.1312885187134989e+00 5.9725621620227827e+00 0 0 0
211 2 7.3829999999999991e+00 1.4208590124756659e+00 5.9725621620227827e+00 0 0 0
213 2 7.3829999999999991e+00 0.0000000000000000e+00 5.9725621620227827e+00 0 0 0
207 2 6.1524999999999999e+00 3.5521475311891644e+00 5.9725621620227827e+00 0 0 0
246 2 8.6134999999999984e+00 2.1312885187135002e+00 5.9725621620227827e+00 0 0 0
248 2 9.8440000000000012e+00 1.4208590124756659e+00 5.9725621620227827e+00 0 0 0
250 2 9.8440000000000012e+00 0.0000000000000000e+00 5.9725621620227827e+00 0 0 0
291 2 1.1074500000000002e+01 2.1312885187135002e+00 5.9725621620227827e+00 0 0 0
244 2 8.6134999999999984e+00 3.5521475311891657e+00 5.9725621620227827e+00 0 0 0
289 2 1.1074500000000002e+01 3.5521475311891644e+00 5.9725621620227827e+00 0 0 0
153 2 0.0000000000000000e+00 5.6834360499026637e+00 5.9725621620227827e+00 0 0 0
155 2 0.0000000000000000e+00 4.2625770374269996e+00 5.9725621620227827e+00 0 0 0
172 2 1.2305000000000001e+00 6.3938655561404980e+00 5.9725621620227827e+00 0 0 0
174 2 2.4610000000000003e+00 5.6834360499026637e+00 5.9725621620227827e+00 0 0 0
176 2 2.4610000000000003e+00 4.2625770374269996e+00 5.9725621620227827e+00 0 0 0
201 2 3.6914999999999996e+00 6.3938655561404980e+00 5.9725621620227827e+00 0 0 0
170 2 1.2305000000000001e+00 7.8147245686161639e+00 5.9725621620227827e+00 0 0 0
199 2 3.6914999999999996e+00 7.8147245686161639e+00 5.9725621620227827e+00 0 0 0
203 2 4.9220000000000006e+00 5.6834360499026637e+00 5.9725621620227827e+00 0 0 0
205 2 4.9220000000000006e+00 4.2625770374269978e+00 5.9725621620227827e+00 0 0 0
238 2 6.1524999999999999e+00 6.3938655561404980e+00 5.9725621620227827e+00 0 0 0
240 2 7.3829999999999991e+00 5.6834360499026637e+00 5.9725621620227827e+00 0 0 0
242 2 7.3829999999999991e+00 4.2625770374269996e+00 5.9725621620227827e+00 0 0 0
236 2 6.1524999999999999e+00 7.8147245686161639e+00 5.9725621620227827e+00 0 0 0
283 2 8.6135000000000002e+00 6.3938655561404980e+00 5.9725621620227827e+00 0 0 0
285 2 9.8440000000000012e+00 5.6834360499026637e+00 5.9725621620227827e+00 0 0 0
287 2 9.8440000000000012e+00 4.2625770374270004e+00 5.9725621620227827e+00 0 0 0
330 2 1.1074500000000002e+01 6.3938655561404980e+00 5.9725621620227827e+00 0 0 0
281 2 8.6135000000000002e+00 7.8147245686161639e+00 5.9725621620227827e+00 0 0 0
328 2 1.1074500000000002e+01 7.8147245686161639e+00 5.9725621620227827e+00 0 0 0
166 2 0.0000000000000000e+00 9.9460130873296642e+00 5.9725621620227827e+00 0 0 0
168 2 0.0000000000000000e+00 8.5251540748539991e+00 5.9725621620227827e+00 0 0 0
195 2 2.4610000000000003e+00 9.9460130873296642e+00 5.9725621620227827e+00 0 0 0
197 2 2.4610000000000003e+00 8.5251540748539991e+00 5.9725621620227827e+00 0 0 0
191 2 1.2305000000000001e+00 1.2077301606043163e+01 5.9725621620227827e+00 0 0 0
193 2 1.2305000000000001e+00 1.0656442593567498e+01 5.9725621620227827e+00 0 0 0
228 2 3.6914999999999996e+00 1.2077301606043163e+01 5.9725621620227827e+00 0 0 0
230 2 3.6914999999999996e+00 1.0656442593567499e+01 5.9725621620227827e+00 0 0 0
232 2 4.9220000000000006e+00 9.9460130873296642e+00 5.9725621620227827e+00 0 0 0
234 2 4.9220000000000006e+00 8.5251540748539991e+00 5.9725621620227827e+00 0 0 0
277 2 7.3830000000000009e+00 9.9460130873296642e+00 5.9725621620227827e+00 0 0 0
279 2 7.3830000000000009e+00 8.5251540748539991e+00 5.9725621620227827e+00 0 0 0
273 2 6.1524999999999999e+00 1.2077301606043163e+01 5.9725621620227827e+00 0 0 0
275 2 6.1524999999999999e+00 1.0656442593567499e+01 5.9725621620227827e+00 0 0 0
367 2 1.1074500000000002e+01 1.2077301606043163e+01 5.9725621620227827e+00 0 0 0
324 2 9.8440000000000012e+00 9.9460130873296642e+00 5.9725621620227827e+00 0 0 0
326 2 9.8440000000000012e+00 8.5251540748539956e+00 5.9725621620227827e+00 0 0 0
320 2 8.6135000000000002e+00 1.2077301606043163e+01 5.9725621620227827e+00 0 0 0
369 2 1.1074500000000002e+01 1.0656442593567498e+01 5.9725621620227827e+00 0 0 0
322 2 8.6134999999999984e+00 1.0656442593567498e+01 5.9725621620227827e+00 0 0 0
3189 1 1.0856777349887752e+01 1.0339038803046558e+01 7.3672646031109024e-01 1 0 0
3499 1 2.1186652174002071e-01 6.3781725122903978e+00 8.0873647374213908e-01 -3 -1 0
3360 1 4.4537328510925978e+00 6.2286114889174744e+00 7.5886193840745342e-01 0 1 0
476 2 0.0000000000000000e+00 2.8417180249513345e+00 9.0620509390198407e+00 0 0 0
477 2 0.0000000000000000e+00 0.0000000000000000e+00 9.0620509390198407e+00 0 0 0
478 2 1.2305000000000001e+00 7.1042950623783474e-01 9.0620509390198407e+00 0 0 0
482 2 1.2305000000000001e+00 2.1312885187134998e+00 9.0620509390198407e+00 0 0 0
483 2 2.4610000000000003e+00 2.8417180249513345e+00 9.0620509390198407e+00 0 0 0
484 2 2.4610000000000003e+00 0.0000000000000000e+00 9.0620509390198407e+00 0 0 0
485 2 3.6915000000000004e+00 7.1042950623783474e-01 9.0620509390198407e+00 0 0 0
493 2 3.6914999999999996e+00 2.1312885187134998e+00 9.0620509390198407e+00 0 0 0
3252 1 8.7521506971420360e-01 1.6447927322199731e+00 1.1412337445604628e+01 2 0 0
28 1 3.2501316161996425e+00 3.0677516357165611e+00 1.1801446037064576e+01 -3 0 0
494 2 4.9220000000000006e+00 2.8417180249513332e+00 9.0620509390198407e+00 0 0 0
495 2 4.9220000000000006e+00 0.0000000000000000e+00 9.0620509390198407e+00 0 0 0
496 2 6.1524999999999999e+00 7.1042950623783407e-01 9.0620509390198407e+00 0 0 0
508 2 6.1524999999999999e+00 2.1312885187134989e+00 9.0620509390198407e+00 0 0 0
509 2 7.3829999999999991e+00 2.8417180249513345e+00 9.0620509390198407e+00 0 0 0
510 2 7.3829999999999991e+00 0.0000000000000000e+00 9.0620509390198407e+00 0 0 0
2097 1 5.7243120039520576e+00 1.8459060673001315e+00 1.1848248929978082e+01 -1 2 -1
929 1 8.4268217494451019e+00 3.3281147698940083e+00 1.2052929368319216e+01 -1 2 0
511 2 8.6134999999999984e+00 7.1042950623783407e-01 9.0620509390198407e+00 0 0 0
527 2 8.6134999999999984e+00 2.1312885187135002e+00 9.0620509390198407e+00 0 0 0
528 2 9.8440000000000012e+00 2.8417180249513332e+00 9.0620509390198407e+00 0 0 0
529 2 9.8440000000000012e+00 0.0000000000000000e+00 9.0620509390198407e+00 0 0 0
530 2 1.1074500000000002e+01 7.1042950623783330e-01 9.0620509390198407e+00 0 0 0
550 2 1.1074500000000002e+01 2.1312885187135002e+00 9.0620509390198407e+00 0 0 0
4328 1 1.0997926689850230e+01 2.2450503924629084e+00 1.1697121077797579e+01 1 3 0
480 2 0.0000000000000000e+00 4.2625770374269996e+00 9.0620509390198407e+00 0 0 0
481 2 1.2305000000000001e+00 4.9730065436648339e+00 9.0620509390198407e+00 0 0 0
489 2 1.2305000000000001e+00 6.3938655561404980e+00 9.0620509390198407e+00 0 0 0
491 2 2.4610000000000003e+00 4.2625770374269996e+00 9.0620509390198407e+00 0 0 0
492 2 3.6914999999999996e+00 4.9730065436648339e+00 9.0620509390198407e+00 0 0 0
504 2 3.6914999999999996e+00 6.3938655561404980e+00 9.0620509390198407e+00 0 0 0
479 2 0.0000000000000000e+00 7.1042950623783341e+00 9.0620509390198407e+00 0 0 0
490 2 2.4610000000000003e+00 7.1042950623783341e+00 9.0620509390198407e+00 0 0 0
4330 1 1.3195434595759334e+00 6.9474012851233189e+00 1.1790457511043373e+01 2 0 0
835 1 3.6174452014830965e+00 5.8806607727198035e+00 1.2106016744394253e+01 1 1 0
4266 1 6.1352777705819141e+00 7.1734246907563026e+00 1.1834757534021866e+01 3 3 0
506 2 4.9220000000000006e+00 4.2625770374269978e+00 9.0620509390198407e+00 0 0 0
507 2 6.1524999999999999e+00 4.9730065436648339e+00 9.0620509390198407e+00 0 0 0
523 2 6.1524999999999999e+00 6.3938655561404980e+00 9.0620509390198407e+00 0 0 0
525 2 7.3829999999999991e+00 4.2625770374269996e+00 9.0620509390198407e+00 0 0 0
505 2 4.9220000000000006e+00 7.1042950623783341e+00 9.0620509390198407e+00 0 0 0
524 2 7.3830000000000009e+00 7.1042950623783341e+00 9.0620509390198407e+00 0 0 0
4244 1 8.7430308035281978e+00 6.0788966087264766e+00 1.1815563660263678e+01 0 0 0
526 2 8.6135000000000002e+00 4.9730065436648339e+00 9.0620509390198407e+00 0 0 0
546 2 8.6135000000000002e+00 6.3938655561404980e+00 9.0620509390198407e+00 0 0 0
548 2 9.8440000000000012e+00 4.2625770374270004e+00 9.0620509390198407e+00 0 0 0
549 2 1.1074500000000002e+01 4.9730065436648339e+00 9.0620509390198407e+00 0 0 0
570 2 1.1074500000000002e+01 6.3938655561404980e+00 9.0620509390198407e+00 0 0 0
547 2 9.8440000000000012e+00 7.1042950623783341e+00 9.0620509390198407e+00 0 0 0
1233 1 1.1401099936889045e+01 7.5629434916070002e+00 1.1955897726650790e+01 -1 4 0
487 2 0.0000000000000000e+00 8.5251540748539991e+00 9.0620509390198407e+00 0 0 0
488 2 1.2305000000000001e+00 9.2355835810918343e+00 9.0620509390198407e+00 0 0 0
502 2 2.4610000000000003e+00 8.5251540748539991e+00 9.0620509390198407e+00 0 0 0
503 2 3.6915000000000004e+00 9.2355835810918343e+00 9.0620509390198407e+00 0 0 0
486 2 0.0000000000000000e+00 1.1366872099805333e+01 9.0620509390198407e+00 0 0 0
500 2 1.2305000000000001e+00 1.0656442593567498e+01 9.0620509390198407e+00 0 0 0
501 2 2.4610000000000003e+00 1.1366872099805333e+01 9.0620509390198407e+00 0 0 0
519 2 3.6914999999999996e+00 1.0656442593567499e+01 9.0620509390198407e+00 0 0 0
910 1 1.3043286710453017e+00 9.5204398487083015e+00 1.1801096569019276e+01 2 -2 -1
975 1 3.9434965312461787e+00 1.1145759731105835e+01 1.1515641706345431e+01 0 -1 0
3541 1 6.3785765810159702e+00 9.8939380065327729e+00 1.1938025693550156e+01 1 2 0
521 2 4.9220000000000006e+00 8.5251540748539991e+00 9.0620509390198407e+00 0 0 0
522 2 6.1524999999999999e+00 9.2355835810918343e+00 9.0620509390198407e+00 0 0 0
544 2 7.3830000000000009e+00 8.5251540748539991e+00 9.0620509390198407e+00 0 0 0
520 2 4.9220000000000006e+00 1.1366872099805333e+01 9.0620509390198407e+00 0 0 0
542 2 6.1524999999999999e+00 1.0656442593567499e+01 9.0620509390198407e+00 0 0 0
543 2 7.3829999999999991e+00 1.1366872099805333e+01 9.0620509390198407e+00 0 0 0
545 2 8.6134999999999984e+00 9.2355835810918343e+00 9.0620509390198407e+00 0 0 0
568 2 9.8440000000000012e+00 8.5251540748539956e+00 9.0620509390198407e+00 0 0 0
569 2 1.1074500000000002e+01 9.2355835810918343e+00 9.0620509390198407e+00 0 0 0
566 2 8.6134999999999984e+00 1.0656442593567498e+01 9.0620509390198407e+00 0 0 0
567 2 9.8440000000000012e+00 1.1366872099805333e+01 9.0620509390198407e+00 0 0 0
590 2 1.1074500000000002e+01 1.0656442593567498e+01 9.0620509390198407e+00 0 0 0
591 2 1.2304999999999998e+01 1.1366872099805333e+01 9.0620509390198407e+00 0 0 0
956 1 1.1140562264696900e+01 1.0143049169294896e+01 1.1521898452391257e+01 1 -1 0
2237 1 8.8949045781464822e+00 1.1268751806065557e+01 1.1782820142850756e+01 0 0 0
827 1 9.0809225753031808e-01 1.4946996727492785e+00 1.4191072985049711e+01 1 0 -1
1107 1 3.3564588712685173e+00 3.2843529495236936e+00 1.4613602856018961e+01 -1 0 0
3460 1 6.1760635379156659e+00 1.9426780872838054e+00 1.4774763314150302e+01 0 1 0
2080 1 8.7426735605377068e+00 3.5729833491443972e+00 1.5025528059841539e+01 0 -2 0
2228 1 1.1018065585632410e+01 2.0575098667915164e+00 1.5050176408923562e+01 1 2 0
3161 1 5.5508567722401680e-01 7.3322735521097604e+00 1.5129113245666549e+01 0 2 0
1308 1 3.2289957858866556e+00 6.0896101848366930e+00 1.4991126338852450e+01 2 3 1
107 1 6.1942742865411136e+00 7.2050617479245016e+00 1.4751143381338313e+01 -1 -1 0
2298 1 8.8408205984981159e+00 6.2521802812606131e+00 1.4903302439910354e+01 3 -3 0
97 1 1.1590205223587867e+01 7.7081374604530133e+00 1.4661759549827348e+01 -2 4 0
3261 1 1.0303326670837314e+00 1.0082828000532743e+01 1.4784990812696128e+01 0 0 -1
3217 1 3.6770436878422985e+00 1.1389927601176383e+01 1.4579153170162106e+01 -2 2 -1
2193 1 6.1957004394607837e+00 9.9740616830970854e+00 1.4855717140976395e+01 0 -1 0
2349 1 1.1485160621793442e+01 1.0243955473993447e+01 1.5613585343534931e+01 0 1 0
4558 1 8.8626217014138149e+00 1.1166032238832400e+01 1.4579072574918314e+01 2 0 -1
3224 1 2.5679776646113592e+00 2.3834644746152125e+00 1.7319389524344079e+01 3 2 -1
4288 1 2.0408780669432364e-01 1.2084582896228152e+01 2.2426274211995803e+01 1 1 0
1141 1 7.1180250719376987e+00 2.6487523161383875e+00 1.7578269017550888e+01 2 0 -1
3380 1 4.9359349985020753e+00 1.6147287127094192e+00 1.8584973358242671e+01 0 0 0
1108 1 1.1505384225041057e+01 2.6876298651939949e+00 1.7939485427639333e+01 2 2 0
3516 1 9.3598005869482463e+00 1.3496619516470607e+00 1.8836779896958738e+01 1 2 0
3176 1 2.4704247345049204e+00 5.2122008515362319e+00 1.8324409737153982e+01 1 -1 0
4360 1 9.2263242196709547e-02 6.6702726191407002e+00 1.7934999496459245e+01 2 2 1
3404 1 4.6296118139933951e+00 6.7264915986971605e+00 1.7444234535716539e+01 4 2 0
930 1 6.7733375858162557e+00 5.2575830952560558e+00 1.8563105141451377e+01 2 0 -1
2239 1 1.1163857844415531e+01 5.2110909398953602e+00 1.8866096087901457e+01 0 3 -1
4411 1 9.1958695467705152e+00 6.7279811508940917e+00 1.7658580340585758e+01 0 -1 0
947 1 2.3422017077070127e+00 1.0681004004141972e+01 1.7414463475390502e+01 -2 0 -1
3517 1 8.5177922025458944e-02 3.6725184300533793e+00 2.4950785395004893e+01 -2 -2 0
3311 1 4.7203970769291930e+00 9.3012077466937111e+00 1.8652061897807510e+01 1 0 0
3439 1 4.3881060400754217e+00 3.6874749438345540e+00 2.4769889834129263e+01 1 1 -1
3562 1 4.7355510809214154e+00 9.2615195480440047e+00 2.1525899249104796e+01 0 0 0
4368 1 9.0633930609468027e+00 9.2265620593138529e+00 1.8902365685600312e+01 0 -1 0
3414 1 1.1263177817897315e+01 1.0407189797220727e+01 1.8278784954841612e+01 1 -3 -1
1028 1 9.1168851967120510e+00 9.0020499701220782e+00 2.1447498564280231e+01 -1 1 0
2134 1 4.7326052875892204e+00 1.1202501750649780e+00 2.1087284683192653e+01 -4 3 0
1060 1 4.3919385129291912e+00 3.9673408022227661e+00 2.1930650799938196e+01 1 -1 0
1980 1 9.0406703010974478e+00 1.1996685607235211e+00 2.1602253125594036e+01 4 -4 0
1080 1 8.8463287342864820e+00 3.8465427912593442e+00 2.2526955926887005e+01 -1 0 0
2213 1 1.1399188526087233e+01 7.5331922485034370e+00 2.2214628223918520e+01 2 0 -1
3586 1 2.3163515405004609e+00 5.2933683254960444e+00 2.1236993569524120e+01 -1 2 0
3370 1 2.3668912930435195e+00 8.0213228224889637e+00 2.2280132275921350e+01 1 -2 0
2439 1 8.8261571458185468e+00 1.1587384011062394e+01 2.2723316245041339e+01 2 2 0
1241 1 6.8079342280355650e+00 5.0714642758775872e+00 2.1242585149731017e+01 4 -1 0
1973 1 6.8785267057347319e+00 7.4964803388640577e+00 2.2398917609632193e+01 2 -1 0
2282 1 1.1082560359277661e+01 5.0211569166353893e+00 2.1741288129295203e+01 -1 0 0
2392 1 7.1313589561776833e+00 1.0384833973499376e+01 1.7519431087388238e+01 3 1 0
4502 1 4.7170713404529891e+00 1.1757872584135267e+01 2.2611966830878544e+01 1 0 0
3589 1 3.4794729511649115e-02 1.2125199395541935e+00 2.1314446965687125e+01 1 4 0
2202 1 2.6824937869543924e-01 9.2242555990642785e+00 1.8700879808550109e+01 -3 1 0
2168 1 5.9795931055788631e-01 1.1307218332019406e+00 1.8524609426275308e+01 0 -2 0
2244 1 6.7450469774226960e+00 7.5687422342831496e+00 2.4950248395069234e+01 0 1 0
4248 1 2.2540325929830471e+00 7.6339629138408585e+00 2.5073069544253979e+01 0 2 -1
3178 1 2.1458971032285667e+00 2.1190743937571987e+00 2.8595776500646533e+01 -1 1 0
2246 1 2.3228314414700719e+00 2.2517345249192413e+00 2.5891088843558258e+01 2 0 0
1217 1 6.6024814241546146e+00 2.2698458063656974e+00 2.8491379946540864e+01 4 4 0
1013 1 6.5610260854183098e+00 2.3495934342744897e+00 2.5630151563337488e+01 1 -1 -1
2287 1 6.4969928122273748e+00 2.1898521035066709e+00 3.2854779392144408e+01 1 0 0
2340 1 1.1118545484819057e+01 2.1304679882737005e+00 2.5950355150836490e+01 -2 0 0
2 1 1.0950723304426244e+01 2.2628222477218247e+00 2.8787153238674247e+01 -1 0 0
3572 1 9.1214943689198815e+00 8.8696691724552075e+00 2.9289807596583678e+01 -2 2 0
2116 1 4.0608800845038164e+00 6.4356860159949196e+00 2.8604913480417508e+01 4 1 0
880 1 4.4238516990639969e+00 6.1471772734270909e+00 2.5850411173801930e+01 0 2 -1
2404 1 8.6645957241863343e+00 6.1990199341676426e+00 2.8642312843205460e+01 0 1 0
1000 1 9.0756657074304794e+00 6.2707622344541019e+00 2.5905860604297700e+01 2 0 0
2226 1 2.2552637736296002e+00 1.0439518677992615e+01 2.6265652891194435e+01 0 1 0
4355 1 2.1311517189218274e+00 1.0342418930893638e+01 2.9246762523165135e+01 -2 1 0
1975 1 6.6474544922400645e+00 1.0236938102291598e+01 2.5933371229806941e+01 0 0 -1
2194 1 6.7309436303617165e+00 1.0044491362938619e+01 2.8711502542455285e+01 4 -2 -1
4545 1 1.1206160649283078e+01 1.0675496725058848e+01 2.8551578618158949e+01 -3 0 0
1004 1 1.1302727393026437e+01 1.0560938771624423e+01 2.5925947506456055e+01 -1 3 0
3365 1 1.1445996364333860e+01 7.6588699607888646e+00 2.5208152805462586e+01 -2 2 0
963 1 4.4568641453276490e+00 7.9898347769120193e-01 2.9451138920515959e+01 0 1 0
1120 1 4.3655565281038431e+00 8.9057893207867291e+00 2.9698993676383743e+01 1 0 -1
3587 1 4.4186427744881893e+00 6.0600158212052235e-01 3.2172509300182966e+01 0 1 0
130 1 1.0467658353355870e-02 6.1624258018506870e+00 2.6006507613985281e+01 1 0 0
4379 1 1.1261853762279765e+01 2.0273373083811412e+00 3.2940776099297423e+01 0 1 0
4416 1 8.8393048276979602e+00 7.6196463215959864e-01 2.9495363457914269e+01 -1 2 -1
1085 1 8.7603508530586129e+00 8.5345822429226348e-01 3.2252849199128718e+01 0 1 0
2182 1 2.2367250364707458e+00 4.7621139838008810e+00 2.9532897897196506e+01 1 3 0
4406 1 2.2812546535277352e+00 5.0582578919037564e+00 3.2283846168360974e+01 -2 1 -1
4382 1 2.2691217084158368e+00 1.0370478476479617e+01 3.2917585266609862e+01 -1 0 0
859 1 6.1972404473342033e+00 4.9328728425731576e+00 2.9341336921698264e+01 3 1 0
4346 1 6.4597012249038785e+00 4.8454061479156119e+00 3.2197708782685666e+01 0 -3 -1
4421 1 4.3554916667270644e+00 8.8129257121033451e+00 3.2391388049161229e+01 0 1 0
3483 1 1.1051050979864204e+01 4.9597389844883493e+00 2.9421470945186300e+01 5 0 0
35 1 8.9894095133537384e+00 6.1809310894811036e+00 3.2901428194565810e+01 1 -2 1
2083 1 1.1113849829720985e+01 4.8612413490983677e+00 3.2042032227163538e+01 -1 3 0
927 1 8.9684845221689642e+00 8.9399556185348281e+00 3.2197409318769488e+01 3 -1 0
1965 1 6.6748443093029382e+00 1.0459495133709597e+01 3.2931023891900026e+01 2 1 0
3543 1 2.6488826319846770e+00 2.5982988382985797e+00 3.2976008777669122e+01 -1 1 0
3177 1 8.9735802192961494e+00 3.5814805574958029e+00 2.5157270625985952e+01 0 1 -1
3405 1 3.8539235467513438e-03 1.1621039365625506e+01 2.5163096057698926e+01 2 0 -1
932 1 8.7843305725642615e+00 1.1792510070340468e+01 2.5309817086223124e+01 2 -1 0
3245 1 4.3990555832000480e+00 1.1847795653798684e+01 2.5263009130289301e+01 3 -2 0
4402 1 2.4662889612332364e-01 1.0290880442513477e+00 3.2487692384297560e+01 3 3 0
188 2 0.0000000000000000e+00 1.2787731112280996e+01 2.8830733850284380e+00 0 0 0
190 2 1.2305000000000001e+00 1.3498160618518829e+01 2.8830733850284380e+00 0 0 0
225 2 2.4610000000000003e+00 1.2787731112280996e+01 2.8830733850284380e+00 0 0 0
227 2 3.6915000000000004e+00 1.3498160618518829e+01 2.8830733850284380e+00 0 0 0
186 2 0.0000000000000000e+00 1.5629449137232333e+01 2.8830733850284380e+00 0 0 0
221 2 1.2305000000000001e+00 1.4919019630994494e+01 2.8830733850284380e+00 0 0 0
223 2 2.4610000000000003e+00 1.5629449137232328e+01 2.8830733850284380e+00 0 0 0
266 2 3.6915000000000004e+00 1.4919019630994494e+01 2.8830733850284380e+00 0 0 0
270 2 4.9220000000000006e+00 1.2787731112280996e+01 2.8830733850284380e+00 0 0 0
272 2 6.1524999999999990e+00 1.3498160618518829e+01 2.8830733850284380e+00 0 0 0
317 2 7.3829999999999991e+00 1.2787731112280996e+01 2.8830733850284380e+00 0 0 0
268 2 4.9220000000000006e+00 1.5629449137232333e+01 2.8830733850284380e+00 0 0 0
313 2 6.1524999999999990e+00 1.4919019630994494e+01 2.8830733850284380e+00 0 0 0
315 2 7.3829999999999991e+00 1.5629449137232333e+01 2.8830733850284380e+00 0 0 0
319 2 8.6135000000000002e+00 1.3498160618518835e+01 2.8830733850284380e+00 0 0 0
364 2 9.8440000000000012e+00 1.2787731112280996e+01 2.8830733850284380e+00 0 0 0
366 2 1.1074500000000002e+01 1.3498160618518829e+01 2.8830733850284380e+00 0 0 0
360 2 8.6135000000000002e+00 1.4919019630994494e+01 2.8830733850284380e+00 0 0 0
362 2 9.8440000000000012e+00 1.5629449137232328e+01 2.8830733850284380e+00 0 0 0
402 2 1.1074500000000002e+01 1.4919019630994494e+01 2.8830733850284380e+00 0 0 0
217 2 0.0000000000000000e+00 1.7050308149707998e+01 2.8830733850284380e+00 0 0 0
262 2 2.4610000000000003e+00 1.7050308149707998e+01 2.8830733850284380e+00 0 0 0
215 2 0.0000000000000000e+00 1.9892026174659328e+01 2.8830733850284380e+00 0 0 0
219 2 1.2305000000000001e+00 1.7760737655945832e+01 2.8830733850284380e+00 0 0 0
258 2 1.2305000000000001e+00 1.9181596668421495e+01 2.8830733850284380e+00 0 0 0
260 2 2.4610000000000003e+00 1.9892026174659328e+01 2.8830733850284380e+00 0 0 0
264 2 3.6914999999999996e+00 1.7760737655945832e+01 2.8830733850284380e+00 0 0 0
305 2 3.6914999999999996e+00 1.9181596668421495e+01 2.8830733850284380e+00 0 0 0
309 2 4.9220000000000006e+00 1.7050308149707998e+01 2.8830733850284380e+00 0 0 0
356 2 7.3830000000000009e+00 1.7050308149707998e+01 2.8830733850284380e+00 0 0 0
307 2 4.9220000000000006e+00 1.9892026174659328e+01 2.8830733850284380e+00 0 0 0
311 2 6.1524999999999999e+00 1.7760737655945832e+01 2.8830733850284380e+00 0 0 0
352 2 6.1524999999999999e+00 1.9181596668421495e+01 2.8830733850284380e+00 0 0 0
354 2 7.3829999999999991e+00 1.9892026174659328e+01 2.8830733850284380e+00 0 0 0
398 2 9.8440000000000012e+00 1.7050308149707998e+01 2.8830733850284380e+00 0 0 0
432 2 1.2304999999999998e+01 1.7050308149707998e+01 2.8830733850284380e+00 0 0 0
358 2 8.6134999999999984e+00 1.7760737655945832e+01 2.8830733850284380e+00 0 0 0
394 2 8.6135000000000002e+00 1.9181596668421495e+01 2.8830733850284380e+00 0 0 0
396 2 9.8440000000000012e+00 1.9892026174659335e+01 2.8830733850284380e+00 0 0 0
400 2 1.1074500000000002e+01 1.7760737655945835e+01 2.8830733850284380e+00 0 0 0
428 2 1.1074500000000002e+01 1.9181596668421495e+01 2.8830733850284380e+00 0 0 0
252 2 0.0000000000000000e+00 2.4154603212086325e+01 2.8830733850284380e+00 0 0 0
254 2 0.0000000000000000e+00 2.1312885187134999e+01 2.8830733850284380e+00 0 0 0
256 2 1.2304999999999993e+00 2.2023314693372832e+01 2.8830733850284380e+00 0 0 0
297 2 1.2304999999999993e+00 2.3444173705848499e+01 2.8830733850284380e+00 0 0 0
299 2 2.4610000000000003e+00 2.4154603212086325e+01 2.8830733850284380e+00 0 0 0
301 2 2.4610000000000003e+00 2.1312885187134995e+01 2.8830733850284380e+00 0 0 0
303 2 3.6914999999999996e+00 2.2023314693372832e+01 2.8830733850284380e+00 0 0 0
344 2 3.6915000000000004e+00 2.3444173705848499e+01 2.8830733850284380e+00 0 0 0
346 2 4.9220000000000006e+00 2.4154603212086325e+01 2.8830733850284380e+00 0 0 0
348 2 4.9220000000000006e+00 2.1312885187134995e+01 2.8830733850284380e+00 0 0 0
350 2 6.1524999999999990e+00 2.2023314693372832e+01 2.8830733850284380e+00 0 0 0
386 2 6.1524999999999999e+00 2.3444173705848499e+01 2.8830733850284380e+00 0 0 0
388 2 7.3830000000000009e+00 2.4154603212086336e+01 2.8830733850284380e+00 0 0 0
390 2 7.3829999999999991e+00 2.1312885187134999e+01 2.8830733850284380e+00 0 0 0
392 2 8.6135000000000002e+00 2.2023314693372832e+01 2.8830733850284380e+00 0 0 0
420 2 8.6134999999999984e+00 2.3444173705848499e+01 2.8830733850284380e+00 0 0 0
422 2 9.8440000000000012e+00 2.4154603212086336e+01 2.8830733850284380e+00 0 0 0
424 2 9.8440000000000012e+00 2.1312885187134999e+01 2.8830733850284380e+00 0 0 0
426 2 1.1074500000000002e+01 2.2023314693372832e+01 2.8830733850284380e+00 0 0 0
446 2 1.1074500000000002e+01 2.3444173705848499e+01 2.8830733850284380e+00 0 0 0
189 2 0.0000000000000000e+00 1.2787731112280996e+01 5.9725621620227827e+00 0 0 0
226 2 2.4610000000000003e+00 1.2787731112280996e+01 5.9725621620227827e+00 0 0 0
187 2 0.0000000000000000e+00 1.4208590124756663e+01 5.9725621620227827e+00 0 0 0
222 2 1.2305000000000001e+00 1.4919019630994494e+01 5.9725621620227827e+00 0 0 0
224 2 2.4610000000000003e+00 1.4208590124756663e+01 5.9725621620227827e+00 0 0 0
267 2 3.6915000000000004e+00 1.4919019630994494e+01 5.9725621620227827e+00 0 0 0
271 2 4.9220000000000006e+00 1.2787731112280996e+01 5.9725621620227827e+00 0 0 0