LAMMPS data file via write_data, version 16 Mar 2018, timestep = 100000

4560 atoms
2 atom types

0.0000000000000000e+00 4.9219999999999999e+01 xlo xhi
0.0000000000000000e+00 4.9019635930410494e+01 ylo yhi
1.1748400965136643e+00 3.2765159903486861e+01 zlo zhi

Masses

1 18.015
2 12.01

Atoms # atomic

147 2 0.0000000000000000e+00 2.8417180249513345e+00 3.2689470307355881e+00 0 0 0
149 2 0.0000000000000000e+00 0.0000000000000000e+00 3.2689470307355881e+00 0 0 0
151 2 1.2305000000000001e+00 7.1042950623783474e-01 3.2689470307355881e+00 0 0 0
158 2 1.2305000000000001e+00 2.1312885187134998e+00 3.2689470307355881e+00 0 0 0
160 2 2.4610000000000003e+00 2.8417180249513345e+00 3.2689470307355881e+00 0 0 0
162 2 2.4610000000000003e+00 0.0000000000000000e+00 3.2689470307355881e+00 0 0 0
164 2 3.6915000000000004e+00 7.1042950623783474e-01 3.2689470307355881e+00 0 0 0
179 2 3.6914999999999996e+00 2.1312885187134998e+00 3.2689470307355881e+00 0 0 0
181 2 4.9220000000000006e+00 2.8417180249513332e+00 3.2689470307355881e+00 0 0 0
183 2 4.9220000000000006e+00 0.0000000000000000e+00 3.2689470307355881e+00 0 0 0
185 2 6.1524999999999999e+00 7.1042950623783407e-01 3.2689470307355881e+00 0 0 0
208 2 6.1524999999999999e+00 2.1312885187134989e+00 3.2689470307355881e+00 0 0 0
210 2 7.3829999999999991e+00 2.8417180249513345e+00 3.2689470307355881e+00 0 0 0
212 2 7.3829999999999991e+00 0.0000000000000000e+00 3.2689470307355881e+00 0 0 0
214 2 8.6134999999999984e+00 7.1042950623783407e-01 3.2689470307355881e+00 0 0 0
245 2 8.6134999999999984e+00 2.1312885187135002e+00 3.2689470307355881e+00 0 0 0
247 2 9.8440000000000012e+00 2.8417180249513332e+00 3.2689470307355881e+00 0 0 0
249 2 9.8440000000000012e+00 0.0000000000000000e+00 3.2689470307355881e+00 0 0 0
251 2 1.1074500000000002e+01 7.1042950623783330e-01 3.2689470307355881e+00 0 0 0
290 2 1.1074500000000002e+01 2.1312885187135002e+00 3.2689470307355881e+00 0 0 0
154 2 0.0000000000000000e+00 4.2625770374269996e+00 3.2689470307355881e+00 0 0 0
156 2 1.2305000000000001e+00 4.9730065436648339e+00 3.2689470307355881e+00 0 0 0
171 2 1.2305000000000001e+00 6.3938655561404980e+00 3.2689470307355881e+00 0 0 0
175 2 2.4610000000000003e+00 4.2625770374269996e+00 3.2689470307355881e+00 0 0 0
177 2 3.6914999999999996e+00 4.9730065436648339e+00 3.2689470307355881e+00 0 0 0
200 2 3.6914999999999996e+00 6.3938655561404980e+00 3.2689470307355881e+00 0 0 0
152 2 0.0000000000000000e+00 7.1042950623783341e+00 3.2689470307355881e+00 0 0 0
173 2 2.4610000000000003e+00 7.1042950623783341e+00 3.2689470307355881e+00 0 0 0
204 2 4.9220000000000006e+00 4.2625770374269978e+00 3.2689470307355881e+00 0 0 0
206 2 6.1524999999999999e+00 4.9730065436648339e+00 3.2689470307355881e+00 0 0 0
237 2 6.1524999999999999e+00 6.3938655561404980e+00 3.2689470307355881e+00 0 0 0
241 2 7.3829999999999991e+00 4.2625770374269996e+00 3.2689470307355881e+00 0 0 0
202 2 4.9220000000000006e+00 7.1042950623783341e+00 3.2689470307355881e+00 0 0 0
239 2 7.3830000000000009e+00 7.1042950623783341e+00 3.2689470307355881e+00 0 0 0
243 2 8.6135000000000002e+00 4.9730065436648339e+00 3.2689470307355881e+00 0 0 0
282 2 8.6135000000000002e+00 6.3938655561404980e+00 3.2689470307355881e+00 0 0 0
286 2 9.8440000000000012e+00 4.2625770374270004e+00 3.2689470307355881e+00 0 0 0
288 2 1.1074500000000002e+01 4.9730065436648339e+00 3.2689470307355881e+00 0 0 0
329 2 1.1074500000000002e+01 6.3938655561404980e+00 3.2689470307355881e+00 0 0 0
284 2 9.8440000000000012e+00 7.1042950623783341e+00 3.2689470307355881e+00 0 0 0
167 2 0.0000000000000000e+00 8.5251540748539991e+00 3.2689470307355881e+00 0 0 0
169 2 1.2305000000000001e+00 9.2355835810918343e+00 3.2689470307355881e+00 0 0 0
196 2 2.4610000000000003e+00 8.5251540748539991e+00 3.2689470307355881e+00 0 0 0
198 2 3.6915000000000004e+00 9.2355835810918343e+00 3.2689470307355881e+00 0 0 0
165 2 0.0000000000000000e+00 1.1366872099805333e+01 3.2689470307355881e+00 0 0 0
192 2 1.2305000000000001e+00 1.0656442593567498e+01 3.2689470307355881e+00 0 0 0
194 2 2.4610000000000003e+00 1.1366872099805333e+01 3.2689470307355881e+00 0 0 0
229 2 3.6914999999999996e+00 1.0656442593567499e+01 3.2689470307355881e+00 0 0 0
233 2 4.9220000000000006e+00 8.5251540748539991e+00 3.2689470307355881e+00 0 0 0
235 2 6.1524999999999999e+00 9.2355835810918343e+00 3.2689470307355881e+00 0 0 0
278 2 7.3830000000000009e+00 8.5251540748539991e+00 3.2689470307355881e+00 0 0 0
231 2 4.9220000000000006e+00 1.1366872099805333e+01 3.2689470307355881e+00 0 0 0
274 2 6.1524999999999999e+00 1.0656442593567499e+01 3.2689470307355881e+00 0 0 0
276 2 7.3829999999999991e+00 1.1366872099805333e+01 3.2689470307355881e+00 0 0 0
280 2 8.6134999999999984e+00 9.2355835810918343e+00 3.2689470307355881e+00 0 0 0
325 2 9.8440000000000012e+00 8.5251540748539956e+00 3.2689470307355881e+00 0 0 0
327 2 1.1074500000000002e+01 9.2355835810918343e+00 3.2689470307355881e+00 0 0 0
321 2 8.6134999999999984e+00 1.0656442593567498e+01 3.2689470307355881e+00 0 0 0
323 2 9.8440000000000012e+00 1.1366872099805333e+01 3.2689470307355881e+00 0 0 0
368 2 1.1074500000000002e+01 1.0656442593567498e+01 3.2689470307355881e+00 0 0 0
370 2 1.2304999999999998e+01 1.1366872099805333e+01 3.2689470307355881e+00 0 0 0
148 2 0.0000000000000000e+00 1.4208590124756650e+00 6.2738075328549776e+00 0 0 0
150 2 0.0000000000000000e+00 0.0000000000000000e+00 6.2738075328549776e+00 0 0 0
159 2 1.2305000000000001e+00 2.1312885187134998e+00 6.2738075328549776e+00 0 0 0
161 2 2.4610000000000003e+00 1.4208590124756650e+00 6.2738075328549776e+00 0 0 0
163 2 2.4610000000000003e+00 0.0000000000000000e+00 6.2738075328549776e+00 0 0 0
180 2 3.6914999999999996e+00 2.1312885187134998e+00 6.2738075328549776e+00 0 0 0
157 2 1.2305000000000001e+00 3.5521475311891644e+00 6.2738075328549776e+00 0 0 0
178 2 3.6914999999999996e+00 3.5521475311891644e+00 6.2738075328549776e+00 0 0 0
182 2 4.9220000000000006e+00 1.4208590124756650e+00 6.2738075328549776e+00 0 0 0
184 2 4.9220000000000006e+00 0.0000000000000000e+00 6.2738075328549776e+00 0 0 0
209 2 6.1524999999999999e+00 2.1312885187134989e+00 6.2738075328549776e+00 0 0 0
211 2 7.3829999999999991e+00 1.4208590124756659e+00 6.2738075328549776e+00 0 0 0
213 2 7.3829999999999991e+00 0.0000000000000000e+00 6.2738075328549776e+00 0 0 0
207 2 6.1524999999999999e+00 3.5521475311891644e+00 6.2738075328549776e+00 0 0 0
246 2 8.6134999999999984e+00 2.1312885187135002e+00 6.2738075328549776e+00 0 0 0
248 2 9.8440000000000012e+00 1.4208590124756659e+00 6.2738075328549776e+00 0 0 0
250 2 9.8440000000000012e+00 0.0000000000000000e+00 6.2738075328549776e+00 0 0 0
291 2 1.1074500000000002e+01 2.1312885187135002e+00 6.2738075328549776e+00 0 0 0
244 2 8.6134999999999984e+00 3.5521475311891657e+00 6.2738075328549776e+00 0 0 0
289 2 1.1074500000000002e+01 3.5521475311891644e+00 6.2738075328549776e+00 0 0 0
153 2 0.0000000000000000e+00 5.6834360499026637e+00 6.2738075328549776e+00 0 0 0
155 2 0.0000000000000000e+00 4.2625770374269996e+00 6.2738075328549776e+00 0 0 0
172 2 1.2305000000000001e+00 6.3938655561404980e+00 6.2738075328549776e+00 0 0 0
174 2 2.4610000000000003e+00 5.6834360499026637e+00 6.2738075328549776e+00 0 0 0
176 2 2.4610000000000003e+00 4.2625770374269996e+00 6.2738075328549776e+00 0 0 0
201 2 3.6914999999999996e+00 6.3938655561404980e+00 6.2738075328549776e+00 0 0 0
170 2 1.2305000000000001e+00 7.8147245686161639e+00 6.2738075328549776e+00 0 0 0
199 2 3.6914999999999996e+00 7.8147245686161639e+00 6.2738075328549776e+00 0 0 0
203 2 4.9220000000000006e+00 5.6834360499026637e+00 6.2738075328549776e+00 0 0 0
205 2 4.9220000000000006e+00 4.2625770374269978e+00 6.2738075328549776e+00 0 0 0
238 2 6.1524999999999999e+00 6.3938655561404980e+00 6.2738075328549776e+00 0 0 0
240 2 7.3829999999999991e+00 5.6834360499026637e+00 6.2738075328549776e+00 0 0 0
242 2 7.3829999999999991e+00 4.2625770374269996e+00 6.2738075328549776e+00 0 0 0
236 2 6.1524999999999999e+00 7.8147245686161639e+00 6.2738075328549776e+00 0 0 0
283 2 8.6135000000000002e+00 6.3938655561404980e+00 6.2738075328549776e+00 0 0 0
285 2 9.8440000000000012e+00 5.6834360499026637e+00 6.2738075328549776e+00 0 0 0
287 2 9.8440000000000012e+00 4.2625770374270004e+00 6.2738075328549776e+00 0 0 0
330 2 1.1074500000000002e+01 6.3938655561404980e+00 6.2738075328549776e+00 0 0 0
281 2 8.6135000000000002e+00 7.8147245686161639e+00 6.2738075328549776e+00 0 0 0
328 2 1.1074500000000002e+01 7.8147245686161639e+00 6.2738075328549776e+00 0 0 0
166 2 0.0000000000000000e+00 9.9460130873296642e+00 6.2738075328549776e+00 0 0 0
168 2 0.0000000000000000e+00 8.5251540748539991e+00 6.2738075328549776e+00 0 0 0
195 2 2.4610000000000003e+00 9.9460130873296642e+00 6.2738075328549776e+00 0 0 0
197 2 2.4610000000000003e+00 8.5251540748539991e+00 6.2738075328549776e+00 0 0 0
191 2 1.2305000000000001e+00 1.2077301606043163e+01 6.2738075328549776e+00 0 0 0
193 2 1.2305000000000001e+00 1.0656442593567498e+01 6.2738075328549776e+00 0 0 0
228 2 3.6914999999999996e+00 1.2077301606043163e+01 6.2738075328549776e+00 0 0 0
230 2 3.6914999999999996e+00 1.0656442593567499e+01 6.2738075328549776e+00 0 0 0
232 2 4.9220000000000006e+00 9.9460130873296642e+00 6.2738075328549776e+00 0 0 0
234 2 4.9220000000000006e+00 8.5251540748539991e+00 6.2738075328549776e+00 0 0 0
277 2 7.3830000000000009e+00 9.9460130873296642e+00 6.2738075328549776e+00 0 0 0
279 2 7.3830000000000009e+00 8.5251540748539991e+00 6.2738075328549776e+00 0 0 0
273 2 6.1524999999999999e+00 1.2077301606043163e+01 6.2738075328549776e+00 0 0 0
275 2 6.1524999999999999e+00 1.0656442593567499e+01 6.2738075328549776e+00 0 0 0
367 2 1.1074500000000002e+01 1.2077301606043163e+01 6.2738075328549776e+00 0 0 0
369 2 1.1074500000000002e+01 1.0656442593567498e+01 6.2738075328549776e+00 0 0 0
324 2 9.8440000000000012e+00 9.9460130873296642e+00 6.2738075328549776e+00 0 0 0
326 2 9.8440000000000012e+00 8.5251540748539956e+00 6.2738075328549776e+00 0 0 0
320 2 8.6135000000000002e+00 1.2077301606043163e+01 6.2738075328549776e+00 0 0 0
322 2 8.6134999999999984e+00 1.0656442593567498e+01 6.2738075328549776e+00 0 0 0
476 2 0.0000000000000000e+00 2.8417180249513345e+00 9.2786680349740731e+00 0 0 0
477 2 0.0000000000000000e+00 0.0000000000000000e+00 9.2786680349740731e+00 0 0 0
478 2 1.2305000000000001e+00 7.1042950623783474e-01 9.2786680349740731e+00 0 0 0
482 2 1.2305000000000001e+00 2.1312885187134998e+00 9.2786680349740731e+00 0 0 0
483 2 2.4610000000000003e+00 2.8417180249513345e+00 9.2786680349740731e+00 0 0 0
484 2 2.4610000000000003e+00 0.0000000000000000e+00 9.2786680349740731e+00 0 0 0
485 2 3.6915000000000004e+00 7.1042950623783474e-01 9.2786680349740731e+00 0 0 0
493 2 3.6914999999999996e+00 2.1312885187134998e+00 9.2786680349740731e+00 0 0 0
972 1 9.7440727773711000e-01 1.5876973971170407e+00 1.1850744615531960e+01 0 1 0
494 2 4.9220000000000006e+00 2.8417180249513332e+00 9.2786680349740731e+00 0 0 0
495 2 4.9220000000000006e+00 0.0000000000000000e+00 9.2786680349740731e+00 0 0 0
496 2 6.1524999999999999e+00 7.1042950623783407e-01 9.2786680349740731e+00 0 0 0
508 2 6.1524999999999999e+00 2.1312885187134989e+00 9.2786680349740731e+00 0 0 0
509 2 7.3829999999999991e+00 2.8417180249513345e+00 9.2786680349740731e+00 0 0 0
510 2 7.3829999999999991e+00 0.0000000000000000e+00 9.2786680349740731e+00 0 0 0
79 1 7.3861990721910047e+00 5.4814638711932484e-01 1.2247138612833403e+01 1 0 0
875 1 7.0943023222361772e+00 3.3792572290836613e+00 1.1393707059606697e+01 0 0 0
511 2 8.6134999999999984e+00 7.1042950623783407e-01 9.2786680349740731e+00 0 0 0
527 2 8.6134999999999984e+00 2.1312885187135002e+00 9.2786680349740731e+00 0 0 0
528 2 9.8440000000000012e+00 2.8417180249513332e+00 9.2786680349740731e+00 0 0 0
529 2 9.8440000000000012e+00 0.0000000000000000e+00 9.2786680349740731e+00 0 0 0
530 2 1.1074500000000002e+01 7.1042950623783330e-01 9.2786680349740731e+00 0 0 0
550 2 1.1074500000000002e+01 2.1312885187135002e+00 9.2786680349740731e+00 0 0 0
4355 1 1.2027082659378832e+01 1.3290058854465394e+00 1.2480128566005268e+01 0 0 0
480 2 0.0000000000000000e+00 4.2625770374269996e+00 9.2786680349740731e+00 0 0 0
481 2 1.2305000000000001e+00 4.9730065436648339e+00 9.2786680349740731e+00 0 0 0
489 2 1.2305000000000001e+00 6.3938655561404980e+00 9.2786680349740731e+00 0 0 0
491 2 2.4610000000000003e+00 4.2625770374269996e+00 9.2786680349740731e+00 0 0 0
492 2 3.6914999999999996e+00 4.9730065436648339e+00 9.2786680349740731e+00 0 0 0
504 2 3.6914999999999996e+00 6.3938655561404980e+00 9.2786680349740731e+00 0 0 0
479 2 0.0000000000000000e+00 7.1042950623783341e+00 9.2786680349740731e+00 0 0 0
490 2 2.4610000000000003e+00 7.1042950623783341e+00 9.2786680349740731e+00 0 0 0
999 1 2.4925134022465443e+00 3.9369143253016641e+00 1.2146170523294703e+01 1 0 0
855 1 4.9941332887485475e+00 4.8624178461976699e+00 1.2753324514150759e+01 1 1 -1
506 2 4.9220000000000006e+00 4.2625770374269978e+00 9.2786680349740731e+00 0 0 0
507 2 6.1524999999999999e+00 4.9730065436648339e+00 9.2786680349740731e+00 0 0 0
523 2 6.1524999999999999e+00 6.3938655561404980e+00 9.2786680349740731e+00 0 0 0
525 2 7.3829999999999991e+00 4.2625770374269996e+00 9.2786680349740731e+00 0 0 0
505 2 4.9220000000000006e+00 7.1042950623783341e+00 9.2786680349740731e+00 0 0 0
524 2 7.3830000000000009e+00 7.1042950623783341e+00 9.2786680349740731e+00 0 0 0
526 2 8.6135000000000002e+00 4.9730065436648339e+00 9.2786680349740731e+00 0 0 0
546 2 8.6135000000000002e+00 6.3938655561404980e+00 9.2786680349740731e+00 0 0 0
548 2 9.8440000000000012e+00 4.2625770374270004e+00 9.2786680349740731e+00 0 0 0
549 2 1.1074500000000002e+01 4.9730065436648339e+00 9.2786680349740731e+00 0 0 0
570 2 1.1074500000000002e+01 6.3938655561404980e+00 9.2786680349740731e+00 0 0 0
547 2 9.8440000000000012e+00 7.1042950623783341e+00 9.2786680349740731e+00 0 0 0
2203 1 9.6195420741382929e+00 3.2353404316559851e+00 1.2424956402711169e+01 1 0 0
2188 1 1.1244752467725160e+01 5.4359389680130690e+00 1.1990331135195460e+01 0 1 0
1136 1 3.0746448495020768e+00 1.0269335908233330e+01 1.2459906188768029e+01 1 0 0
487 2 0.0000000000000000e+00 8.5251540748539991e+00 9.2786680349740731e+00 0 0 0
488 2 1.2305000000000001e+00 9.2355835810918343e+00 9.2786680349740731e+00 0 0 0
502 2 2.4610000000000003e+00 8.5251540748539991e+00 9.2786680349740731e+00 0 0 0
503 2 3.6915000000000004e+00 9.2355835810918343e+00 9.2786680349740731e+00 0 0 0
486 2 0.0000000000000000e+00 1.1366872099805333e+01 9.2786680349740731e+00 0 0 0
500 2 1.2305000000000001e+00 1.0656442593567498e+01 9.2786680349740731e+00 0 0 0
501 2 2.4610000000000003e+00 1.1366872099805333e+01 9.2786680349740731e+00 0 0 0
519 2 3.6914999999999996e+00 1.0656442593567499e+01 9.2786680349740731e+00 0 0 0
1082 1 5.0296847068071804e+00 7.8136031426373638e+00 1.2210731991658363e+01 0 0 0
3530 1 7.6286468195863275e+00 9.0246701239402416e+00 1.1774175724543117e+01 0 0 0
521 2 4.9220000000000006e+00 8.5251540748539991e+00 9.2786680349740731e+00 0 0 0
522 2 6.1524999999999999e+00 9.2355835810918343e+00 9.2786680349740731e+00 0 0 0
544 2 7.3830000000000009e+00 8.5251540748539991e+00 9.2786680349740731e+00 0 0 0
520 2 4.9220000000000006e+00 1.1366872099805333e+01 9.2786680349740731e+00 0 0 0
542 2 6.1524999999999999e+00 1.0656442593567499e+01 9.2786680349740731e+00 0 0 0
543 2 7.3829999999999991e+00 1.1366872099805333e+01 9.2786680349740731e+00 0 0 0
545 2 8.6134999999999984e+00 9.2355835810918343e+00 9.2786680349740731e+00 0 0 0
568 2 9.8440000000000012e+00 8.5251540748539956e+00 9.2786680349740731e+00 0 0 0
569 2 1.1074500000000002e+01 9.2355835810918343e+00 9.2786680349740731e+00 0 0 0
566 2 8.6134999999999984e+00 1.0656442593567498e+01 9.2786680349740731e+00 0 0 0
567 2 9.8440000000000012e+00 1.1366872099805333e+01 9.2786680349740731e+00 0 0 0
590 2 1.1074500000000002e+01 1.0656442593567498e+01 9.2786680349740731e+00 0 0 0
591 2 1.2304999999999998e+01 1.1366872099805333e+01 9.2786680349740731e+00 0 0 0
1078 1 1.1824120269094212e+01 1.0196163566392897e+01 1.1618130148025019e+01 0 0 -1
1210 1 2.4821052574099194e+00 2.4583701345546314e+00 1.4962054903879023e+01 0 0 0
1108 1 7.6194806739273240e+00 1.0325687754407267e+00 1.5052054833506578e+01 1 0 0
3316 1 7.1482066338345289e+00 3.4145439763707128e+00 1.6808842189673776e+01 1 0 0
2323 1 1.1932450186496048e+01 1.1126714644695271e+01 1.4345770342094344e+01 0 1 0
3523 1 1.1886924710875071e+00 8.5049298285888337e+00 1.5369883362506851e+01 1 1 0
3317 1 2.3392743258655484e+00 4.4175778568079611e+00 1.6791302680144657e+01 1 0 0
3182 1 5.0451952263674285e+00 4.9154411224719778e+00 1.5599384624272574e+01 0 0 0
1253 1 1.0235980549362219e+01 8.1391522722306622e+00 1.2141115358116506e+01 1 1 -1
2399 1 9.7102432885045769e+00 3.7823874663537316e+00 1.5031373317952584e+01 0 0 0
885 1 3.4341151415293738e+00 6.2745625406389283e-01 1.6802526468325034e+01 0 0 0
932 1 5.2047458324814802e+00 7.6705560692055421e+00 1.5303657296368296e+01 1 0 0
3228 1 1.3124842510854571e+00 5.8122046583099394e+00 1.4554264571665501e+01 0 1 0
4543 1 7.2634258854608014e+00 9.2588103410775098e+00 1.4577176203891755e+01 1 1 0
975 1 8.1498100398297990e-01 6.1368877301219769e+00 1.1767530270340563e+01 1 0 0
3280 1 6.5053005048785684e-01 8.9443503617105762e+00 1.2433695656784527e+01 -1 0 -1
4311 1 1.0769627860145942e+01 6.6078095838655164e+00 1.4862594249612766e+01 0 1 0
2119 1 1.0006759282424383e+01 9.2160953823794607e+00 1.5377005168330271e+01 1 0 -1
3465 1 2.6073304360325196e+00 1.1526039900474753e+01 1.5043929272427290e+01 0 0 0
3393 1 2.9407349707661173e-01 3.1671449799476492e-01 1.4823318017577307e+01 1 0 -1
913 1 8.1014625294643583e+00 1.1989296154164359e+01 1.2091519065770969e+01 0 0 0
2165 1 7.7360157687395379e+00 1.1989282645571539e+01 1.4843767332283569e+01 1 0 -1
2177 1 7.6409822113562633e+00 1.0225151343826038e+01 2.4532765094413520e+01 0 0 0
3445 1 5.9101017154360500e+00 8.6611381539670411e+00 1.9121286715019757e+01 1 0 0
1022 1 5.1116436637687368e+00 2.4885913282620735e+00 2.0545516813746772e+01 -1 0 0
4399 1 1.1467805772552847e+01 2.8327931835640738e+00 1.9400840022630035e+01 1 0 0
3566 1 1.1084264281223867e+01 1.2903544099085518e+00 2.1814974652671168e+01 1 1 0
2282 1 1.0952371214988544e+01 8.8436201127042189e+00 2.1181887634535649e+01 0 1 0
51 1 2.0410747108110350e+00 3.7019357594193263e+00 1.9349894619546937e+01 0 0 1
3412 1 1.9959797498299883e+00 6.0516021242921774e+00 2.0686753915023651e+01 1 0 0
144 1 7.4661465998202603e+00 3.9840718994174051e+00 2.0806226320451323e+01 0 1 0
2105 1 3.9241772426942765e+00 7.6011751987283347e+00 2.1787650727184058e+01 1 0 0
1063 1 6.5401790665677479e+00 6.7062538028272733e+00 2.1431393328574167e+01 1 0 0
2114 1 9.1194578868428717e+00 4.0332525667619663e+00 1.8665870178238386e+01 1 1 -1
2381 1 1.0007123009584936e+01 6.2538981342631228e+00 1.7676726378031930e+01 0 1 0
4371 1 4.0101192432753052e+00 1.0155898435786753e+01 2.0829338421502356e+01 1 1 0
2023 1 1.1510826143435131e-01 7.3094038090799138e+00 2.4677528858615105e+01 0 0 0
4429 1 1.7835584091632977e+00 1.0053996704884124e+01 1.9016616254440279e+01 1 1 0
3246 1 8.9058272067303808e+00 8.0252369592977768e+00 1.9483431292001335e+01 -1 0 0
3261 1 9.5025729935148675e+00 1.0120907638591907e+01 1.7890304607605465e+01 1 0 -1
3546 1 3.0105055866977923e+00 1.1475863122835898e+01 2.4667511483914517e+01 0 0 0
125 1 8.9943829521563838e+00 2.8212621175702108e+00 2.2822717063112307e+01 0 -1 0
4428 1 8.0241738163415963e+00 3.8627233486185025e-01 2.4295425342251406e+01 0 1 0
2122 1 5.4121574183824741e+00 6.8105175310828026e-01 2.2807377646166898e+01 1 0 -1
3369 1 1.1119965174840720e+01 1.1695337600903997e+01 2.4529427087148413e+01 1 0 0
1149 1 1.4402742064671974e+00 3.6088495522038033e-01 2.3810066561297390e+01 0 0 0
3244 1 1.5516933614887005e+00 2.8069610769006967e+00 2.2701561972437972e+01 2 0 0
2060 1 8.0925975318087477e+00 7.6311753088387464e+00 2.3527576325295215e+01 -1 0 -1
2414 1 1.0941823871238640e+01 7.2687937398918550e+00 2.3653854558390279e+01 0 1 0
1234 1 9.4832303462650298e+00 4.6660504590090461e+00 2.4689535773037200e+01 0 1 1
946 1 2.8679207315203472e+00 8.0685655110634045e+00 2.4352451546910054e+01 0 0 0
1222 1 6.6325391642485494e+00 1.0685100483559109e+01 1.7673224087975584e+01 -1 0 0
938 1 1.0243954157303733e+01 1.1348633039461145e+01 2.1597610074658277e+01 1 0 0
4393 1 6.1162910028750899e+00 8.8250125949150737e-01 1.8198905073130170e+01 -1 1 0
904 1 2.7966547427475064e-02 7.9692560723178412e+00 1.9648375263053275e+01 0 0 0
2313 1 8.1969369872346931e-02 1.2099004253042311e+01 1.7490805014285527e+01 1 0 0
3405 1 3.5201421197260108e+00 9.3460542998051590e+00 1.6999064616637753e+01 1 0 -1
920 1 1.6221460339030016e+00 1.8403475166395957e+00 2.7021786068320701e+01 0 0 -1
4544 1 1.1948982876420136e+01 9.0833203979410033e+00 2.5342475132868657e+01 0 0 0
4372 1 7.6141621159615349e+00 9.7022317422147042e-01 2.9492944464103395e+01 -1 1 0
4417 1 9.2273394002676525e+00 3.3737915726017262e+00 2.7221435125002856e+01 0 1 0
3411 1 1.1605655884574940e+01 1.0692558815351667e+01 3.2428406806317682e+01 1 0 0
2329 1 6.2683245747600056e+00 9.2598822923229864e+00 2.8337608328952506e+01 0 0 0
2366 1 1.3367166746927974e+00 4.1120032657927732e+00 2.5102274521440584e+01 0 0 0
3427 1 9.4078620253184990e+00 7.6462832082297609e+00 3.2358789761518835e+01 0 -1 0
3553 1 6.9528673775872925e+00 1.6952603303929628e+00 2.6877195860991627e+01 0 1 0
4444 1 3.0563330716226571e+00 5.5631604814788611e+00 2.8403296183446969e+01 1 0 0
2192 1 8.1224517690508768e-01 4.6353490804299158e+00 3.2124833311791413e+01 0 0 0
1167 1 7.9987931863435495e+00 6.0675131961580160e+00 2.7781815096064072e+01 0 0 0
2270 1 6.6842629670801106e+00 6.2974723784919426e+00 2.5497983349530948e+01 0 1 0
3548 1 1.0491644813874793e-01 7.2843338783309832e+00 3.2229992450026131e+01 0 1 0
4432 1 2.2460059110270776e+00 1.0636438961468256e+01 2.7775624298157695e+01 0 0 0
922 1 5.4390079962882991e+00 9.2259742682287840e+00 2.5822694674706817e+01 1 0 0
3454 1 5.5398943123890314e+00 6.4202276381192389e+00 2.9448546484183140e+01 -1 0 -1
1997 1 1.0212685577102992e+01 9.2520071031111950e-01 2.8993653194233438e+01 0 1 0
1014 1 9.1787334713761197e+00 9.0224897960105928e+00 2.7432787382323447e+01 0 0 0
3398 1 2.7022088536869728e+00 8.3259138011813754e+00 2.9198013761615755e+01 1 1 -1
2096 1 4.5347790125833054e+00 2.8767259699673908e+00 2.6742690209195040e+01 0 -1 0
1062 1 3.9381455748457141e+00 6.0013852668970058e+00 2.5648160565307883e+01 0 0 0
3172 1 2.9850833695645305e+00 6.0336160559284446e-01 3.2198494400547816e+01 1 0 0
3284 1 1.0199557733410074e+01 1.0155747425346338e+01 2.9952487244060855e+01 1 0 -1
854 1 9.1187469354229673e+00 5.1865043594752525e+00 3.1557030528744278e+01 0 0 -1
2425 1 7.2445544060535836e+00 3.9129086853289725e+00 2.9852338548571794e+01 0 0 1
2387 1 7.1246280563370554e+00 1.5235180813264082e+00 3.2286099407413815e+01 1 0 0
4313 1 9.9713259068154905e+00 2.9635878444839331e-01 3.1965854502421777e+01 0 0 0
3311 1 9.0756282512596975e+00 1.1795187855996755e+01 2.6354845769531835e+01 0 0 0
4537 1 4.5087771075145229e+00 3.0841784141254616e+00 2.9687276717060875e+01 0 0 0
4491 1 3.3244981368832902e+00 3.3268112516309865e+00 3.2380263480766494e+01 1 1 -1
4402 1 5.8789753006172090e+00 4.7369239712878102e+00 3.2392715706482235e+01 1 1 0
2326 1 3.4909089222325860e+00 1.1612533335360725e+01 3.2402595430407885e+01 1 1 0
3494 1 1.2113617332252982e+01 7.5308259725734903e+00 3.0965164099213126e+01 -1 0 0
4527 1 1.1509934900577957e+01 3.4208601228776927e+00 2.9593878147603469e+01 1 0 -1
3270 1 7.0208605409423779e+00 9.5477525418761910e+00 3.1606838618640367e+01 1 0 0
3300 1 1.0533676384414628e+01 5.9329812357346938e+00 2.8971250779095989e+01 1 0 0
4478 1 1.1215241587206837e+01 3.5561924402241503e+00 3.2304720501425884e+01 -1 1 0
4260 1 5.1269250692323274e+00 7.5569100298055352e+00 3.2188585473540492e+01 -1 0 0
4423 1 3.0306116926469806e+00 3.5677331783184513e-01 2.9318390204061501e+01 1 -1 0
3262 1 2.7582187306145034e+00 8.7132894308801436e+00 3.2082081414064135e+01 1 0 0
3305 1 5.7556901067800545e+00 1.1902543815069118e+01 2.8997368163432256e+01 1 0 0
3372 1 5.5892241134793819e-01 3.9727147044010915e+00 2.9259948250423292e+01 1 0 0
4447 1 1.0537909303431880e+01 7.7197073688326712e-01 2.5987650313859902e+01 1 1 -1
3264 1 8.7906178283065852e+00 1.1738512199282066e+01 3.2412311015386081e+01 1 0 0
3476 1 3.9682258539968811e+00 4.2862741985914327e-01 2.5278303947625936e+01 1 1 0
965 1 1.0821396249383497e-02 7.5620259371686611e+00 2.9503340799768978e+01 0 0 0
188 2 0.0000000000000000e+00 1.2787731112280996e+01 3.2689470307355881e+00 0 0 0
190 2 1.2305000000000001e+00 1.3498160618518829e+01 3.2689470307355881e+00 0 0 0
225 2 2.4610000000000003e+00 1.2787731112280996e+01 3.2689470307355881e+00 0 0 0
227 2 3.6915000000000004e+00 1.3498160618518829e+01 3.2689470307355881e+00 0 0 0
186 2 0.0000000000000000e+00 1.5629449137232333e+01 3.2689470307355881e+00 0 0 0
221 2 1.2305000000000001e+00 1.4919019630994494e+01 3.2689470307355881e+00 0 0 0
223 2 2.4610000000000003e+00 1.5629449137232328e+01 3.2689470307355881e+00 0 0 0
266 2 3.6915000000000004e+00 1.4919019630994494e+01 3.2689470307355881e+00 0 0 0
270 2 4.9220000000000006e+00 1.2787731112280996e+01 3.2689470307355881e+00 0 0 0
272 2 6.1524999999999990e+00 1.3498160618518829e+01 3.2689470307355881e+00 0 0 0
317 2 7.3829999999999991e+00 1.2787731112280996e+01 3.2689470307355881e+00 0 0 0
268 2 4.9220000000000006e+00 1.5629449137232333e+01 3.2689470307355881e+00 0 0 0
313 2 6.1524999999999990e+00 1.4919019630994494e+01 3.2689470307355881e+00 0 0 0
315 2 7.3829999999999991e+00 1.5629449137232333e+01 3.2689470307355881e+00 0 0 0
319 2 8.6135000000000002e+00 1.3498160618518835e+01 3.2689470307355881e+00 0 0 0
364 2 9.8440000000000012e+00 1.2787731112280996e+01 3.2689470307355881e+00 0 0 0
366 2 1.1074500000000002e+01 1.3498160618518829e+01 3.2689470307355881e+00 0 0 0
360 2 8.6135000000000002e+00 1.4919019630994494e+01 3.2689470307355881e+00 0 0 0
362 2 9.8440000000000012e+00 1.5629449137232328e+01 3.2689470307355881e+00 0 0 0
402 2 1.1074500000000002e+01 1.4919019630994494e+01 3.2689470307355881e+00 0 0 0
217 2 0.0000000000000000e+00 1.7050308149707998e+01 3.2689470307355881e+00 0 0 0
262 2 2.4610000000000003e+00 1.7050308149707998e+01 3.2689470307355881e+00 0 0 0
215 2 0.0000000000000000e+00 1.9892026174659328e+01 3.2689470307355881e+00 0 0 0
219 2 1.2305000000000001e+00 1.7760737655945832e+01 3.2689470307355881e+00 0 0 0
258 2 1.2305000000000001e+00 1.9181596668421495e+01 3.2689470307355881e+00 0 0 0
260 2 2.4610000000000003e+00 1.9892026174659328e+01 3.2689470307355881e+00 0 0 0
264 2 3.6914999999999996e+00 1.7760737655945832e+01 3.2689470307355881e+00 0 0 0
305 2 3.6914999999999996e+00 1.9181596668421495e+01 3.2689470307355881e+00 0 0 0
309 2 4.9220000000000006e+00 1.7050308149707998e+01 3.2689470307355881e+00 0 0 0
356 2 7.3830000000000009e+00 1.7050308149707998e+01 3.2689470307355881e+00 0 0 0
307 2 4.9220000000000006e+00 1.9892026174659328e+01 3.2689470307355881e+00 0 0 0
311 2 6.1524999999999999e+00 1.7760737655945832e+01 3.2689470307355881e+00 0 0 0
352 2 6.1524999999999999e+00 1.9181596668421495e+01 3.2689470307355881e+00 0 0 0
354 2 7.3829999999999991e+00 1.9892026174659328e+01 3.2689470307355881e+00 0 0 0
398 2 9.8440000000000012e+00 1.7050308149707998e+01 3.2689470307355881e+00 0 0 0
432 2 1.2304999999999998e+01 1.7050308149707998e+01 3.2689470307355881e+00 0 0 0
358 2 8.6134999999999984e+00 1.7760737655945832e+01 3.2689470307355881e+00 0 0 0
394 2 8.6135000000000002e+00 1.9181596668421495e+01 3.2689470307355881e+00 0 0 0
396 2 9.8440000000000012e+00 1.9892026174659335e+01 3.2689470307355881e+00 0 0 0
400 2 1.1074500000000002e+01 1.7760737655945835e+01 3.2689470307355881e+00 0 0 0
428 2 1.1074500000000002e+01 1.9181596668421495e+01 3.2689470307355881e+00 0 0 0
252 2 0.0000000000000000e+00 2.4154603212086325e+01 3.2689470307355881e+00 0 0 0
254 2 0.0000000000000000e+00 2.1312885187134999e+01 3.2689470307355881e+00 0 0 0
256 2 1.2304999999999993e+00 2.2023314693372832e+01 3.2689470307355881e+00 0 0 0
297 2 1.2304999999999993e+00 2.3444173705848499e+01 3.2689470307355881e+00 0 0 0
299 2 2.4610000000000003e+00 2.4154603212086325e+01 3.2689470307355881e+00 0 0 0
301 2 2.4610000000000003e+00 2.1312885187134995e+01 3.2689470307355881e+00 0 0 0
303 2 3.6914999999999996e+00 2.2023314693372832e+01 3.2689470307355881e+00 0 0 0
344 2 3.6915000000000004e+00 2.3444173705848499e+01 3.2689470307355881e+00 0 0 0
346 2 4.9220000000000006e+00 2.4154603212086325e+01 3.2689470307355881e+00 0 0 0
348 2 4.9220000000000006e+00 2.1312885187134995e+01 3.2689470307355881e+00 0 0 0
350 2 6.1524999999999990e+00 2.2023314693372832e+01 3.2689470307355881e+00 0 0 0
386 2 6.1524999999999999e+00 2.3444173705848499e+01 3.2689470307355881e+00 0 0 0
388 2 7.3830000000000009e+00 2.4154603212086336e+01 3.2689470307355881e+00 0 0 0
390 2 7.3829999999999991e+00 2.1312885187134999e+01 3.2689470307355881e+00 0 0 0
392 2 8.6135000000000002e+00 2.2023314693372832e+01 3.2689470307355881e+00 0 0 0
420 2 8.6134999999999984e+00 2.3444173705848499e+01 3.2689470307355881e+00 0 0 0
422 2 9.8440000000000012e+00 2.4154603212086336e+01 3.2689470307355881e+00 0 0 0
424 2 9.8440000000000012e+00 2.1312885187134999e+01 3.2689470307355881e+00 0 0 0
426 2 1.1074500000000002e+01 2.2023314693372832e+01 3.2689470307355881e+00 0 0 0
446 2 1.1074500000000002e+01 2.3444173705848499e+01 3.2689470307355881e+00 0 0 0
189 2 0.0000000000000000e+00 1.2787731112280996e+01 6.2738075328549776e+00 0 0 0
226 2 2.4610000000000003e+00 1.2787731112280996e+01 6.2738075328549776e+00 0 0 0
187 2 0.0000000000000000e+00 1.4208590124756663e+01 6.2738075328549776e+00 0 0 0
222 2 1.2305000000000001e+00 1.4919019630994494e+01 6.2738075328549776e+00 0 0 0
224 2 2.4610000000000003e+00 1.4208590124756663e+01 6.2738075328549776e+00 0 0 0
267 2 3.6915000000000004e+00 1.4919019630994494e+01 6.2738075328549776e+00 0 0 0
271 2 4.9220000000000006e+00 1.2787731112280996e+01 6.2738075328549776e+00 0 0 0