
# Create simulation box and atoms

read_data data.ML_graphite_m1000atm_250K
  orthogonal box = (0 0 1.24595) to (49.22 49.0196 32.694)
  4 by 4 by 4 MPI processor grid
  reading atoms ...
  4560 atoms
  reading velocities ...
  4560 velocities
group water type 1
1800 atoms in group water
group graphite type 2
2760 atoms in group graphite

# Define potential

pair_style sw
pair_coeff * * MLC_e.sw mW C


# Fix graphite atoms in place

fix 5 graphite setforce 0.0 0.0 0.0
velocity graphite set 0.0 0.0 0.0


# Equilibration of molecular water

# Add velocity/set timestep

velocity	    water create ${TEMP} ${SEED} rot yes dist gaussian
velocity	    water create 250 ${SEED} rot yes dist gaussian
velocity	    water create 250 13889 rot yes dist gaussian
timestep	    5.0

# Define output

compute			1 water msd
compute			3 water temp
thermo	    	50
thermo_style	custom step temp press vol etotal ke pe c_1[4] c_3

# Neighbor lists

neigh_modify    delay 0 every 1 check yes

# Set fixes

fix             1 water momentum 10 linear 1 1 1 rescale
fix             2 water nve
fix             3 water temp/csvr ${TEMP} ${TEMP} 500.0 ${SEED}
fix             3 water temp/csvr 250 ${TEMP} 500.0 ${SEED}
fix             3 water temp/csvr 250 250 500.0 ${SEED}
fix             3 water temp/csvr 250 250 500.0 13889
fix             4 water press/berendsen z ${PRES} ${PRES} 1000.0 modulus 20000
fix             4 water press/berendsen z -1000 ${PRES} 1000.0 modulus 20000
fix             4 water press/berendsen z -1000 -1000 1000.0 modulus 20000

# Run 0.5 ns equilibration

dump		    1 all atom 2000 ${DIR}/eq.${NAME}-${TEMP}.dump
dump		    1 all atom 2000 run_6/eq.${NAME}-${TEMP}.dump
dump		    1 all atom 2000 run_6/eq.het_freeze_6-${TEMP}.dump
dump		    1 all atom 2000 run_6/eq.het_freeze_6-250.dump

reset_timestep  0

run	            100000
Neighbor list info ...
  update every 1 steps, delay 0 steps, check yes
  max neighbors/atom: 2000, page size: 100000
  master list distance cutoff = 6.67472
  ghost atom cutoff = 6.67472
  binsize = 3.33736, bins = 15 15 10
  1 neighbor lists, perpetual/occasional/extra = 1 0 0
  (1) pair sw, perpetual
      attributes: full, newton on
      pair build: full/bin/atomonly
      stencil: full/bin/3d
      bin: standard
Per MPI rank memory allocation (min/avg/max) = 4.068 | 4.29 | 4.492 Mbytes
Step Temp Press Volume TotEng KinEng PotEng c_1[4] c_3 
       0     98.65102   -1309.4651    75876.271   -17199.746    1340.6193   -18540.366            0          250 
      50    99.289939   -1479.4972    75850.554   -17221.063    1349.3019   -18570.365   0.54015242    251.61914 
     100    99.576603    -1452.593    75803.024   -17205.934    1353.1975   -18559.132   0.85532044     252.3456 
     150    100.67586   -1390.2126    75830.386   -17217.427    1368.1359   -18585.563    1.0503799    255.13133 
     200    96.747985   -1230.7603    75862.898   -17239.288     1314.758   -18554.046    1.3064466    245.17736 
     250    98.512377   -1438.7275    75855.503   -17227.654    1338.7352   -18566.389    1.4784709    249.64865 
     300    98.381512     -1457.11    75808.583   -17206.345    1336.9568   -18543.302    1.7080775    249.31702 
     350    99.912358   -1100.3551    75852.773   -17236.417    1357.7603   -18594.177     1.894167    253.19646 
     400    98.303238   -1332.2069    75939.008   -17252.543    1335.8931   -18588.436     2.086238    249.11866 
     450    97.637731   -1403.8266    75988.321   -17300.849    1326.8492   -18627.699    2.2763152    247.43214 
     500    97.191409   -1083.1846    76034.248   -17287.967    1320.7839   -18608.751    2.4264918    246.30107 
     550     97.92997   -1342.4169    76054.154   -17315.335    1330.8206   -18646.156    2.5900293    248.17273 
     600    96.349631   -1387.2459    76093.534   -17315.656    1309.3446       -18625    2.7236492    244.16785 
     650    96.982558   -1367.4491    76139.572   -17302.049    1317.9457   -18619.995    2.8777806    245.77181 
     700    94.723501   -1372.3749    76128.827   -17297.061    1287.2463   -18584.307    2.9870223    240.04694 
     750     97.14357   -1263.4399    76110.478   -17279.947    1320.1338   -18600.081     3.107307    246.17984 
     800    99.612942   -1575.8477    76117.851   -17291.373    1353.6914   -18645.065    3.3218361    252.43769 
     850    98.238946   -1560.4114    76102.066   -17307.934    1335.0194   -18642.954    3.5405143    248.95573 
     900    97.888435   -1568.8547    76111.458   -17248.426    1330.2562   -18578.682    3.7121466    248.06747 
     950     97.29567    -1600.599    76054.644   -17269.306    1322.2008   -18591.506    3.9544967    246.56529 
    1000    98.493506   -1605.0333    76035.987   -17220.566    1338.4788   -18559.044    4.0755952    249.60083 
    1050    99.666596   -1267.5612    76059.658   -17203.401    1354.4205   -18557.822    4.2567815    252.57366 
    1100    99.683913   -1452.2375     76067.52   -17216.209    1354.6558   -18570.864    4.4750221    252.61754 
    1150    98.452417    -1374.369    76076.883   -17217.382    1337.9204   -18555.302    4.6835232     249.4967 
    1200    100.27195   -1329.4332    76059.505   -17199.447     1362.647   -18562.094     4.959244    254.10774 
    1250    101.24783   -1169.7818    76087.097    -17201.25    1375.9087   -18577.159    5.0930065    256.58079 
    1300    101.39372   -1424.9201    76147.971   -17222.309    1377.8912     -18600.2     5.146005     256.9505 
    1350    97.263554   -1228.1326    76146.967   -17237.258    1321.7643   -18559.022    5.3016046     246.4839 
    1400    99.264406   -1435.8543    76156.053   -17255.651    1348.9549   -18604.606    5.4806465    251.55443 
    1450      97.1652    -1665.181     76122.87   -17279.502    1320.4278    -18599.93    5.6135197    246.23466 
    1500    98.241545   -1195.8887    76153.242   -17257.092    1335.0548   -18592.146    5.7844713    248.96231 
    1550    93.533351   -1529.1156    76200.266   -17310.715    1271.0727   -18581.788    5.9476582    237.03088 
    1600     96.61184   -1535.1937    76141.657   -17339.791    1312.9079   -18652.699    6.0906317    244.83234 
    1650    96.499808   -1483.6077    76086.252   -17340.185    1311.3854   -18651.571    6.2207361    244.54843 
    1700    94.289612   -1463.7139    76034.158   -17314.303    1281.3499   -18595.653    6.3514787    238.94738 
    1750    95.749477   -1357.8493    76049.299    -17296.13    1301.1888   -18597.319    6.5184802    242.64695 
    1800    92.365651   -1515.5824    76008.515   -17294.618    1255.2042   -18549.822    6.6241875    234.07171 
    1850    98.936506   -1642.9752     75983.33    -17302.56    1344.4989   -18647.059    6.8497832    250.72347 
    1900    95.937205   -1267.8841    75895.629   -17282.636    1303.7399   -18586.376    7.1144794    243.12269 
    1950    97.461157   -1599.2667     75916.67   -17273.836    1324.4497   -18598.286    7.3556644    246.98467 
    2000    97.824519   -1969.7719    75853.386   -17215.909    1329.3876   -18545.296    7.6031909    247.90549 
    2050    96.432833   -1360.5556    75789.626   -17228.671    1310.4752   -18539.147    7.8406844     244.3787 
    2100    97.398143   -1524.4103    75765.557   -17158.995    1323.5933   -18482.589    7.9503192    246.82498 
    2150    101.28333   -1621.8345    75720.748    -17144.45    1376.3911   -18520.842    8.0777939    256.67076 
    2200    100.50773   -1155.4829    75735.095    -17174.79    1365.8511   -18540.641    8.1345189    254.70526 
    2250    97.569188   -1463.3264    75672.319   -17206.712    1325.9178    -18532.63    8.3745664    247.25844 
    2300     99.40883   -1082.8025    75616.936   -17178.629    1350.9176   -18529.546    8.5391438    251.92043 
    2350    98.669476   -1451.1608    75559.706   -17196.884    1340.8701   -18537.754    8.7442056    250.04677 
    2400     99.61076   -1268.3736    75528.609   -17220.897    1353.6617   -18574.559    8.8558381    252.43216 
    2450    99.838402   -1518.0949    75493.959   -17206.532    1356.7553   -18563.288    8.9471224    253.00905 
    2500    98.667215   -1126.2534    75548.319   -17245.031    1340.8394   -18585.871    9.1854367    250.04104 
    2550    97.454249   -1337.2486    75560.414   -17258.943    1324.3558   -18583.298    9.3730541    246.96716 
    2600    97.193867   -1502.7976    75593.902   -17275.824    1320.8173   -18596.642    9.5363619     246.3073 
    2650    95.852361   -1371.3129    75576.341   -17262.266    1302.5869   -18564.853    9.7864714    242.90768 
    2700    96.769726   -1057.9564    75578.917   -17274.332    1315.0535   -18589.385    9.8466311    245.23245 
    2750    96.160588   -1503.6299    75619.343   -17272.316    1306.7756   -18579.092    9.9528263    243.68878 
    2800    96.592276   -1273.5187    75671.651   -17270.132     1312.642   -18582.774    10.101343    244.78276 
    2850    97.091058   -1305.0997    75753.674   -17238.908    1319.4202   -18558.328    10.260593    246.04677 
    2900    97.858098   -1475.6721    75835.091   -17242.302    1329.8439   -18572.146    10.364314    247.99059 
    2950    97.148187   -1464.3419    75829.328   -17256.968    1320.1965   -18577.165    10.535663    246.19154 
    3000    95.977524   -1367.3826    75752.335   -17302.846    1304.2878   -18607.134    10.659735    243.22486 
    3050    96.257272   -1356.8929    75757.135   -17290.071    1308.0895   -18598.161    10.706607     243.9338 
    3100    95.371357   -1126.7283    75788.937   -17249.398    1296.0503   -18545.448    10.840205    241.68873 
    3150     98.87754   -1314.8644    75836.557   -17220.911    1343.6976   -18564.609    11.027285    250.57404 
    3200    97.161555   -1548.5708    75839.201   -17235.028    1320.3782   -18555.407    11.250405    246.22542 
    3250    99.388556   -1567.8308    75856.389   -17213.945    1350.6421   -18564.587    11.316094    251.86905 
    3300    98.763533   -1420.2206    75855.499    -17200.46    1342.1483   -18542.609    11.545464    250.28513 
    3350    96.528364   -1582.1917    75833.887   -17212.145    1311.7735   -18523.919    11.869218     244.6208 
    3400    101.96723   -1544.9031    75771.001   -17198.095    1385.6851    -18583.78    12.113198     258.4039 
    3450    97.962521   -1143.2223    75743.819   -17209.179     1331.263   -18540.442    12.326534    248.25522 
    3500    99.739679   -917.97175    75807.067   -17193.025    1355.4137   -18548.439    12.322248    252.75886 
    3550    101.42874   -1095.8743    75822.872   -17151.484    1378.3672   -18529.851    12.527317    257.03927 
    3600    100.36332   -1576.8624    75836.156   -17147.699    1363.8887   -18511.588    12.747345    254.33929 
    3650    98.785757   -1148.8167    75825.359   -17167.544    1342.4503   -18509.994    12.954404    250.34145 
    3700    98.550831   -1286.6771    75877.879   -17151.791    1339.2578   -18491.048    13.111979     249.7461 
    3750    99.049543   -996.18287    75948.152   -17208.233    1346.0351   -18554.268    13.260723    251.00993 
    3800    99.516803   -1494.4716    75963.156    -17195.43    1352.3849   -18547.815    13.424923    252.19406 
    3850    99.089386    -1593.852    75911.296   -17238.605    1346.5765   -18585.181    13.723424     251.1109 
    3900     96.83068   -1447.9699    75856.518   -17259.097    1315.8818   -18574.979    13.835029    245.38692 
    3950    97.571298   -1149.0602    75818.835   -17293.414    1325.9464   -18619.361    13.870143    247.26378 
    4000    102.37417   -1073.0217    75871.087   -17283.696    1391.2151   -18674.911    14.134833    259.43515 
    4050    98.109605   -1271.0844    75938.371   -17264.514    1333.2618   -18597.776    14.316165    248.62795 
    4100    98.059469   -1447.6465     75918.15    -17267.74    1332.5804    -18600.32    14.450448     248.5009 
    4150    99.624951   -1335.3504    75860.345    -17260.53    1353.8546   -18614.385     14.51553    252.46812 
    4200    98.256502   -1197.0887    75857.756   -17274.372     1335.258    -18609.63    14.676367    249.00022 
    4250    100.91711   -1475.0845    75825.952   -17266.143    1371.4144   -18637.558    14.861575     255.7427 
    4300    98.388453     -1409.03    75844.823   -17289.933    1337.0512   -18626.984    15.046061    249.33461 
    4350    98.177133   -1655.6731    75877.303   -17318.803    1334.1794   -18652.983    15.231635    248.79908 
    4400    98.060689   -1387.3802      75912.6   -17311.781     1332.597   -18644.378    15.466638    248.50399 
    4450    97.476063   -1191.3319    75880.156   -17344.235    1324.6522   -18668.887    15.457713    247.02244 
    4500    96.738359   -1138.3608    75890.684   -17349.606    1314.6272   -18664.233    15.556339    245.15296 
    4550    97.230394   -1158.4527    75937.442   -17343.068    1321.3137   -18664.381    15.740104    246.39987 
    4600    95.122596     -1331.23    75887.293   -17327.035    1292.6698   -18619.704    15.943927    241.05832 
    4650    93.820918   -1129.3269    75898.898    -17315.45    1274.9806    -18590.43    15.982114    237.75963 
    4700    99.271975    -1271.988    75907.301   -17298.096    1349.0578   -18647.153    16.193516    251.57361 
    4750    96.447077    -1455.265    75871.204   -17318.666    1310.6688   -18629.335    16.322521     244.4148 
    4800    96.788062   -1487.8894    75842.835   -17308.615    1315.3026   -18623.918     16.55547    245.27892 
    4850    96.219235   -1179.7238    75900.364   -17294.168    1307.5726   -18601.741    16.847132    243.83741 
    4900    100.22212   -1132.1628    75942.365   -17249.443    1361.9697   -18611.413    17.001774    253.98145 
    4950    95.955333   -1512.7542    75963.458   -17256.987    1303.9862   -18560.974    17.235977    243.16863 
    5000    101.87931   -1328.0513    75941.491   -17232.237    1384.4902   -18616.727    17.122582    258.18109 
    5050    98.711977   -1495.6883    75896.653   -17229.518    1341.4477   -18570.965    17.270835    250.15448 
    5100    99.953684   -1515.3489    75803.484   -17250.833    1358.3219   -18609.155    17.366428    253.30119 
    5150    98.751395   -1318.8591    75748.457   -17246.607    1341.9834   -18588.591    17.542627    250.25437 
    5200    101.09991   -1747.9221    75651.604   -17249.223    1373.8985   -18623.122    17.659226    256.20594 
    5250    100.22198   -1564.0627    75570.903   -17246.229    1361.9679   -18608.197     17.69325    253.98111 
    5300     97.47616   -1258.9113    75516.391   -17282.977    1324.6535    -18607.63    18.106516    247.02269 
    5350    95.144795   -1615.2901    75485.702   -17300.567    1292.9714   -18593.539    18.388109    241.11457 
    5400     98.80403   -1406.5234     75566.95   -17293.237    1342.6986   -18635.936    18.534388    250.38776 
    5450    100.89646   -1349.8519    75616.933   -17257.408    1371.1338   -18628.542    18.635624    255.69037 
    5500    99.617041   -1098.8257    75607.572   -17271.259    1353.7471   -18625.006     18.77512    252.44808 
    5550     98.35914    -1206.629    75597.165   -17253.796    1336.6528   -18590.449    18.958492    249.26032 
    5600    100.57939   -1240.4716    75605.353   -17246.601    1366.8249   -18613.426    19.190523    254.88684 
    5650    98.577334   -1009.2028    75669.346   -17295.899     1339.618   -18635.517    19.240951    249.81327 
    5700    100.57861    -960.7296    75725.003   -17274.287    1366.8143   -18641.101    19.413816    254.88487 
    5750    101.23401   -1319.7003    75682.825   -17258.342    1375.7209   -18634.063    19.806565    256.54577 
    5800    101.99336    -1382.387     75644.86    -17247.82    1386.0402   -18633.861    20.086382    258.47012 
    5850    100.32301   -994.89373    75681.825   -17267.347    1363.3409   -18630.688    20.422194    254.23714 
    5900    97.880811   -1264.3807    75703.483   -17311.095    1330.1526   -18641.248    20.668351    248.04815 
    5950    96.379219   -1342.7991    75693.117   -17311.662    1309.7466   -18621.408    20.962461    244.24283 
    6000    100.22371   -1377.3834    75649.212    -17267.49    1361.9915   -18629.482     21.01833     253.9855 
    6050    99.775344   -1354.4316    75645.087   -17297.693    1355.8983   -18653.591    21.143329    252.84925 
    6100    99.562198    -1255.234    75681.358   -17294.889    1353.0018   -18647.891    21.344468    252.30909 
    6150    98.159905   -1099.6817    75651.437   -17303.196    1333.9453   -18637.141    21.527199    248.75542 
    6200    96.787953   -1297.2879    75655.303   -17333.993    1315.3011   -18649.294    21.641613    245.27864 
    6250     98.40099   -1310.5195    75664.064   -17346.268    1337.2215   -18683.489    21.687644    249.36638 
    6300    96.681377   -1711.2159    75673.826   -17353.605    1313.8528   -18667.458    21.780161    245.00856 
    6350    96.623424   -1218.5537    75734.474   -17358.918    1313.0653   -18671.984    21.931712     244.8617 
    6400    96.798794   -1238.8616    75835.779   -17344.412    1315.4485    -18659.86    22.127661    245.30612 
    6450     98.11095   -1540.9074     75816.66   -17345.934      1333.28   -18679.214    22.085701    248.63136 
    6500    96.061548   -1281.5324    75862.444   -17381.318    1305.4297   -18686.748    22.044957     243.4378 
    6550    97.039493   -1487.6518    75861.138    -17371.36    1318.7195   -18690.079     22.09752    245.91609 
    6600    98.567528   -1520.3062    75885.435   -17358.908    1339.4847   -18698.393    22.259386    249.78841 
    6650    96.672124   -999.47688    75937.405   -17369.668    1313.7271   -18683.395    22.475322    244.98511 
    6700    100.42253   -1530.6398    75929.087    -17344.46    1364.6933   -18709.153    22.544739    254.48934 
    6750    97.430214   -1028.7543    75902.525   -17326.768    1324.0292   -18650.797     22.69489    246.90625 
    6800    98.833668   -1185.0298    75952.792   -17343.811    1343.1014   -18686.913    22.943534    250.46286 
    6850     97.14493   -1492.8116     75967.33   -17339.165    1320.1523   -18659.318     22.98288    246.18329 
    6900    101.61084   -1156.2477    76004.073   -17317.831    1380.8418   -18698.673    23.025604    257.50073 
    6950    95.642888   -984.96528    76032.489    -17326.73    1299.7403    -18626.47    23.038876    242.37683 
    7000    97.835618   -1214.3596    76050.853   -17314.218    1329.5384   -18643.757    23.274804    247.93362 
    7050    96.532603   -1409.5703    76052.232   -17328.907    1311.8311   -18640.738    23.284823    244.63154 
    7100    95.366444   -1198.6063    76036.712   -17319.138    1295.9835   -18615.121    23.411419    241.67627 
    7150    98.565906   -1389.0532    76033.794   -17316.455    1339.4627   -18655.918    23.623048     249.7843 
    7200    99.099434   -1325.0567    76029.654   -17314.017    1346.7131    -18660.73    23.645058    251.13637 
    7250    99.929044   -1233.7441    76016.251   -17264.397     1357.987   -18622.384    23.800168    253.23875 
    7300    99.011735   -1586.9289    76002.853   -17274.286    1345.5213   -18619.807    23.812354    250.91412 
    7350    98.430535   -1562.6361     75965.28   -17297.437     1337.623    -18635.06    24.142987    249.44125 
    7400    97.017178   -1638.3396    75995.216   -17297.337    1318.4162   -18615.753    24.129047    245.85954 
    7450    98.661174   -1400.2427    75974.364   -17307.814    1340.7573   -18648.572    24.151081    250.02573 
    7500    99.778177   -1340.0288    75998.238   -17324.037    1355.9368   -18679.974    24.312927    252.85643 
    7550    99.430311    -1476.572    75999.716   -17323.615    1351.2095   -18674.824     24.32581    251.97487 
    7600    100.69228   -1644.0923    75962.056    -17354.44     1368.359   -18722.799    24.652687    255.17293 
    7650    98.390702   -1401.6089     75890.38   -17341.232    1337.0817   -18678.313    24.793798     249.3403 
    7700    100.21871    -1364.942    75841.412   -17324.917    1361.9235   -18686.841    24.952051    253.97283 
    7750    97.962754   -1161.0333    75809.431    -17337.35    1331.2661   -18668.616    24.981892    248.25581 
    7800    98.622372    -915.0685    75822.812   -17340.345      1340.23   -18680.575    25.231614     249.9274 
    7850    98.669038    -1326.094    75824.287   -17310.482    1340.8642   -18651.346    25.301147    250.04566 
    7900    98.710755    -1381.483    75778.193   -17268.871    1341.4311   -18610.302    25.397012    250.15138 
    7950    97.358812   -1421.8222    75752.517   -17285.875    1323.0588   -18608.934    25.584445    246.72531 
    8000    97.292965   -1062.7166    75673.398   -17288.082     1322.164   -18610.246     25.58888    246.55844 
    8050    100.39852   -1450.1394    75649.372   -17289.782     1364.367   -18654.149    25.549406    254.42849 
    8100    97.450055   -1473.0359    75587.769   -17280.016    1324.2988   -18604.315      25.9091    246.95653 
    8150    100.47751   -1358.4884     75583.09    -17297.04    1365.4404   -18662.481     26.04609    254.62866 
    8200     99.12471   -1287.5481    75573.338   -17280.452    1347.0565   -18627.508    26.107834    251.20042 
    8250    101.26833   -1259.4699     75569.36   -17243.342    1376.1873   -18619.529    26.297077    256.63275 
    8300    102.30997   -951.55606    75595.385   -17236.169    1390.3427   -18626.511    26.533853    259.27246 
    8350    102.29393   -1216.0381    75604.096    -17192.66    1390.1247   -18582.785    26.823364    259.23181 
    8400    101.17782   -1444.5091    75589.182   -17217.081    1374.9573   -18592.038    27.108454    256.40338 
    8450    99.130368   -1052.8295    75561.114   -17259.817    1347.1334   -18606.951     27.24823    251.21476 
    8500    98.234657   -1363.0656    75607.543   -17289.666    1334.9611   -18624.627    27.512668    248.94486 
    8550    98.787695   -1321.5529    75665.121   -17324.835    1342.4767   -18667.312    27.667425    250.34636 
    8600    99.192348   -1553.7355    75592.084   -17317.954    1347.9757   -18665.929    27.591347    251.37183 
    8650    100.14091   -1181.6617    75557.176   -17327.313    1360.8662   -18688.179    27.930562    253.77565 
    8700    97.333725   -1398.3395    75593.375   -17310.172    1322.7179    -18632.89    28.217024    246.66173 
    8750    99.856961   -1647.4249    75561.822   -17268.076    1357.0075   -18625.083    28.353509    253.05608 
    8800    100.75088   -1412.8734    75469.423   -17248.364    1369.1553    -18617.52     28.49683    255.32143 
    8850    100.03707   -1701.8657    75454.509    -17268.57    1359.4551   -18628.026    28.634894    253.51251 
    8900    99.867329   -1630.6156    75345.904   -17304.121    1357.1484    -18661.27     29.03433    253.08235 
    8950    97.858999   -1368.3968    75329.692    -17317.89    1329.8561   -18647.746    29.337533    247.99287 
    9000    97.415611   -1406.9043     75341.37   -17304.812    1323.8307   -18628.643    29.747603    246.86924 
    9050    98.837051   -1462.1706    75343.466   -17306.813    1343.1474    -18649.96     29.98686    250.47144 
    9100    100.71566   -1038.3957     75389.24   -17292.289    1368.6768   -18660.965    30.007373    255.23218 
    9150    97.374403   -1398.0143    75445.761   -17309.164    1323.2707   -18632.434    30.343111    246.76482 
    9200    97.057093   -1257.4433    75472.854   -17340.651    1318.9586    -18659.61    30.567463    245.96069 
    9250    95.759434   -1489.7612    75480.042   -17364.181    1301.3241   -18665.505    30.663914    242.67219 
    9300    95.425848   -1462.6098    75458.094   -17356.602    1296.7908   -18653.393    30.843979    241.82682 
    9350    94.638853   -1559.5982    75424.203   -17361.775    1286.0959   -18647.871    30.834218    239.83242 
    9400    96.733774   -1516.0804    75437.765   -17333.515    1314.5649    -18648.08    30.831418    245.14134 
    9450    96.243977   -1158.0025    75474.018   -17328.945    1307.9088   -18636.853    30.958214    243.90011 
    9500    94.453798    -1345.892    75551.822   -17342.687    1283.5811   -18626.268    31.047226    239.36346 
    9550    96.839279   -924.60289    75592.835   -17275.925    1315.9986   -18591.924    30.934627    245.40871 
    9600    97.882473    -1634.681     75625.65   -17275.861    1330.1751   -18606.036    31.016981    248.05236 
    9650    98.961304    -1102.607    75631.852    -17268.18    1344.8359   -18613.016    31.026566    250.78632 
    9700    94.971004   -1267.7474    75657.665   -17296.123    1290.6097   -18586.732    31.061083    240.67416 
    9750    99.784966   -1490.9837     75650.52   -17263.591    1356.0291    -18619.62    31.384992    252.87363 
    9800    99.279039   -1322.6491    75592.209    -17270.52    1349.1538   -18619.674    31.454431    251.59152 
    9850    97.145589   -1383.3175    75620.023   -17305.155    1320.1612   -18625.316    31.485352    246.18496 
    9900    96.146057    -1511.754    75632.919   -17324.122    1306.5781     -18630.7    31.481576    243.65196 
    9950    98.498644   -1427.5745    75632.075   -17294.921    1338.5486    -18633.47    31.561913    249.61385 
   10000    98.126031   -1594.3685    75622.178   -17303.434     1333.485   -18636.919    31.597519    248.66958 
   10050    97.748308   -1388.5909    75597.014   -17339.177    1328.3519   -18667.529    31.907593    247.71236 
   10100    99.406607   -1379.3141    75570.066   -17313.962    1350.8874    -18664.85    32.037398     251.9148 
   10150    99.703897   -1322.5587    75586.153   -17273.714    1354.9274   -18628.641    31.987884    252.66818 
   10200    97.474748   -1255.3026    75600.137   -17299.037    1324.6344   -18623.672    32.305812    247.01911 
   10250    99.292266    -1488.635    75620.308   -17302.923    1349.3335   -18652.256    32.707243    251.62504 
   10300    94.945009    -1391.681    75583.391   -17307.631    1290.2564   -18597.887    32.572437    240.60828 
   10350    97.941499   -1514.5145    75573.129   -17373.139    1330.9773   -18704.116    32.655399    248.20194 
   10400     94.56246   -1228.6612    75575.674   -17363.924    1285.0578   -18648.982    32.932634    239.63883 
   10450    96.145857   -1374.8524    75589.642   -17344.147    1306.5754   -18650.722    33.133678    243.65145 
   10500    98.175486   -1300.7682    75608.383   -17366.805     1334.157   -18700.963    33.170847    248.79491 
   10550    95.944332   -1260.9709    75617.752   -17350.969    1303.8368   -18654.806    33.220118    243.14075 
   10600    98.148828   -1390.9648    75676.947   -17341.143    1333.7948   -18674.938    33.347068    248.72735 
   10650    98.773674   -1230.6907    75710.446    -17333.41    1342.2861   -18675.696    33.688274    250.31083 
   10700     98.47644   -1196.2493    75767.719   -17343.013    1338.2469    -18681.26    33.924668    249.55758 
   10750    96.573479   -1132.5733    75816.757   -17376.281    1312.3865   -18688.667    33.904247    244.73512 
   10800    100.13674   -1357.9158    75847.298   -17352.353    1360.8095   -18713.162    34.062913    253.76508 
   10850    96.289581   -1323.6005    75846.889   -17339.663    1308.5285   -18648.192    34.262056    244.01568 
   10900    100.48699   -1129.1502    75858.277   -17364.164    1365.5693   -18729.733    34.519979    254.65269 
   10950    97.850472   -1204.6599    75878.669   -17354.447    1329.7403   -18684.187    34.439332    247.97126 
   11000    102.33057   -1433.3385    75897.134   -17354.639    1390.6226   -18745.261    34.406998    259.32467 
   11050    96.401026     -1255.21    75876.089   -17365.488     1310.043   -18675.531    34.532327     244.2981 
   11100    97.984093   -1390.7977    75916.915   -17423.497    1331.5561   -18755.054    34.619196    248.30988 
   11150    95.903223   -1494.3351     75877.21   -17430.038    1303.2781   -18733.316    34.789692    243.03657 
   11200    98.972688   -1320.5667    75890.547   -17397.245    1344.9906   -18742.235    34.831002    250.81517 
   11250    102.75645    -1334.338    75917.756   -17343.604    1396.4102   -18740.014    35.095154    260.40393 
   11300    96.231753   -1533.7425    75978.267   -17367.946    1307.7427   -18675.688    35.417423    243.86913 
   11350     97.69725   -1545.9822    76033.693   -17357.204     1327.658   -18684.862    35.484241    247.58297 
   11400    97.294063   -1298.0337    76046.682   -17317.214    1322.1789   -18639.393    35.435458    246.56122 
   11450    99.592347   -1466.1503    76027.202   -17278.858    1353.4115    -18632.27    35.316543     252.3855 
   11500    99.704956   -1168.8134     75993.29    -17299.49    1354.9418   -18654.432    35.612278    252.67087 
   11550    99.712231   -1299.9901    76002.274   -17277.754    1355.0407   -18632.794    35.778551    252.68931 
   11600    100.29316   -852.44909    75978.925   -17253.653    1362.9352   -18616.589    35.928377    254.16148 
   11650    99.953224   -925.00226    76068.239   -17269.829    1358.3156   -18628.145    36.113418    253.30003 
   11700    99.916108   -1049.4168    76182.922   -17273.779    1357.8113    -18631.59    36.254941    253.20597 
   11750    96.640142   -1656.1263    76231.162   -17274.109    1313.2925   -18587.401    36.245226    244.90406 
   11800    97.958795   -852.35022    76291.805   -17259.026    1331.2123   -18590.238    36.178942    248.24577 
   11850    98.921358   -1271.0701    76347.276   -17294.898    1344.2931   -18639.191    36.289594    250.68509 
   11900     97.11754   -1402.0952     76340.38   -17313.039    1319.7801   -18632.819    36.494813    246.11388 
   11950    97.866212   -1743.3751    76288.691   -17318.323    1329.9542   -18648.277    36.582247    248.01115 
   12000    99.962315    -1571.618    76248.287   -17320.302    1358.4392   -18678.741    36.841181    253.32306 
   12050    97.356229   -924.64741    76226.091   -17345.985    1323.0237   -18669.009    36.922031    246.71876 
   12100    99.761178   -1233.2311    76215.163   -17315.916    1355.7058   -18671.622    37.041447    252.81335 
   12150    98.771276   -1293.3774    76254.304    -17353.19    1342.2535   -18695.443     37.47684    250.30475 
   12200    97.116321   -1695.9663    76226.489   -17347.589    1319.7635   -18667.353    37.529962    246.11079 
   12250    97.410733   -1586.9145    76115.095   -17377.199    1323.7644   -18700.963    37.491839    246.85688 
   12300    98.247417   -1398.3151    76149.357   -17362.428    1335.1346   -18697.563    37.477348     248.9772 
   12350    95.245623   -1245.9516    76185.261   -17363.564    1294.3416   -18657.906    37.665644    241.37009 
   12400    102.69874   -1357.5166    76233.504   -17360.694    1395.6259    -18756.32    38.013319    260.25768 
   12450    99.097651   -1471.5464    76232.457   -17304.184    1346.6888   -18650.873    38.059694    251.13184 
   12500    95.534516   -1348.6579    76218.949   -17345.489    1298.2675   -18643.756    38.145191     242.1022 
   12550    96.695139   -1023.8939     76250.45   -17377.794    1314.0399   -18691.834    38.167692    245.04344 
   12600    98.843664   -1309.7383     76261.11   -17327.029    1343.2373   -18670.267    38.251351    250.48819 
   12650    98.731525    -1341.332     76281.14    -17327.25    1341.7134   -18668.964    38.591916    250.20402 
   12700    95.988391   -1380.2865    76310.998   -17333.731    1304.4355   -18638.166    38.934979    243.25241 
   12750    99.016719   -1464.9993    76324.377   -17335.601     1345.589    -18681.19    39.232668    250.92675 
   12800    95.907346   -1616.2509    76341.088    -17338.68    1303.3341   -18642.015    39.471345    243.04702 
   12850    97.526682   -1380.9556    76323.843   -17355.266    1325.3401   -18680.606    39.732459    247.15072 
   12900      100.022   -1622.9555    76317.915   -17314.339    1359.2502   -18673.589    39.860299    253.47431 
   12950    101.88251   -1115.7212    76234.025   -17325.326    1384.5337    -18709.86    39.716777    258.18919 
   13000    98.535411   -1312.0757    76251.992   -17310.714    1339.0483   -18649.763    39.893647    249.70703 
   13050    104.51411   -1456.7999    76232.756    -17299.45    1420.2958   -18719.746    40.238119    264.85815 
   13100    99.311115   -1455.3926    76164.236   -17299.553    1349.5897   -18649.143    40.576014     251.6728 
   13150    102.20793   -1390.4774    76124.262   -17304.167     1388.956   -18693.123    40.754566    259.01386 
   13200    101.33342   -1238.8531    76192.482   -17314.523    1377.0718   -18691.594    40.889193    256.79769 
   13250    96.029497   -1572.6757    76160.918     -17336.3    1304.9941   -18641.294     40.94374    243.35657 
   13300    98.499899   -1418.5062    76139.227   -17325.635    1338.5657     -18664.2    41.111959    249.61703 
   13350    95.994522   -1116.9075    76162.118   -17370.563    1304.5188   -18675.082    41.391682    243.26794 
   13400    97.408801   -1110.3889    76240.893   -17342.222    1323.7382   -18665.961    41.556819    246.85199 
   13450    98.299391   -1335.3034    76186.724    -17340.95    1335.8409   -18676.791    41.511872    249.10891 
   13500    98.465452   -1217.6887    76173.004   -17336.637    1338.0975   -18674.735    41.479752    249.52974 
   13550    97.975856   -1372.3165     76072.15   -17352.618    1331.4442   -18684.062    41.758332    248.28901 
   13600    97.888306   -1164.2835    76035.942   -17356.797    1330.2544   -18687.052    41.879601    248.06714 
   13650    95.220944   -979.85437    76064.575       -17383    1294.0063   -18677.006    42.015417    241.30755 
   13700     95.97801   -1564.7119    76077.826   -17406.002    1304.2944   -18710.296    41.930646     243.2261 
   13750    96.465271   -1532.8655    76065.278   -17418.224    1310.9161    -18729.14    42.002546    244.46091 
   13800    97.056087   -1227.3107    76091.264   -17341.544     1318.945   -18660.489    42.325604    245.95814 
   13850    95.518779    -1403.784    76067.791   -17354.089    1298.0537   -18652.143    42.578544    242.06232 
   13900    96.619405   -1658.5915    76053.855   -17304.394    1313.0107   -18617.404    42.927975    244.85151 
   13950    101.03488   -1497.0871    76053.345   -17284.361    1373.0149   -18657.376    42.908824    256.04115 
   14000    101.69162   -1488.5192    76032.313   -17253.724    1381.9396   -18635.664    43.204719    257.70545 
   14050    98.660434   -1372.5123    76068.541   -17271.433    1340.7473    -18612.18     43.30548    250.02386 
   14100    97.096986   -1603.3069     76081.89   -17282.684    1319.5008   -18602.184    43.559819    246.06179 
   14150    99.116835   -1353.5332    76061.881   -17290.754    1346.9495   -18637.704    43.399172    251.18046 
   14200    97.343763   -1034.2825    76132.524   -17302.964    1322.8543   -18625.819     43.63906    246.68717 
   14250    99.306911   -1243.5201    76217.972   -17298.667    1349.5326     -18648.2    43.492675    251.66215 
   14300    97.440194   -1332.8323    76264.445   -17289.487    1324.1648   -18613.652    43.597679    246.93154 
   14350    102.64978   -1293.7648    76271.955   -17287.498    1394.9606   -18682.458    43.646917    260.13361 
   14400    97.952314   -1260.0275    76256.019   -17290.466    1331.1242    -18621.59    43.648287    248.22935 
   14450    99.113271   -1443.8521    76245.002   -17292.879    1346.9011    -18639.78     43.79396    251.17143 
   14500    99.100367   -1204.1157    76253.892   -17332.815    1346.7257   -18679.541    44.035543    251.13873 
   14550    98.403303   -1085.7309    76310.699   -17344.689     1337.253   -18681.942    44.126858    249.37224 
   14600    97.205542   -1133.3878    76320.146   -17384.198     1320.976   -18705.174    44.493774    246.33689 
   14650    96.146301    -1070.558     76329.62   -17392.904    1306.5814   -18699.485    44.567349    243.65258 
   14700    100.68235   -1152.8964    76373.242   -17346.865    1368.2241   -18715.089    44.805932    255.14776 
   14750    97.188605   -1247.0231    76420.466   -17349.788    1320.7458   -18670.533    44.978885    246.29397 
   14800    97.505368    -1150.993    76462.195    -17354.05    1325.0505   -18679.101    45.034844     247.0967 
   14850    99.286058   -1327.6899    76471.584   -17330.727    1349.2492   -18679.976    45.179859     251.6093 
   14900    98.724009   -1359.9089    76467.183   -17311.806    1341.6112   -18653.417    45.343032    250.18497 
   14950    99.029638   -1215.9749    76496.307   -17289.622    1345.7646   -18635.387    45.436809    250.95949 
   15000    95.987799   -1284.9577    76528.167   -17351.405    1304.4274   -18655.832    45.778491     243.2509 
   15050    96.621683   -966.71186    76614.097   -17342.794    1313.0416   -18655.836    45.837418    244.85728 
   15100    99.349015   -1364.8397    76623.584   -17314.647    1350.1047   -18664.752    45.975391    251.76885 
   15150    98.343204   -1509.7798    76632.478   -17316.384    1336.4362    -18652.82    46.195319    249.21994 
   15200    99.626053   -1459.1702    76628.483    -17343.28    1353.8695   -18697.149    46.326983    252.47091 
   15250    98.126287   -1404.3749    76652.163   -17332.053    1333.4885   -18665.542    46.545846    248.67023 
   15300    97.923328     -1494.31    76640.787   -17312.005    1330.7303   -18642.735    46.864917    248.15589 
   15350    100.13005   -1553.9995    76617.122   -17296.323    1360.7186   -18657.042    47.045886    253.74813 
   15400    99.518564   -1832.0003    76559.428   -17322.174    1352.4088   -18674.583    47.266443    252.19852 
   15450    98.709965   -1409.3158    76493.241   -17341.128    1341.4204   -18682.548    47.405125    250.14938 
   15500    96.186724   -1414.1112    76538.175    -17343.94    1307.1307    -18651.07    47.365564    243.75502 
   15550    98.502096   -1495.6425    76492.271   -17317.102    1338.5955   -18655.697    47.245935     249.6226 
   15600    99.224496    -1551.208    76368.794   -17254.961    1348.4126   -18603.373    47.492885     251.4533 
   15650    101.12088   -1279.2148    76388.516   -17255.864    1374.1835   -18630.047    47.497396    256.25908 
   15700    99.044113   -1232.6382    76427.349   -17204.056    1345.9613   -18550.018    47.728949    250.99617 
   15750    102.78508   -1408.5927    76421.398   -17204.094    1396.7992   -18600.893     47.79773    260.47649 
   15800     99.87956   -1574.9822    76413.828    -17216.94    1357.3146   -18574.255    47.901591    253.11335 
   15850    103.58089   -1448.5287    76317.762    -17228.08    1407.6138   -18635.694    48.034164     262.4932 
   15900    98.639975   -1618.4306    76234.919   -17278.974    1340.4692   -18619.443    48.128109    249.97201 
   15950    100.58025   -1612.9108    76246.659    -17296.07    1366.8367   -18662.906    48.231842    254.88904 
   16000    100.59287   -1451.8582    76202.018    -17320.02    1367.0082   -18687.028    48.693069    254.92102 
   16050    97.647398   -1342.7731    76209.326    -17311.49    1326.9806    -18638.47    48.666834    247.45664 
   16100    99.701682   -1336.8334    76189.912   -17314.807    1354.8973   -18669.704     48.75629    252.66257 
   16150    99.225321   -1350.4808    76213.784   -17359.497    1348.4238   -18707.921      48.7354    251.45539 
   16200    98.053974   -1324.0257    76232.432   -17365.403    1332.5058   -18697.909    49.103375    248.48697 
   16250    98.778742   -1309.3057    76287.388   -17322.203     1342.355   -18664.558    49.174086    250.32367 
   16300    98.638162   -1471.7774    76271.846   -17325.425    1340.4446    -18665.87     49.27153    249.96741 
   16350    100.05069   -1526.3918    76240.247   -17306.693    1359.6401   -18666.333    49.437143    253.54701 
   16400    97.097555   -1521.6641    76249.206   -17297.428    1319.5085   -18616.937    49.610136    246.06323 
   16450    100.06884   -1410.3347    76186.194   -17298.172    1359.8868   -18658.059    49.564434    253.59303 
   16500    97.521669   -1344.1027     76184.12   -17296.522     1325.272   -18621.794    49.621252    247.13801 
   16550    102.54067    -1412.297    76179.301   -17267.154    1393.4778   -18660.631    49.858387    259.85711 
   16600     100.0764   -1268.3783    76236.239   -17315.395    1359.9895   -18675.384    49.601033    253.61217 
   16650    97.838106   -1209.5985    76326.255   -17296.067    1329.5722   -18625.639    49.563608    247.93993 
   16700    96.178841   -1355.2162    76320.636   -17324.927    1307.0236    -18631.95     49.77875    243.73504 
   16750    99.609426   -1252.5524    76347.266    -17287.98    1353.6436   -18641.623    49.989345    252.42878 
   16800    99.882726   -1235.4897    76381.017   -17302.978    1357.3576   -18660.335    50.167377    253.12137 
   16850    99.046358    -1562.882    76416.872   -17307.031    1345.9918   -18653.023    50.502091    251.00186 
   16900    98.895633   -1434.6214    76361.949   -17281.649    1343.9435   -18625.592    51.028181    250.61989 
   16950    98.332301   -1566.3086    76442.759   -17303.112    1336.2881     -18639.4    51.365813    249.19231 
   17000    99.107584   -1373.7895    76460.664   -17312.233    1346.8238   -18659.056    51.240166    251.15702 
   17050     99.91892   -1566.9008    76434.756   -17328.791    1357.8495    -18686.64    51.324731    253.21309 
   17100    99.046621   -1550.9745    76361.512    -17345.37    1345.9953   -18691.366    51.526075    251.00253 
   17150    97.703199   -1569.5979    76323.024   -17348.509    1327.7389   -18676.247    51.616191    247.59805 
   17200    97.661053    -1491.802    76274.962   -17319.122    1327.1662   -18646.288    51.889039    247.49124 
   17250    96.712666   -1522.3627    76224.976   -17332.441     1314.278   -18646.719    51.725094    245.08785 
   17300    102.06954   -1247.7511    76209.527   -17334.918    1387.0753   -18721.993     51.68059    258.66316 
   17350    98.164399   -1522.6094    76170.857   -17331.787    1334.0064   -18665.794    51.640123    248.76681 
   17400    98.809158   -1401.3116     76098.16   -17320.528    1342.7683   -18663.297    51.646829    250.40075 
   17450    98.320347   -1202.5809    76098.462   -17314.223    1336.1256   -18650.348    51.899685    249.16201 
   17500    97.860601   -1585.2585    76121.407   -17350.818    1329.8779   -18680.696    52.267519    247.99693 
   17550     97.42818   -1444.6116    76084.306   -17386.499    1324.0015   -18710.501    52.246877     246.9011 
   17600     99.65323   -1768.3942    76054.404   -17362.255    1354.2389   -18716.494      52.5648    252.53979 
   17650    95.430521   -1880.1127    75947.529   -17380.501    1296.8543   -18677.355    52.721755    241.83866 
   17700    97.756257   -1681.6139    75937.819   -17358.189    1328.4599   -18686.649    52.885867    247.73251 
   17750    98.315055   -1483.8968    75979.513   -17321.205    1336.0537   -18657.259     53.36461     249.1486 
   17800    100.75884   -1533.4267    75882.432   -17316.768    1369.2636   -18686.031    53.310486    255.34161 
   17850    100.36478   -1568.7963     75878.83   -17315.897    1363.9085   -18679.805    53.620369    254.34298 
   17900    98.570832   -1473.4966    75814.957   -17297.569    1339.5296   -18637.099    53.678226    249.79679 
   17950    100.31832   -1334.0342    75837.689    -17301.96    1363.2772   -18665.237    53.862949    254.22525 
   18000    99.097295    -1617.208    75824.376   -17290.616     1346.684     -18637.3    53.871398    251.13094 
   18050     98.80011   -1402.6146    75758.249    -17359.06    1342.6454   -18701.706    54.139747    250.37782 
   18100    96.709452   -1153.5312    75741.358   -17369.073    1314.2344   -18683.307    54.026643    245.07971 
   18150     96.66748   -1470.4914    75714.451   -17365.216     1313.664    -18678.88    54.110752    244.97334 
   18200    98.161329   -1294.2959    75727.576   -17373.189    1333.9647   -18707.153    54.506457    248.75903 
   18250    97.137422   -1263.3225    75798.724   -17372.858    1320.0503   -18692.908    54.785199    246.16426 
   18300    97.681735   -1276.2036    75806.476   -17346.315    1327.4472   -18673.762    55.287512    247.54365 
   18350    98.159022   -1594.5284    75807.591   -17349.487    1333.9333   -18683.421    55.561471    248.75319 
   18400    97.566638   -1145.5383    75841.176    -17364.94    1325.8831   -18690.823     55.75201    247.25197 
   18450    94.882146   -1400.3549    75822.722   -17401.075    1289.4022   -18690.477     55.65266    240.44897 
   18500    97.221086   -1365.9054    75846.377     -17407.4    1321.1872   -18728.587    55.805999    246.37628 
   18550    97.621001   -1439.6187    75826.866   -17383.434    1326.6219   -18710.056    55.601385    247.38974 
   18600    99.195859    -1430.641    75777.277   -17378.782    1348.0234   -18726.805    55.619663    251.38072 
   18650    97.689279   -1288.1792    75802.424    -17375.93    1327.5497    -18703.48    55.954206    247.56277 
   18700    98.791898   -1108.9334    75862.093   -17343.374    1342.5338   -18685.908    55.896001    250.35701 
   18750    98.219373   -1160.2531    75945.188   -17337.865    1334.7534   -18672.618    55.974666    248.90613 
   18800    100.31219   -1234.6159    76033.262   -17334.583    1363.1939   -18697.777    56.074179    254.20972 
   18850    100.85438   -1627.3759    76037.599    -17316.24    1370.5619   -18686.802    56.490317    255.58373 
   18900    98.935564   -1117.7353    76001.982   -17310.006    1344.4861   -18654.492    56.608881    250.72109 
   18950    99.502635   -1012.5086    76042.477   -17311.615    1352.1923   -18663.807    56.563753    252.15815 
   19000    98.934543    -1519.202    75996.564    -17302.59    1344.4723   -18647.062    56.685275     250.7185 
   19050    96.056356   -1201.8146    75960.353   -17293.795    1305.3591   -18599.154    56.839871    243.42464 
   19100    96.876478   -865.62772    75982.886   -17330.126    1316.5042    -18646.63    56.845285    245.50298 
   19150    97.233691    -1364.133    75984.322   -17375.417    1321.3585   -18696.775    57.060148    246.40823 
   19200    93.877324   -1315.9498    75988.823   -17359.065    1275.7471   -18634.812    57.062783    237.90257 
   19250      98.5113   -1481.0248    75940.637   -17380.692    1338.7206   -18719.413     57.36338    249.64592 
   19300    97.143708   -1146.5433    75936.505   -17362.773    1320.1357   -18682.909    57.464479    246.18019 
   19350    100.05574   -1257.2611    75965.825   -17319.032    1359.7087   -18678.741    57.780918    253.55981 
   19400    98.472806   -1514.1186    75979.602   -17327.898    1338.1975   -18666.095    57.941102    249.54837 
   19450    98.157572   -1338.6018    75976.743   -17319.193    1333.9136   -18653.107    58.010715    248.74951 
   19500    100.57034   -1410.0445    75949.856   -17327.221     1366.702   -18693.923      57.9565    254.86392 
   19550    98.276771   -1400.2928    75980.275   -17324.509    1335.5335   -18660.042    58.070977    249.05158 
   19600    98.978613   -1401.8731    76044.226    -17309.36    1345.0711   -18654.432    58.035688    250.83018 
   19650    100.93955   -1728.4652    75998.347   -17262.363    1371.7194   -18634.083    58.241284    255.79957 
   19700    97.349994   -1241.1419    76024.901   -17301.299     1322.939   -18624.238    58.424659    246.70296 
   19750    101.47173   -1662.0927    76031.215   -17312.399    1378.9513   -18691.351    58.598947    257.14819 
   19800    94.121374   -1538.3858    75975.409   -17350.182    1279.0636   -18629.246    58.606855    238.52104 
   19850    96.226707   -1608.3907    75890.908   -17363.779    1307.6741   -18671.453     58.85273    243.85634 
   19900    94.244366   -1344.5143    75866.265   -17346.665     1280.735     -18627.4    59.046807    238.83272 
   19950    96.499432     -1454.85    75859.388   -17350.335    1311.3803   -18661.715    59.230997    244.54748 
   20000    100.50893   -1424.6159    75863.709   -17320.957    1365.8675   -18686.824    59.269416     254.7083 
   20050    97.039485   -1566.1377    75908.226   -17348.462    1318.7193   -18667.182     59.48246    245.91607 
   20100    97.793743    -1154.866     75955.31   -17345.983    1328.9693   -18674.953    59.577284     247.8275 
   20150    99.783188   -1117.5764    76044.148   -17287.581    1356.0049   -18643.586    59.743882    252.86912 
   20200    97.304303   -1452.1196    76060.209   -17357.801    1322.3181   -18680.119    60.004304    246.58717 
   20250    99.276562   -1062.4301    76080.043   -17315.947    1349.1201   -18665.067    60.044914    251.58524 
   20300    96.471208   -1512.1621    76124.819   -17356.017    1310.9967   -18667.014    60.116953    244.47595 
   20350    95.904798   -1337.1885    76017.202    -17353.62    1303.2995   -18656.919    60.334391    243.04056 
   20400    99.120616   -1756.7871    76002.442   -17284.738    1347.0009   -18631.739    60.604211    251.19004 
   20450    97.232867    -1292.899    76012.055   -17268.514    1321.3473   -18589.861    60.942431    246.40614 
   20500    99.267262   -1443.9493    76002.835   -17267.037    1348.9937   -18616.031     61.24252    251.56167 
   20550    98.869295   -1040.0219    76001.636   -17255.019    1343.5856   -18598.604    61.769925    250.55315 
   20600    100.17349   -1214.9474    76045.933   -17270.643    1361.3089   -18631.952    61.596816    253.85822 
   20650    97.376222   -1257.7108    76024.892   -17310.591    1323.2954   -18633.886    61.531709    246.76942 
   20700    99.278234   -1369.3651    76011.426   -17302.107    1349.1429    -18651.25    61.597428    251.58948 
   20750    100.41468   -1476.1326    76031.751   -17303.759    1364.5865   -18668.346    62.137857    254.46943 
   20800    99.475885   -1588.2679    76040.369   -17260.667    1351.8288   -18612.496    62.361625    252.09036 
   20850    100.36005   -1482.4534    76027.429   -17247.585    1363.8442   -18611.429    62.067045    254.33099 
   20900    95.554841   -1617.7663    76046.976     -17258.7    1298.5438   -18557.244    62.207072    242.15371 
   20950    96.341784   -1231.3926    76057.107   -17294.824    1309.2379   -18604.062     62.52364    244.14797 
   21000    99.725413   -1171.9499    76075.954   -17276.842    1355.2198   -18632.062    62.483774    252.72271 
   21050    99.759558   -1589.6835    76054.096   -17260.844    1355.6838   -18616.527      62.5538    252.80924 
   21100    96.089902   -1306.1911    76047.754    -17286.97     1305.815   -18592.785    62.921223    243.50965 
   21150    98.915732   -1456.0877    76032.219   -17343.996    1344.2166   -18688.212    62.890062    250.67083 
   21200    96.335198   -1293.9227    76055.879   -17306.529    1309.1484   -18615.677    62.747593    244.13128 
   21250    96.066519   -1259.0751    76000.094   -17314.397    1305.4972   -18619.894    62.709064    243.45039 
   21300    97.870586   -1394.5808    75991.297   -17304.181    1330.0136   -18634.195    62.858516    248.02223 
   21350    99.420016   -1317.7489    75941.519   -17301.938    1351.0696   -18653.008    63.107364    251.94878 
   21400    100.37242   -1248.2783    75943.531   -17309.129    1364.0123   -18673.141    63.025003    254.36235 
   21450    100.55775   -1347.5755    76017.237   -17269.134    1366.5309   -18635.665    63.234703    254.83202 
   21500    98.150753   -1191.2766    76005.441   -17280.057    1333.8209   -18613.878    63.937241    248.73223 
   21550    98.340784   -1130.2658     75962.53   -17309.246    1336.4034    -18645.65    64.102624     249.2138 
   21600    97.255771   -789.91543    76055.582   -17339.842    1321.6586   -18661.501    64.075162    246.46418 
   21650    101.64398   -1190.5864    76139.077   -17317.868    1381.2922    -18699.16    64.046699    257.58472 
   21700    96.935718   -1095.6987    76180.927   -17306.022    1317.3092   -18623.331     64.06002    245.65311 
   21750    97.165397   -1420.3062    76174.174   -17292.525    1320.4304   -18612.955    64.396325    246.23516 
   21800    101.68552   -1303.1607    76191.651   -17265.426    1381.8567   -18647.283    64.268095    257.68998 
   21850    97.814697   -1069.9606    76168.775   -17253.323    1329.2541   -18582.577    64.594213     247.8806 
   21900    101.61377   -1399.6729    76143.919   -17259.543    1380.8817   -18640.424    64.847482    257.50816 
   21950    97.053295   -1435.7359     76065.77   -17310.305     1318.907   -18629.212    65.024085    245.95107 
   22000    95.383487   -1091.7094    76057.767   -17323.014    1296.2151   -18619.229    64.843316    241.71946 
   22050    97.363559   -1458.6448    76076.558   -17345.135    1323.1233   -18668.258    64.814929    246.73733 
   22100    98.112933   -1291.4842    76053.155   -17350.018     1333.307   -18683.325    64.826661    248.63639 
   22150    95.326598   -1259.1929    76008.376   -17329.698     1295.442    -18625.14    64.878435     241.5753 
   22200    97.058975   -1565.6447    76010.896   -17319.613    1318.9842   -18638.598    64.878063    245.96546 
   22250    98.054007   -1543.7258    75999.497    -17319.05    1332.5062   -18651.556    64.718819    248.48706 
   22300    96.255249   -1263.7868    75959.319   -17361.809     1308.062   -18669.871    64.724553    243.92867 
   22350    95.681482   -1336.4699    75939.874   -17319.114    1300.2647   -18619.379    64.931814    242.47464 
   22400    94.002375   -1449.4539    75931.478   -17347.803    1277.4465    -18625.25    65.087825    238.21947 
   22450    99.158095   -1410.0996    75930.483   -17321.649    1347.5102   -18669.159    64.925033    251.28502 
   22500    97.003795   -1614.6785    75942.523   -17319.232    1318.2343   -18637.466    65.156344    245.82563 
   22550     100.5073   -1346.0972    75966.983   -17308.908    1365.8453   -18674.753    65.267763    254.70417 
   22600    97.323248   -1154.0753    75986.709    -17338.12    1322.5755   -18660.696    65.641844    246.63518 
   22650    98.066607   -1525.4128    76015.615   -17338.915    1332.6774   -18671.592    65.752471    248.51899 
   22700    95.399911   -1260.3534    76050.161   -17345.988    1296.4383   -18642.427    65.676586    241.76109 
   22750    98.808498   -1371.3093    76092.074   -17334.477    1342.7594   -18677.237    65.719145    250.39908 
   22800     98.33987   -1431.4707    76093.646   -17326.375    1336.3909   -18662.766    65.969966    249.21149 
   22850    99.753656   -1329.9761    76143.532   -17331.924    1355.6036   -18687.528    66.414235    252.79429 
   22900    96.187622   -1289.9422    76046.864   -17305.809    1307.1429   -18612.952    66.992937    243.75729 
   22950    95.904127   -1702.6731    76027.692     -17290.2    1303.2904    -18593.49    67.038729    243.03886 
   23000    97.913054   -1423.0036    76005.922   -17295.364    1330.5907   -18625.955    67.404911    248.12986 
   23050     97.14892   -1398.1232    75978.538   -17292.005    1320.2065   -18612.211    67.501718     246.1934 
   23100    96.066304   -1300.3178     75913.89   -17271.615    1305.4943   -18577.109    67.729231    243.44985 
   23150    96.627001   -1196.8867    75956.606   -17300.906    1313.1139    -18614.02    67.819769    244.87076 
   23200    98.721119   -1443.7715    75970.285   -17292.273    1341.5719   -18633.845    67.903515    250.17765 
   23250    98.310234   -1620.5181    75967.807   -17288.161    1335.9882   -18624.149    68.448621    249.13638 
   23300    96.797255   -1557.3566    75959.928   -17296.515    1315.4276   -18611.943    68.677461    245.30222 
   23350     98.50175   -1697.9323    75950.686   -17280.062    1338.5908   -18618.653    68.910392    249.62172 
   23400    97.819694    -1431.412    75901.407   -17273.625     1329.322   -18602.947    68.905032    247.89327 
   23450    98.136395   -1176.4448     75849.23   -17266.633    1333.6258   -18600.259    68.844323    248.69585 
   23500    101.04101   -1485.4182    75850.106   -17257.429    1373.0981   -18630.528    68.888211    256.05668 
   23550    97.666999   -1494.7051    75865.158   -17282.972     1327.247   -18610.219    69.183039    247.50631 
   23600    95.794979   -1285.2997    75849.576   -17282.623    1301.8071    -18584.43    69.074798    242.76226 
   23650    101.19475   -1346.5937    75822.109   -17247.262    1375.1873   -18622.449    69.413099    256.44627 
   23700    96.479714   -1157.5004    75852.375   -17281.672    1311.1123   -18592.785    69.660106    244.49751 
   23750    98.129585   -1406.8755    75851.267   -17291.928    1333.5333   -18625.462    70.116303    248.67859 
   23800    95.753618   -1456.7694    75861.907   -17329.336     1301.245   -18630.581    70.301018    242.65745 
   23850    98.194752     -1143.05    75819.312   -17268.166    1334.4189   -18602.585     70.45652    248.84373 
   23900     97.41615   -1432.8016    75808.743   -17297.535     1323.838   -18621.373     70.60237    246.87061 
   23950    97.777117    -1142.308    75868.685   -17274.863    1328.7434   -18603.606     70.91816    247.78537 
   24000    97.622686   -1513.2051    75860.301   -17289.701    1326.6448   -18616.346    71.188689    247.39401 
   24050    97.214536   -1376.8153    75768.156   -17310.309    1321.0982   -18631.408      71.2657    246.35968 
   24100    95.958596   -1168.6528    75741.893   -17345.178    1304.0306   -18649.208    71.488418     243.1769 
   24150    94.936938   -1717.1509     75768.33   -17344.496    1290.1467   -18634.643    71.900993    240.58783 
   24200    95.542048   -1370.3514    75631.988   -17334.222    1298.3699   -18632.591    72.247562    242.12129 
   24250     97.50928   -1297.3159    75581.735   -17327.844    1325.1036   -18652.947    72.252501    247.10662 
   24300    96.506535   -1161.1692    75565.213   -17348.809    1311.4768   -18660.286    72.206996    244.56548 
   24350    98.106043   -1205.4214    75558.338   -17312.693    1333.2134   -18645.906    72.503212    248.61893 
   24400    97.464518   -1477.2971    75519.607   -17319.138    1324.4953   -18643.634    72.781264    246.99318 
   24450    98.067036   -906.62422    75586.631   -17298.693    1332.6833   -18631.376    73.407728    248.52008 
   24500    99.548693   -1169.6695    75622.242    -17316.64    1352.8183   -18669.459    73.764544    252.27487 
   24550    98.945541   -1389.9025    75657.831   -17339.746    1344.6217   -18684.368    74.057755    250.74637 
   24600    97.806206   -1239.5329    75665.114   -17318.114    1329.1387   -18647.253    74.162726    247.85909 
   24650    95.680321   -966.36295    75713.473   -17347.393     1300.249   -18647.642    74.154342     242.4717 
   24700    100.04167   -1244.0155    75701.742   -17316.119    1359.5176   -18675.636    74.276136    253.52417 
   24750    98.278788   -930.14002     75705.95   -17338.778    1335.5609   -18674.339    74.760813    249.05669 
   24800    96.112972   -1358.0499    75811.616   -17322.572    1306.1285   -18628.701    75.225977    243.56812 
   24850    96.962857   -1103.3268    75868.314   -17330.757     1317.678   -18648.435    75.232384    245.72188 
   24900    97.979119   -1210.8655    75890.811   -17295.064    1331.4885   -18626.552    75.319226    248.29728 
   24950    99.975385   -1378.5131    75935.636   -17271.341    1358.6168   -18629.957    75.447104    253.35619 
   25000    97.716549   -1211.2239    75902.166   -17334.698    1327.9203   -18662.618    75.718275    247.63188 
   25050     95.41259   -1210.1793    75931.802   -17319.657    1296.6106   -18616.268    76.030971    241.79322 
   25100    98.152012   -1343.8285    75954.418   -17331.316    1333.8381   -18665.154    76.096861    248.73542 
   25150    97.754009   -1622.9678     75984.73   -17317.758    1328.4294   -18646.188    76.375388    247.72681 
   25200    98.733707   -1236.4798    76015.046   -17304.505     1341.743   -18646.248    76.484417    250.20954 
   25250    99.475042   -1273.0442    76059.528   -17289.521    1351.8174   -18641.338    76.567598    252.08822 
   25300    99.177176   -1766.4488    76076.085   -17311.181    1347.7695    -18658.95    76.829959    251.33338 
   25350    101.24763   -1251.3841    76101.472    -17295.05    1375.9059   -18670.956    76.714408    256.58028 
   25400    95.499676   -1354.3588     76147.12   -17299.868    1297.7941   -18597.662    77.344688    242.01391 
   25450    100.22243   -1193.0307    76195.354   -17305.403    1361.9741   -18667.377    77.324649    253.98225 
   25500     100.9382   -1438.3165    76209.207    -17331.15    1371.7009   -18702.851    77.264019    255.79613 
   25550    96.264816   -1242.0722     76219.55   -17329.154     1308.192   -18637.346    77.492466    243.95292 
   25600      100.065   -1435.0524    76215.169   -17295.421    1359.8347   -18655.256    77.859522     253.5833 
   25650    101.51292    -1281.934    76218.405    -17292.97    1379.5111   -18672.481    77.737393    257.25257 
   25700    99.484091   -1348.6254    76228.954   -17274.622    1351.9403   -18626.562    77.675673    252.11116 
   25750     101.7997    -1317.016    76185.484   -17295.749    1383.4083   -18679.158     77.89377    257.97933 
   25800    102.51226   -1537.0811    76138.319   -17305.739    1393.0917   -18698.831    78.012124     259.7851 
   25850    97.873021   -1231.0956    76096.475   -17287.384    1330.0467   -18617.431    78.023912    248.02841 
   25900    99.220923   -1621.6838    76061.275   -17319.936     1348.364     -18668.3    78.278888    251.44424 
   25950    98.516326   -1474.4595    76052.493   -17271.964    1338.7889   -18610.752    78.673722    249.65866 
   26000    100.08359   -1743.5908    76056.701    -17251.41    1360.0872   -18611.497    78.875627    253.63039 
   26050     98.05925   -1275.0499    76048.317   -17266.916    1332.5774   -18599.493     78.75948    248.50034 
   26100    101.60257   -1307.4177    76097.184   -17247.397    1380.7295   -18628.126    78.801149    257.47978 
   26150    100.50222    -1386.713    76013.273   -17275.643    1365.7763   -18641.419    78.952764    254.69129 
   26200    101.82506   -1388.3438    75969.812   -17241.034     1383.753   -18624.787    79.246054    258.04361 
   26250    99.688383   -1514.1292    76030.613   -17239.192    1354.7166   -18593.908    79.356541    252.62887 
   26300    96.352602   -1337.8499    76025.186   -17287.764    1309.3849   -18597.148    79.367288    244.17538 
   26350    98.794475    -1503.718    76056.784   -17272.793    1342.5688   -18615.361    79.535061    250.36354 
   26400    97.786604   -1343.6649     76101.83    -17281.98    1328.8723   -18610.853    79.705135    247.80941 
   26450    99.269649   -1314.4928     76121.91   -17299.076    1349.0262   -18648.102    80.107934    251.56772 
   26500    99.710973   -1422.4246    76096.988   -17282.648    1355.0236   -18637.671    80.446983    252.68612 
   26550    102.13596   -1350.8282    76097.711    -17272.07     1387.978   -18660.048    81.184111     258.8315 
   26600    101.15366   -1396.6445    76079.856   -17312.829     1374.629   -18687.458    81.303529    256.34215 
   26650    96.135346   -1028.8909    76031.514   -17349.858    1306.4325   -18656.291    81.340057    243.62482 
   26700    100.87367   -1567.5839    76029.189   -17330.438    1370.8241   -18701.262    81.813261    255.63261 
   26750    99.193006   -951.64363    76122.847    -17299.61    1347.9847   -18647.595    82.042832    251.37349 
   26800    97.039419   -1259.2095    76146.177   -17277.263    1318.7184   -18595.982    82.454074     245.9159 
   26850     96.63384   -1124.2914    76177.742   -17292.992    1313.2068   -18606.199    82.229253    244.88809 
   26900    100.64592   -1400.5062    76130.896   -17260.895     1367.729   -18628.624    82.198857    255.05545 
   26950    100.34926   -1297.9257    76114.438   -17228.369    1363.6975   -18592.067    82.535124    254.30364 
   27000    98.438611   -1258.1346    76108.358   -17238.746    1337.7328   -18576.479    82.332801    249.46172 
   27050    96.950528   -1627.4485    76089.825   -17279.355    1317.5105   -18596.866    82.402832    245.69064 
   27100    101.08096   -1642.0496    76032.091   -17278.133     1373.641   -18651.774     82.48647    256.15792 
   27150    98.159978   -1214.5364    76005.257   -17299.392    1333.9463   -18633.339    82.825245    248.75561 
   27200    97.620682   -1527.8332    76065.644   -17300.757    1326.6175   -18627.375    82.998592    247.38893 
   27250    98.832274     -1242.06    76126.958   -17309.693    1343.0825   -18652.776    82.931258    250.45933 
   27300     98.77164    -1380.066    76160.181   -17333.329    1342.2585   -18675.588    83.067989    250.30567 
   27350    100.69273    -1052.969    76204.643   -17342.821    1368.3651   -18711.186    83.167399    255.17407 
   27400    101.20309    -886.0582    76328.317   -17339.993    1375.3008   -18715.293    83.452526    256.46743 
   27450    97.759743   -1482.1405    76352.748   -17377.721    1328.5073   -18706.228    83.341033    247.74134 
   27500     97.53884   -1359.8261    76342.176   -17355.722    1325.5053   -18681.228    83.354264    247.18153 
   27550    100.78656    -1279.222    76306.332   -17324.127    1369.6403   -18693.767    83.518046    255.41185 
   27600    97.879798    -1252.724    76319.064   -17320.569    1330.1388   -18650.708    84.038607    248.04558 
   27650    98.821825    -1317.412    76304.758   -17348.471    1342.9405   -18691.412    84.200512    250.43285 
   27700    96.757685   -1503.1758    76255.211   -17358.708    1314.8898   -18673.598    84.241226    245.20194 
   27750    95.003245    -1524.724     76206.99   -17333.403    1291.0478    -18624.45    84.390697    240.75586 
   27800    99.786641   -1511.8045    76169.178   -17329.955    1356.0519   -18686.007    84.520353    252.87787 
   27850    98.878549     -1221.95    76125.981   -17326.265    1343.7113   -18669.976    84.721929     250.5766 
   27900     97.68949   -1549.0564    76067.162   -17339.369    1327.5526   -18666.921    84.927413     247.5633 
   27950    104.09342   -1204.8111    76051.135   -17288.194    1414.5789   -18702.773    85.112971    263.79205 
   28000    97.728489   -1311.8375    76105.687   -17284.551    1328.0826   -18612.633    85.326161    247.66214 
   28050    102.34214   -1225.6558    76146.629   -17265.085    1390.7799   -18655.865    85.759463    259.35399 
   28100    99.912717   -1290.5912    76171.808   -17317.151    1357.7652   -18674.916    85.765998    253.19737 
   28150    98.011882   -1427.6704    76166.913    -17263.02    1331.9337   -18594.954    85.706342    248.38031 
   28200    99.168597   -1313.8219    76155.455    -17241.08    1347.6529   -18588.733     85.54994    251.31164 
   28250    98.793406   -1355.9545    76180.281   -17294.153    1342.5543   -18636.707    85.456282    250.36083 
   28300    97.507678   -1085.6398    76214.612   -17335.313    1325.0819   -18660.395    85.783286    247.10256 
   28350    96.212941   -1136.8856    76217.981   -17307.514     1307.487   -18615.001     85.79358    243.82146 
   28400    97.343625   -1184.5029    76245.327   -17317.497    1322.8525    -18640.35    85.990139    246.68682 
   28450    97.861174   -1296.2804    76219.373   -17308.709    1329.8857   -18638.595     86.19058    247.99838 
   28500    97.925948   -949.38806    76247.946   -17315.765    1330.7659   -18646.531    86.205746    248.16253 
   28550    102.85807   -1485.5728    76232.299   -17307.871    1397.7911   -18705.662    86.551733    260.66145 
   28600    99.493162   -1287.5245    76268.829   -17296.438    1352.0636   -18648.501    86.552798    252.13414 
   28650    99.201308   -1150.1575     76284.51   -17289.009    1348.0975   -18637.106    86.405194    251.39453 
   28700    98.660457   -1387.4854    76239.187   -17309.152    1340.7476     -18649.9    86.873464    250.02391 
   28750    99.333454   -1128.6594    76293.443   -17311.248    1349.8933   -18661.142    86.777833    251.72941 
   28800    98.437618   -1328.8818    76262.432   -17320.107    1337.7193   -18657.826    87.174517     249.4592 
   28850    100.73223   -1115.1794    76294.292   -17298.696    1368.9019   -18667.598    87.535131    255.27417 
   28900    102.50536   -1184.7582    76382.861   -17272.083     1392.998   -18665.081    87.764817    259.76763 
   28950     100.2021   -1453.3645    76414.656   -17255.177    1361.6978   -18616.875    87.653562    253.93074 
   29000    100.14428   -1250.2493    76406.751   -17245.669     1360.912   -18606.581    87.413836    253.78419 
   29050    100.61106   -1134.8136    76353.178   -17246.145    1367.2553   -18613.401     87.77338     254.9671 
   29100    101.38352   -1212.8497    76374.236   -17256.476    1377.7526   -18634.229    88.048215    256.92465 
   29150    99.235885   -1567.1453    76370.379   -17297.834    1348.5674   -18646.402    88.021968    251.48216 
   29200    98.728109   -1204.2191    76298.501    -17320.41    1341.6669   -18662.077    87.897416    250.19536 
   29250    99.825163   -1277.5875    76281.316   -17321.309    1356.5754   -18677.884     88.20474     252.9755 
   29300    97.033983   -1557.6173    76292.279   -17316.074    1318.6446   -18634.719    88.317558    245.90213 
   29350    97.468126   -1236.7652    76310.957   -17339.069    1324.5444   -18663.614    87.979079    247.00233 
   29400    98.904064   -1389.1179    76239.056    -17317.34    1344.0581   -18661.398    87.867055    250.64126 
   29450    96.789183   -1002.7097    76187.736   -17341.234    1315.3179   -18656.552    88.068576    245.28176 
   29500     96.34318   -1533.1337    76135.897   -17355.791    1309.2569   -18665.048     88.58656    244.15151 
   29550    96.459256   -1051.4395    76148.432   -17394.776    1310.8343    -18705.61    88.652926    244.44566 
   29600    93.594016   -1233.0223    76114.053   -17450.761    1271.8971   -18722.658    88.717067    237.18461 
   29650    95.426703   -1245.8882    76113.712   -17413.895    1296.8024   -18710.698    88.724598    241.82898 
   29700    97.088453    -1195.776    76093.772   -17373.933    1319.3848   -18693.318     88.70607    246.04016 
   29750    97.336813   -1248.1292    76042.983   -17379.889    1322.7599   -18702.649    88.729689    246.66956 
   29800    96.186412   -1098.3351    76054.398   -17367.298    1307.1265   -18674.424     88.90026    243.75423 
   29850    98.453297   -1242.8933    76063.692   -17380.727    1337.9324   -18718.659    88.935082    249.49893 
   29900    99.066109    -999.2534    76073.504   -17407.164    1346.2602   -18753.425    88.836222    251.05191 
   29950    96.405976   -1441.3295    76109.715   -17427.077    1310.1103   -18737.187    88.877191    244.31064 
   30000    94.761619   -1137.1801    76119.654   -17407.291    1287.7643   -18695.055    89.004801    240.14354 
   30050    95.773686   -1366.5169    76038.545   -17418.987    1301.5177   -18720.505    89.043807     242.7083 
   30100    98.672692    -1493.486    76028.735   -17387.273    1340.9138   -18728.187    89.190881    250.05492 
   30150    96.463713   -1526.8577    75957.991    -17423.66    1310.8949   -18734.554    88.884902    244.45696 
   30200    97.403027   -1404.8746    75897.083   -17423.027    1323.6597   -18746.687    89.054423    246.83735 
   30250    100.11959   -1249.9943    75900.247   -17405.411    1360.5765   -18765.988    89.546742    253.72164 
   30300    95.222704   -1230.1475    75922.602   -17388.959    1294.0302    -18682.99    89.834829    241.31201 
   30350    97.838901   -1435.7178     75897.65   -17372.526     1329.583   -18702.109    90.252304    247.94194 
   30400    97.645838   -1128.6152     75930.36   -17353.348    1326.9594   -18680.307    90.746908    247.45268 
   30450    99.283617   -1167.2356    75997.787   -17303.769     1349.216   -18652.985    91.037206    251.60312 
   30500    96.459859   -1266.1811    75975.544   -17342.638    1310.8425    -18653.48      91.0882    244.44719 
   30550    96.695039   -992.65098    76089.047   -17359.155    1314.0385   -18673.193     91.53184    245.04318 
   30600    100.44957   -1251.5994    76117.754    -17353.08    1365.0607   -18718.141    91.411144    254.55785 
   30650    97.755356   -1273.8009    76104.858   -17373.847    1328.4477   -18702.295    91.604138    247.73022 
   30700      97.1105   -1199.2435    76177.874   -17396.686    1319.6844    -18716.37    91.672185    246.09604 
   30750    95.191552   -1426.8523    76217.557   -17409.866    1293.6068   -18703.473    91.471122    241.23307 
   30800    99.185236     -1380.02    76210.348   -17396.571    1347.8791    -18744.45    91.451048     251.3538 
   30850    96.679013   -1598.9155    76133.765     -17385.6    1313.8207    -18699.42    91.354387    245.00257 
   30900    97.037152   -1828.1415     76041.76   -17399.174    1318.6876   -18717.862    91.517811    245.91016 
   30950     95.59314   -1324.1341    76009.143   -17359.533    1299.0642   -18658.597    91.551129    242.25076 
   31000    98.469433   -1352.8207    76019.586   -17323.522    1338.1516   -18661.674     91.78142    249.53983 
   31050    101.38711   -1165.2114     76006.04   -17312.839    1377.8015   -18690.641    91.889572    256.93376 
   31100    100.59476   -1262.6774    76103.906   -17277.575    1367.0338   -18644.608    91.945973    254.92579 
   31150    100.71675     -1186.35    76149.866   -17265.544    1368.6915   -18634.236    92.004998    255.23494 
   31200    99.573102   -1411.0888    76154.623   -17269.459      1353.15   -18622.609    92.514432    252.33673 
   31250    100.46335   -1414.3689    76112.604   -17289.319    1365.2481   -18654.567    92.640631    254.59279 
   31300    92.846939   -1025.8345    76179.266   -17311.421    1261.7447   -18573.166    92.380213    235.29138 
   31350    98.940086   -1269.7934    76180.243   -17317.871    1344.5476   -18662.419    92.607694    250.73255 
   31400     97.91374   -1491.3791    76126.126   -17296.484       1330.6   -18627.084    92.656342     248.1316 
   31450    99.155923   -1232.9148    76121.464   -17261.933    1347.4807   -18609.413    92.302219    251.27952 
   31500    99.005272   -1572.0355    76166.856   -17266.831    1345.4334   -18612.264    92.910918    250.89774 
   31550    98.325548   -1394.5296    76186.157   -17287.564    1336.1963   -18623.761    93.076851    249.17519 
   31600    96.952804   -1543.4515    76229.335   -17279.275    1317.5414   -18596.816    92.743889     245.6964 
   31650    98.186571   -1427.1317    76188.632   -17277.734    1334.3077   -18612.041    92.651048      248.823 
   31700    98.418414   -1140.6183    76159.437   -17265.477    1337.4583   -18602.936    92.775452    249.41053 
   31750    99.856859   -1871.0213    76089.993   -17288.686    1357.0061   -18645.692     92.83026    253.05582 
   31800    99.516315   -1351.2088    76078.536   -17268.597    1352.3783   -18620.976    92.950017    252.19282 
   31850    96.853924   -1447.7297    76130.408   -17283.405    1316.1977   -18599.603    92.793027    245.44583 
   31900    95.766679    -1412.586    76104.742   -17293.243    1301.4225   -18594.666    93.126698    242.69054 
   31950    98.398986   -1480.1825      76069.1   -17307.442    1337.1943   -18644.637    93.055179     249.3613 
   32000    95.689521   -1556.8342    76006.321   -17309.253     1300.374   -18609.627    93.198745    242.49501 
   32050    97.446616   -1424.4141    75920.251   -17317.827    1324.2521   -18642.079     93.68926    246.94782 
   32100    98.269062   -1296.9963    75898.363   -17312.787    1335.4287   -18648.216     93.77056    249.03205 
   32150    99.411398   -1643.4344    75908.897   -17322.787    1350.9525    -18673.74    93.820558    251.92694 
   32200    98.270589   -1303.5519    75900.042   -17304.695    1335.4494   -18640.145    94.151327    249.03592 
   32250    93.756061   -1100.9845    75952.183   -17297.509    1274.0992   -18571.608    94.470417    237.59527 
   32300    97.979522   -1463.1652    75925.366   -17320.831     1331.494   -18652.325    94.732787     248.2983 
   32350    96.401644   -1447.5774    75848.618   -17320.981    1310.0514   -18631.033    94.772144    244.29966 
   32400    96.933667   -1087.4417    75865.745   -17320.849    1317.2813    -18638.13    94.631357    245.64791 
   32450    98.837228   -1346.5967    75860.416   -17329.173    1343.1498   -18672.323    94.696902    250.47189 
   32500    98.193438    -1711.911    75834.466   -17315.663     1334.401   -18650.064    94.848933     248.8404 
   32550    97.243087   -1423.1457      75785.8   -17273.891    1321.4862   -18595.377    94.943761    246.43204 
   32600     99.86424   -1796.0139    75747.562    -17291.15    1357.1064   -18648.256    95.202337    253.07452 
   32650    99.939727   -1121.8139    75783.663   -17290.268    1358.1322   -18648.401    95.286745    253.26582 
   32700    97.420763    -1290.868    75837.854   -17302.959    1323.9007    -18626.86    95.906271     246.8823 
   32750    100.06931   -1224.4123    75869.832   -17273.974    1359.8932   -18633.867    96.192072    253.59421 
   32800    96.272577   -1214.0808    75900.132   -17307.138    1308.2974   -18615.436     96.13388    243.97258 
   32850    97.591314   -1380.7366     75925.85   -17333.767    1326.2184   -18659.986    96.365832    247.31451 
   32900      98.9207   -1395.8785    75960.219   -17312.443    1344.2841   -18656.727    96.900697    250.68342 
   32950    95.606828   -1403.2407     75950.74   -17368.075    1299.2502   -18667.325    97.259569    242.28545 
   33000    97.020446   -1200.9411    75946.598   -17360.311    1318.4606   -18678.772    97.204321    245.86782 
   33050    96.082439   -1426.0315    75965.474   -17364.066    1305.7136   -18669.779    97.612365    243.49074 
   33100    100.00117   -1193.4556    75966.828    -17348.82    1358.9673   -18707.787    97.785805    253.42154 
   33150    99.341184   -1218.1564    75959.703   -17345.304    1349.9983   -18695.302    98.181509      251.749 
   33200    96.151271   -1556.7924     75983.69    -17373.04    1306.6489   -18679.689    98.166288    243.66517 
   33250    99.090095    -1428.975    75988.262   -17367.185    1346.5861   -18713.771     98.09829     251.1127 
   33300    95.732162   -1374.7625    76046.293   -17351.964    1300.9535   -18652.918    98.051661    242.60307 
   33350    98.507213   -1083.9518    76084.596   -17367.176    1338.6651   -18705.841    97.883284    249.63557 
   33400    99.078108    -1300.107     76144.42    -17332.96    1346.4232   -18679.384    98.779804    251.08232 
   33450    98.162798   -1254.2347    76113.129    -17337.49    1333.9846   -18671.475    99.123263    248.76276 
   33500    96.872102    -1211.658    76123.228   -17385.167    1316.4447   -18701.612     99.15008    245.49189 
   33550    99.782969   -1503.1471    76134.525   -17395.317     1356.002   -18751.318    99.112918    252.86857 
   33600    98.371873   -1331.7382    76096.326   -17396.577    1336.8258   -18733.403    99.245465    249.29259 
   33650    98.445526   -1207.6636    76087.635    -17394.65    1337.8268   -18732.476    99.461543    249.47924 
   33700    97.272989   -1627.2101      76063.4   -17397.754    1321.8926   -18719.646    99.895944    246.50781 
   33750    98.848156   -1473.4423    76078.917   -17327.575    1343.2983   -18670.873    99.874235    250.49958 
   33800    98.290938    -1411.404    76134.648   -17352.928     1335.726   -18688.654    100.27052    249.08749 
   33850    98.167235   -1697.3538    76189.197   -17367.627    1334.0449   -18701.671    100.88961      248.774 
   33900    97.144891   -1292.5831    76181.917   -17360.744    1320.1518   -18680.896    101.13616    246.18319 
   33950    98.674803   -1557.4168    76177.111   -17351.407    1340.9425    -18692.35    101.19092    250.06027 
[...]
   92000    101.45179   -1486.8022    75772.695   -17236.662    1378.6804   -18615.342    259.97652    257.09767 
   92050    99.470123   -1546.9288     75770.36   -17259.679    1351.7505    -18611.43     259.8382    252.07576 
   92100    101.37396   -1498.0476    75737.767   -17287.409    1377.6227   -18665.031    260.00634    256.90043 
   92150    97.457009    -1211.084    75794.043   -17271.509    1324.3933   -18595.903    260.60164    246.97416 
   92200    97.026352   -1863.6251    75733.076   -17298.023    1318.5409   -18616.564    261.00125    245.88279 
   92250    97.564009   -1244.9915    75713.168   -17267.136    1325.8474   -18592.983    260.67202    247.24531 
   92300     98.78137   -1393.0131    75763.297   -17321.731    1342.3907   -18664.122    261.31073    250.33033 
   92350    95.716513   -1464.1918     75737.61   -17285.286    1300.7408   -18586.027      262.094    242.56341 
   92400    98.329722   -1058.9158    75704.609   -17294.948     1336.253   -18631.201    261.49977    249.18577 
   92450    98.274881   -1454.1807    75725.059   -17285.543    1335.5078   -18621.051    261.91253     249.0468 
   92500    97.924297   -1150.4237    75755.916   -17282.738    1330.7435   -18613.482    262.24466    248.15835 
   92550    97.898103   -1126.9971     75812.76   -17318.128    1330.3875   -18648.515    262.38084    248.09197 
   92600    96.713989   -1733.6598    75799.194   -17318.907     1314.296   -18633.203    262.79685     245.0912 
   92650    100.03379   -1377.5558    75822.508   -17331.293    1359.4105   -18690.704    262.97747     253.5042 
   92700    98.266867   -1562.3397    75879.202   -17336.802    1335.3989   -18672.201    263.34602    249.02649 
   92750    96.478765   -1569.1361    75912.286   -17301.368    1311.0994   -18612.467    263.19652     244.4951 
   92800    97.880304   -1441.6399    75922.542   -17327.183    1330.1457   -18657.329    262.82683    248.04686 
   92850    94.988151   -1758.1749    75941.811   -17381.555    1290.8427   -18672.397    263.28636    240.71761 
   92900    97.311009   -1611.8306    75892.786    -17395.22    1322.4092   -18717.629    263.84082    246.60416 
   92950    96.984073   -1383.5328    75848.594   -17354.839    1317.9663   -18672.806    263.19919    245.77565 
   93000    97.185002    -1501.457    75862.936   -17359.305    1320.6968   -18680.001    263.76337    246.28484 
   93050    98.345501   -1575.2321    75809.531    -17354.45    1336.4675   -18690.917    264.53782    249.22576 
   93100    95.359075   -1351.8289    75780.312   -17368.991    1295.8834   -18664.874    264.92813     241.6576 
   93150    99.586073   -1393.1961    75790.436   -17350.063    1353.3262   -18703.389    264.89279     252.3696 
   93200    98.033542   -1386.6852    75772.633   -17382.083    1332.2281   -18714.311    264.88878     248.4352 
   93250      96.7314   -1554.0976    75767.416   -17378.282    1314.5326   -18692.814    264.57593    245.13533 
   93300    98.240918   -1266.1171    75750.182   -17330.135    1335.0462   -18665.182    264.58155    248.96073 
   93350    101.41012   -1195.3665    75830.502   -17304.336    1378.1142    -18682.45     264.8404    256.99207 
   93400    96.949885   -1274.8591    75890.693   -17321.523    1317.5017   -18639.025    264.45543    245.68901 
   93450    100.92566   -1246.7299    76006.754   -17292.765    1371.5306   -18664.296    264.51758    255.76436 
   93500    98.556759   -1254.6049    76016.049   -17266.469    1339.3384   -18605.808    265.04052    249.76113 
   93550    97.285665    -1382.826    75994.423   -17275.759    1322.0648   -18597.824    264.86501    246.53994 
   93600    95.567788   -1331.4432    75980.365   -17286.579    1298.7197   -18585.299    265.40263    242.18652 
   93650    96.407043   -1586.3831    76013.327   -17285.063    1310.1248   -18595.188    265.19451    244.31335 
   93700    99.150151    -1511.492    75916.707    -17281.03    1347.4023   -18628.432    264.45771    251.26489 
   93750    100.55842    -1265.968    75899.727   -17298.389      1366.54   -18664.929    264.48284    254.83372 
   93800    98.523077   -1188.1106    75887.655   -17287.907    1338.8806   -18626.788    264.51657    249.67577 
   93850    98.164875   -1483.4207    75850.961   -17327.576    1334.0128   -18661.589    264.51315    248.76802 
   93900    96.876479   -1352.0323    75870.077   -17360.992    1316.5042   -18677.496    265.26566    245.50298 
   93950     96.87076   -1459.5004    75868.449   -17343.208    1316.4265   -18659.634    265.79669    245.48849 
   94000    96.370089   -1067.8937    75847.695   -17334.664    1309.6226   -18644.287    265.25579     244.2197 
   94050    98.767026   -1192.1472    75955.871   -17299.103    1342.1958   -18641.299    265.54227    250.29398 
   94100    99.956932   -1471.5818    75984.846   -17283.245     1358.366   -18641.611    266.51664    253.30942 
   94150    101.95021   -1341.7186    75957.324   -17272.087    1385.4537   -18657.541    266.49096    258.36076 
   94200    99.446079   -1561.7866    75936.277   -17262.469    1351.4238   -18613.893     266.6872    252.01483 
   94250    102.65167   -1170.0584    75987.775   -17260.031    1394.9862   -18655.017    266.53722    260.13839 
   94300    96.923934   -1189.5339    76027.572   -17285.242    1317.1491   -18602.391    266.94177    245.62324 
   94350    100.21003   -1404.9304    76017.243   -17277.318    1361.8054   -18639.123    267.26306    253.95081 
   94400    98.550029   -1378.2058     76008.53   -17261.892    1339.2469   -18601.139    267.18436    249.74407 
   94450    99.799844    -1184.165    76066.531   -17275.672    1356.2313   -18631.903    267.22855    252.91133 
   94500    96.615323   -1339.7113    76045.286   -17306.176    1312.9552   -18619.131    267.21053    244.84116 
   94550    100.56109   -1203.7076     76137.58   -17280.495    1366.5762   -18647.071    266.83621    254.84047 
   94600    96.056058   -1243.8944     76201.87   -17280.326     1305.355   -18585.681    267.19004    243.42388 
   94650    98.864981   -1205.8186    76207.933   -17245.883    1343.5269    -18589.41    267.33774    250.54222 
   94700    101.32413   -1271.1963    76121.436    -17243.52    1376.9455   -18620.465    267.11558    256.77415 
   94750    100.63789   -1361.4015    76079.671   -17225.524    1367.6199   -18593.144    267.45088     255.0351 
   94800    98.281315   -1268.6235    76077.566   -17270.693    1335.5952   -18606.288    267.05735     249.0631 
   94850    97.248208   -1079.0336    76132.976   -17286.775    1321.5558   -18608.331    267.58449    246.44501 
   94900    96.569824   -1320.0921    76100.016   -17328.388    1312.3369   -18640.724     267.7872    244.72586 
   94950    98.804181   -1472.3687    76064.611   -17298.735    1342.7007   -18641.435    268.10773    250.38814 
   95000     95.82571   -1410.6384    76050.823   -17338.469    1302.2247   -18640.694    268.43211    242.84014 
   95050    95.814921   -1272.1364    76062.356   -17346.123    1302.0781   -18648.201    268.46339     242.8128 
   95100    96.124948   -899.96097    76038.703   -17337.634    1306.2912   -18643.925    268.77122    243.59846 
   95150    95.164925   -1290.8594    76059.403   -17338.293     1293.245   -18631.538    269.40101    241.16559 
   95200    92.866586   -1380.5636    76033.836   -17335.029    1262.0117   -18597.041    269.98918    235.34117 
   95250     95.39851   -1238.0049    75953.503   -17346.957    1296.4193   -18643.377    269.77446    241.75754 
   95300    97.577054   -1275.8155    75993.683   -17334.523    1326.0246   -18660.547    269.99274    247.27837 
   95350    96.620024    -1284.692    75994.971   -17325.615    1313.0191   -18638.634    270.04815    244.85308 
   95400    97.456744   -1309.6681    76003.684   -17304.541    1324.3897    -18628.93    269.98417    246.97348 
   95450    98.220609   -1252.3322    76043.068   -17244.008    1334.7702   -18578.778    270.21941    248.90926 
   95500    98.440649   -1219.0724    76070.282   -17250.678    1337.7605   -18588.439    270.69388    249.46688 
   95550    96.945281   -1882.5739    75996.599    -17282.03    1317.4392   -18599.469    270.58916    245.67734 
   95600    98.333131   -1467.1172    75909.115   -17315.494    1336.2994   -18651.794    270.79878    249.19441 
   95650    96.826798    -1427.573      75908.4    -17279.65     1315.829    -18595.48    270.65513    245.37708 
   95700    99.299616   -1257.7445    75863.219   -17257.631    1349.4334   -18607.065    271.56579    251.64366 
   95750    97.809444   -1334.7228    75934.013   -17273.409    1329.1827   -18602.592     272.3755    247.86729 
   95800    97.442056    -1523.686    75913.293   -17256.141    1324.1901   -18580.331     272.7118    246.93626 
   95850    98.812542   -1435.1893    75901.746   -17257.685    1342.8143   -18600.499     272.7671    250.40933 
   95900    95.864673   -1657.9581    75905.866   -17272.308    1302.7542   -18575.062    272.55239    242.93888 
   95950    99.139318   -1409.9209    75879.746   -17277.093     1347.255   -18624.348    272.88539    251.23744 
   96000    96.805302    -1151.362    75949.488   -17256.614    1315.5369   -18572.151    272.59806    245.32261 
   96050     98.50583   -1363.8967    75970.545   -17245.888    1338.6463   -18584.534    272.35863    249.63206 
   96100    98.437532   -1129.8445    76056.876   -17230.135    1337.7181   -18567.853    272.33507    249.45898 
   96150    98.117268   -1304.2481    76155.593    -17254.82    1333.3659   -18588.186    272.71647    248.64737 
   96200     99.04029   -1440.2204    76102.841   -17270.064    1345.9093   -18615.973    272.53275    250.98648 
   96250     99.63207   -1414.3903    76057.943   -17277.457    1353.9513   -18631.408    272.64547    252.48616 
   96300    99.054023   -1471.2632    76034.181   -17298.496    1346.0959   -18644.592    272.95331    251.02128 
   96350    97.450985   -1574.6152    75968.335   -17300.062    1324.3114   -18624.373    273.17154    246.95889 
   96400    96.148215   -1533.5561    75889.284   -17321.506    1306.6074   -18628.113    273.05346    243.65743 
   96450    100.19824   -1655.1291     75839.15   -17324.242    1361.6453   -18685.888    272.79078    253.92095 
   96500    98.592102   -1402.1587    75797.085   -17311.062    1339.8187    -18650.88    272.75744    249.85069 
   96550    96.315295   -1633.5732    75692.421   -17296.957     1308.878   -18605.835    272.75189    244.08084 
   96600    93.900059   -1648.0116    75587.156    -17327.17    1276.0561   -18603.226    272.95558    237.96018 
   96650    96.269403   -1484.2219     75557.66   -17316.238    1308.2543   -18624.493    273.18876    243.96454 
   96700    95.669447   -1265.1309    75579.411   -17296.351    1300.1012   -18596.452    273.47239    242.44414 
   96750    98.137382   -1291.8545    75551.914   -17285.112    1333.6392   -18618.751    273.88041    248.69835 
   96800    97.783167   -1157.3041     75602.16   -17306.311    1328.8256   -18635.137    273.24813     247.8007 
   96850    98.608068    -1123.448    75604.731   -17287.372    1340.0356   -18627.407    273.63287    249.89115 
   96900    96.537036   -1318.9787    75578.746   -17288.786    1311.8913   -18600.678    273.74971    244.64277 
   96950     97.76339   -930.72347     75624.78   -17244.797    1328.5569   -18573.353    273.04292    247.75058 
   97000    98.176339    -1436.169      75612.2   -17225.278    1334.1686   -18559.447     274.2098    248.79707 
   97050    101.69546    -1198.292    75602.554     -17226.8    1381.9917   -18608.792    274.38864    257.71517 
   97100    100.34331   -1185.5536    75603.708   -17209.085    1363.6167   -18572.702    274.11327    254.28857 
   97150    101.64458   -1367.8128    75586.172   -17203.309    1381.3004   -18584.609    274.18912    257.58624 
   97200    98.697458   -1156.0614    75547.463   -17180.763    1341.2504   -18522.013    274.60673    250.11768 
   97250    99.367172   -1088.6095    75545.996   -17187.672    1350.3515   -18538.024    275.09642    251.81486 
   97300     99.30284   -1343.0969    75568.493   -17184.213    1349.4772   -18533.691     275.6473    251.65183 
   97350    103.70949   -1397.3979    75622.256   -17178.729    1409.3614   -18588.091    276.00721    262.81909 
   97400     99.34657   -1480.3515    75628.263   -17254.817    1350.0715   -18604.888    276.69495    251.76265 
   97450    99.277367   -1735.6501    75604.945   -17256.507    1349.1311   -18605.638    277.04436    251.58728 
   97500    100.95604   -1338.8524     75633.86    -17249.83    1371.9435   -18621.773    277.32593    255.84136 
   97550    97.893195   -1458.0593    75677.644   -17256.923    1330.3208   -18587.244    277.55637    248.07953 
   97600    97.673418    -1409.913    75638.152   -17281.408    1327.3342   -18608.742    278.22804    247.52257 
   97650    96.676172    -1186.119     75670.72   -17266.881    1313.7821   -18580.663     278.3075    244.99537 
   97700    98.043384   -1267.2263    75673.966   -17297.214    1332.3618   -18629.576    278.70678    248.46014 
   97750    99.178027   -1181.9419    75701.003   -17277.749    1347.7811    -18625.53    278.36021    251.33553 
   97800    96.952971   -1394.6042    75738.084   -17290.062    1317.5437   -18607.606     277.8537    245.69683 
   97850    99.420225   -1331.6028     75680.55   -17249.469    1351.0724   -18600.542    278.69419    251.94931 
   97900    99.915766   -1498.3868     75686.18   -17259.799    1357.8066   -18617.606     278.0881     253.2051 
   97950    99.013337   -1594.5297    75642.631   -17281.784     1345.543   -18627.327    279.01678    250.91818 
   98000    99.564323   -1675.2404    75609.052   -17278.819    1353.0307   -18631.849    279.51543    252.31448 
   98050    97.021438   -1409.4044     75553.95   -17293.353    1318.4741   -18611.827    279.94467    245.87034 
   98100    100.21858   -1274.3902    75606.093   -17280.244    1361.9216   -18642.166    280.43067    253.97248 
   98150    100.54736   -1317.9857    75674.788   -17262.991    1366.3897   -18629.381    280.55032    254.80569 
   98200    100.56661   -1374.0529    75668.992   -17299.052    1366.6513   -18665.703    280.32968    254.85447 
   98250    96.657215   -1155.7787    75660.544   -17303.937    1313.5245   -18617.461    280.90287    244.94733 
   98300    97.152752   -1551.5948    75639.208   -17302.386    1320.2586   -18622.644    281.20123    246.20311 
   98350    100.08894    -845.9914     75693.42   -17286.659    1360.1599   -18646.819    280.78254    253.64395 
   98400    98.448701   -1370.1388     75771.59    -17299.26    1337.8699    -18637.13    281.46095    249.48729 
   98450    96.185442   -1258.3777    75774.407   -17307.196    1307.1133   -18614.309    281.62296    243.75177 
   98500    96.439745   -1299.0008    75818.891    -17303.18    1310.5692    -18613.75    281.22991    244.39622 
   98550    100.07413   -1373.4039    75821.084   -17272.092    1359.9587   -18632.051     281.4251    253.60643 
   98600     100.7976   -1525.3528    75821.247   -17271.873    1369.7903   -18641.663    281.74581    255.43983 
   98650    100.42636   -1186.8526     75714.27   -17266.675    1364.7453    -18631.42    281.21405    254.49903 
   98700    97.889151   -1135.0038    75723.219   -17287.795    1330.2659   -18618.061    281.41652    248.06928 
   98750    99.308828   -1106.3221    75758.769   -17324.952    1349.5586    -18674.51    281.97074    251.66701 
   98800    99.634438    -1012.289    75789.743   -17301.191    1353.9835   -18655.174    281.73038    252.49216 
   98850    98.550338   -1090.5819    75773.245   -17319.129    1339.2511   -18658.381    280.98875    249.74485 
   98900    97.497733   -1398.4208    75771.565   -17361.356    1324.9467   -18686.303    281.43635    247.07736 
   98950    97.697383   -1256.2703    75757.922   -17340.519    1327.6599   -18668.179    281.56029    247.58331 
   99000    101.05499    -1327.992    75759.163   -17281.958    1373.2881   -18655.246    281.96354     256.0921 
   99050    97.976778   -1129.9146    75833.288   -17293.669    1331.4567   -18625.126    281.68145    248.29135 
   99100    100.48147   -1303.2963    75850.355   -17270.873    1365.4943   -18636.368    281.25752    254.63871 
   99150    100.13011   -1368.0713      75828.2   -17295.628    1360.7194   -18656.347    281.54402    253.74828 
   99200    99.145601   -1517.0475    75851.574    -17316.75    1347.3404    -18664.09    282.31628    251.25336 
   99250    99.371538   -1025.1252    75883.596   -17299.942    1350.4108   -18650.353    282.00404    251.82593 
   99300    99.846004   -1069.8459    75939.908   -17325.573    1356.8586   -18682.431    282.51957    253.02831 
   99350    98.328148   -1323.6263     75971.79   -17340.021    1336.2316   -18676.253    282.50177    249.18178 
   99400    96.577907   -1426.0411    76020.053   -17295.063    1312.4467    -18607.51    282.56124    244.74635 
   99450    96.427433   -1495.9727    75995.005    -17357.85    1310.4019   -18668.252    282.94513    244.36502 
   99500    98.705436   -1220.1123    76001.715   -17329.952    1341.3588    -18671.31    283.34098     250.1379 
   99550    97.485962   -1529.7423    76022.504   -17326.054    1324.7868   -18650.841    283.41802    247.04753 
   99600    98.863856   -1383.8752    76111.252   -17337.682    1343.5117   -18681.194    283.11075    250.53937 
   99650    94.010881   -1589.0066    76131.231    -17340.01    1277.5621   -18617.572    283.33145    238.24103 
   99700    98.077563   -1312.0008    76190.925    -17303.19    1332.8263   -18636.016    283.63227    248.54675 
   99750    95.591753   -1122.0867    76266.282   -17296.672    1299.0454   -18595.718    283.96442    242.24725 
   99800    98.039087   -1129.3529    76319.035   -17305.394    1332.3034   -18637.697    284.42849    248.44925 
   99850    93.915426   -1592.0362    76389.997     -17321.5    1276.2649   -18597.765    284.45094    237.99913 
   99900     96.40679   -1410.7487    76348.635   -17296.883    1310.1213   -18607.004    284.09251    244.31271 
   99950    97.061028   -1418.9198     76276.98   -17307.297    1319.0121   -18626.309    283.96929    245.97067 
  100000    97.472532   -1907.1757    76219.433   -17312.164    1324.6042   -18636.769    284.50315    247.01349 
Loop time of 72.7894 on 64 procs for 100000 steps with 4560 atoms

Performance: 593.493 ns/day, 0.040 hours/ns, 1373.827 timesteps/s
100.0% CPU use with 64 MPI tasks x no OpenMP threads

MPI task timing breakdown:
Section |  min time  |  avg time  |  max time  |%varavg| %total
---------------------------------------------------------------
Pair    | 8.7468     | 29.157     | 50.883     | 320.1 | 40.06
Neigh   | 0.50164    | 1.5009     | 3.0238     |  72.0 |  2.06
Comm    | 12.43      | 33.42      | 56.77      | 335.4 | 45.91
Output  | 0.11752    | 0.11986    | 0.13199    |   0.5 |  0.16
Modify  | 4.8327     | 7.8714     | 15.534     | 151.0 | 10.81
Other   |            | 0.7199     |            |       |  0.99

Nlocal:    71.25 ave 121 max 32 min
Histogram: 18 14 0 0 0 2 12 2 4 12
Nghost:    760.594 ave 946 max 381 min
Histogram: 16 0 0 0 0 0 0 16 0 32
Neighs:    0 ave 0 max 0 min
Histogram: 64 0 0 0 0 0 0 0 0 0
FullNghs:  7205.94 ave 16457 max 1168 min
Histogram: 30 2 0 0 1 15 0 0 2 14

Total # of neighbors = 461180
Ave neighs/atom = 101.136
Neighbor list builds = 5832
Dangerous builds = 0

write_data		${DIR}/data.eq-${NAME}-${TEMP}
write_data		run_6/data.eq-${NAME}-${TEMP}
write_data		run_6/data.eq-het_freeze_6-${TEMP}
write_data		run_6/data.eq-het_freeze_6-250
undump          1

reset_timestep  0

unfix           2
unfix           3
unfix           4


################################################
#######         Run Simulation         #########
################################################

log				${DIR}/log.run_${NAME}
log				run_6/log.run_${NAME}
log				run_6/log.run_het_freeze_6
