LAMMPS data file via write_data, version 16 Mar 2018, timestep = 6000000

6750 atoms
2 atom types

0.0000000000000000e+00 4.9219999999999999e+01 xlo xhi
0.0000000000000000e+00 4.9019635930410494e+01 ylo yhi
4.1642123082128180e-01 5.9645578769182848e+01 zlo zhi

Masses

1 18.015
2 12.01

Atoms # atomic

4989 1 3.2342534682009783e+00 3.7805864457761409e+00 2.6054528759366966e+00 1 0 0
3422 1 5.4557256409264931e-01 3.9296863584701964e+00 1.9618868856390723e+00 -1 0 0
6572 1 4.4758321794369555e+00 1.5439683294983160e+00 2.0347652213952658e+00 0 -4 0
5050 1 7.0469151064608182e+00 1.4358432158992658e+00 2.4833743507213994e+00 2 4 0
318 1 8.4271719658803814e+00 3.6578418525300878e+00 2.0491530893699164e+00 1 -2 0
5340 1 6.7657251032637129e+00 1.3811658533253031e+00 5.1929243307173367e+00 3 1 0
1553 1 1.0983775665919589e+01 3.3347980093588143e+00 2.7966354635846771e+00 1 4 1
6529 1 1.2133633913354673e+01 9.2136584473421135e-01 1.6701733565417398e+00 1 0 1
1729 1 3.2122673375859900e+00 8.1163068491386721e+00 2.8858180377321134e+00 3 3 0
120 1 4.5661995366650929e+00 5.9144213792949820e+00 1.8389919506770633e+00 0 -2 0
1458 1 6.9609541838044438e+00 5.9117532159542989e+00 3.1038255099648184e+00 2 1 1
332 1 7.0545154501232323e+00 5.6451882000470111e+00 5.9464997597223537e+00 -1 0 0
1560 1 1.0732799311911265e+01 7.6499805163430414e+00 2.5442871465031240e+00 -1 -2 1
299 1 9.4001397724564164e+00 1.0087005403117670e+01 1.2792716524831773e+01 -1 1 0
275 1 8.4646130088145977e-01 8.6435504877659248e+00 1.9450567479617213e+00 0 -1 0
5627 1 3.1020221351151416e+00 8.2658008597959398e+00 5.6703091803476937e+00 0 2 0
321 1 7.8932039713166233e+00 7.9248605588532728e+00 1.9001439051677604e+00 2 0 0
5372 1 4.1454994000480898e+00 1.0668474214017657e+01 1.9764315139017516e+00 -2 2 0
1814 1 6.8816505253280891e+00 1.0173939090080811e+01 2.8154144813456266e+00 0 -1 1
3907 1 7.1599779150021154e+00 1.0273497883316773e+01 5.5277237776983013e+00 1 3 0
1319 1 6.2431098572686028e-01 3.6946100729542510e+00 9.3389806721000710e+00 -1 3 1
2260 1 1.1829998710219412e+01 5.4217066585825915e+00 1.3739243344302587e+01 0 -1 0
479 1 3.0671149409725871e+00 3.7408599883394298e+00 5.3121896480079425e+00 4 -1 0
6620 1 1.9762645503058804e+00 1.4121755041613642e+00 9.9207628952934819e+00 1 1 0
1405 1 5.3017055675301217e+00 8.0891456567878848e+00 1.3010381372185940e+01 -3 -1 1
3686 1 4.2690449933842833e+00 1.4429572005491911e+00 9.0842558738786643e+00 2 -1 0
1423 1 4.3227653257713365e+00 1.1582528780671488e+00 6.3432152165425011e+00 4 1 1
5382 1 8.2891987078214271e+00 3.5434208926929691e+00 9.3433516216691288e+00 0 0 0
6466 1 7.9583990127769573e+00 3.2595393208879435e+00 6.7347112313762718e+00 -1 0 0
404 1 1.1962092751899625e+01 1.2303686050917029e+00 1.3442400692260621e+01 2 -2 0
1530 1 1.0551444130017494e+01 3.2859390834915629e+00 5.4602827152591731e+00 0 2 1
3285 1 9.1507071827354114e+00 1.2711188653668013e+00 9.8013458873487291e+00 1 2 0
2110 1 1.2004533429919659e+01 1.0022432136519408e+01 1.3507255130946087e+01 0 -2 0
4690 1 7.0000005900821571e-01 3.8805250005512826e+00 6.4629977956122229e+00 -2 -1 1
4855 1 1.9067767525971644e+00 5.9495923335086500e+00 1.0013231914664535e+01 0 2 1
300 1 4.3131485637352140e+00 6.0767461256127380e+00 6.3922236318987524e+00 3 -1 0
228 1 4.7231349022872022e+00 5.5196157659460496e+00 9.1838764234285613e+00 1 -1 1
1427 1 8.3119726997447803e+00 8.0645783636822017e+00 6.5593331926138410e+00 2 0 1
3099 1 1.1021190719737694e+01 7.8564639480758380e+00 5.5240323890996788e+00 -2 1 1
3615 1 9.3960183098344867e+00 5.8151854124461728e+00 9.9112925226877273e+00 -4 -1 0
5526 1 3.9077407969493541e+00 1.0167027097610502e+01 1.3360354162205606e+01 1 0 0
3182 1 6.6797993718437587e-01 8.6760879249183240e+00 1.3427368724665573e+01 -2 4 1
3380 1 1.0416677878240348e+00 8.3994445622062450e+00 9.0062002943004185e+00 4 -1 1
3537 1 5.1589608107848317e-01 8.3973978004712393e+00 6.4307524891644876e+00 3 -1 0
5191 1 1.8147660007132047e+00 1.0903777230827796e+01 9.8179471276054660e+00 -1 -2 0
6398 1 8.2337801606081467e+00 8.2452625257693200e+00 9.1353385016632895e+00 0 -1 1
257 1 5.7182479480150503e+00 8.1216938498511819e+00 1.0088743012330623e+01 -1 1 0
173 1 4.3227101637038432e+00 1.0189582609448619e+01 9.1313457447541690e+00 1 -2 0
589 1 4.7603802149934902e+00 1.0048816770514868e+01 6.5408152601915051e+00 -2 4 1
1466 1 1.2056034087499675e+01 5.6778860856774500e+00 9.0134573754724983e+00 -2 3 1
524 1 1.1940168765322380e+01 1.0790330511956872e+00 9.3208365288722490e+00 -1 -2 0
112 1 9.4093447882438284e+00 1.0464146034775165e+01 1.0299772972433557e+01 0 -2 0
3936 1 3.6616422801765108e-01 3.9164528892971657e+00 1.3606260687688515e+01 0 -1 1
3969 1 1.6876825070832229e+00 1.7458161664086151e+00 1.2728342011617862e+01 0 0 1
3213 1 4.0471814814671783e+00 1.4111188272475266e+00 1.3756734850237702e+01 1 1 0
593 1 5.9802707704063094e+00 3.3996901024520314e+00 1.0343513199447157e+01 0 -3 1
4772 1 5.6273531514377151e+00 3.4834872267033732e+00 1.2999840856862722e+01 -1 0 1
1893 1 9.3432268686117208e+00 1.1919279206795101e+00 1.2736386923230910e+01 2 -1 0
4930 1 8.2905939784570712e+00 7.7362664462773827e+00 1.3734454996967923e+01 -2 0 0
1415 1 1.8145544990799127e+00 6.0975225330544047e+00 1.2814146847716909e+01 2 3 1
3685 1 4.1641328943693239e+00 5.7422275808443928e+00 1.3648183492910629e+01 -2 0 0
229 1 7.9770957641243436e+00 3.5475781505333011e+00 1.3978644446998073e+01 0 -2 0
2304 1 9.2906730653530296e+00 5.6125909030000818e+00 1.2795574880328928e+01 -1 -1 1
1329 1 1.1923800110710928e+01 1.0423260867141133e+01 6.5228844014850420e+00 0 1 1
6486 1 1.3718344458034790e+00 1.0736053341024714e+01 1.2483534197461900e+01 1 1 1
1619 1 1.1997525442369065e+01 1.0028595079806829e+01 2.1187890352785423e+00 4 2 0
5504 1 1.0818850342698752e+01 1.2140109828970386e+01 3.0276902304476332e+00 0 -3 1
3190 1 1.2044472505111324e+01 5.6070798663013104e+00 6.3188470764905595e+00 0 1 1
60 1 1.2019955635347927e+01 9.8678689607452608e+00 9.1190329340514023e+00 0 -1 1
5642 1 1.1475173734028083e+01 1.1485933877142329e+00 6.5298482394884401e+00 1 0 1
4773 1 3.0017821193581624e+00 3.5608213863862441e+00 1.7352884821541938e+01 -2 1 1
3727 1 4.2445928284384399e-01 3.8025538772741521e+00 1.6349893157382077e+01 3 0 0
1435 1 3.0119404876378377e+00 3.6783538763062649e+00 1.9740644072411254e+01 0 2 1
3172 1 4.3799780130610095e+00 1.2220193971185136e+00 1.6466793843212702e+01 -2 2 1
3040 1 6.7368150092619485e+00 1.1832840733037593e+00 1.7148656969993485e+01 0 2 1
5130 1 6.6987743716636610e+00 1.4277671793573379e+00 1.9798540301083349e+01 -1 0 0
591 1 7.8483282433624950e+00 3.3541499568188820e+00 1.6392202778231489e+01 1 1 1
5433 1 1.0426991574897311e+01 3.4470840877249391e+00 1.7359088715382519e+01 -1 -1 0
6397 1 1.0489907057851319e+01 3.2435126302598891e+00 1.9902320635546840e+01 -1 -2 0
751 2 8.6134999999999984e+00 9.2355835810918343e+00 2.6810987170093629e+01 0 0 0
1694 1 3.2051481314798806e+00 7.9177037192105901e+00 1.7419125945326190e+01 2 -1 1
14 1 3.0544191485488161e+00 8.2968863270034863e+00 1.9831930846883022e+01 -1 1 0
3601 1 4.2223681269779494e+00 5.6191948741319591e+00 1.6408485571419455e+01 4 -2 0
4734 1 6.5512295655870840e+00 5.6604517185066197e+00 1.7347131865180099e+01 1 1 1
496 1 6.7847612742040626e+00 5.8682100893112485e+00 2.0104913839691324e+01 -2 3 1
839 2 1.1074500000000002e+01 1.0656442593567498e+01 2.6810987170093629e+01 0 0 0
5078 1 1.0506766562609636e+01 7.6606981302454518e+00 1.7573791107583521e+01 3 1 1
3036 1 7.3616894903419849e-01 8.1377277295607868e+00 1.6196536985665112e+01 -1 2 1
792 2 8.6134999999999984e+00 1.0656442593567498e+01 2.6810987170093629e+01 0 0 0
13 1 4.3204053016119168e+00 1.0110436415347406e+01 1.6192589737553547e+01 1 0 1
410 1 6.9518755172288751e+00 1.0322291132773788e+01 1.7273625628950917e+01 3 -1 1
3943 1 6.9370447214955506e+00 1.0372808058753602e+01 1.9941031285923835e+01 2 0 1
5060 1 1.1731067435464873e+01 5.4217293697993423e+00 1.6500602730380280e+01 2 0 1
6748 1 8.0078094131677204e+00 8.0219226359485774e+00 1.6443550185779422e+01 2 -4 0
2244 1 1.9482543856621530e+00 1.3055258315750835e+00 2.0700854821840075e+01 0 2 1
3633 1 2.0940243817718458e+00 1.7339285465577416e+00 2.3379011894723686e+01 3 -3 0
4925 1 6.3985210124529583e+00 9.6187094233882142e-01 2.3958907717164568e+01 0 4 1
4868 1 5.4706124690522211e+00 3.5666928153024364e+00 2.0811276630796680e+01 0 1 0
6595 1 5.7622272936219385e+00 3.8753113214098445e+00 2.3417625168506600e+01 -1 2 1
3200 1 8.8807253467468712e+00 8.5054175369566853e-01 2.3271520123828704e+01 1 1 1
1312 1 9.2843243202108088e+00 1.0564728969866202e+00 2.0618519242872335e+01 -3 0 1
3347 1 1.0334232783766547e+01 2.9957049485973970e+00 2.3741699964224765e+01 -2 1 0
5209 1 3.3392527823834648e+00 3.9893205352070780e+00 2.4077992383893310e+01 2 0 0
3435 1 1.7816446337313021e+00 5.9647823820013963e+00 2.0478758274397141e+01 2 0 1
3533 1 1.8743423249431894e+00 6.3368328531965687e+00 2.3248017506201986e+01 -1 0 0
20 1 7.2080206451508655e+00 5.9868824547966550e+00 2.4509025743775378e+01 -1 3 0
4873 1 5.6314731833218099e+00 8.4030475782801783e+00 2.3484280727607761e+01 1 2 0
5455 1 5.5256953878813526e+00 8.1546912288512772e+00 2.0831666642920137e+01 -1 -1 0
3931 1 9.5745900602723637e+00 5.6217859938316463e+00 2.3380098392595670e+01 1 0 1
5303 1 9.4303273929096960e+00 5.6657304305737552e+00 2.0790174421039314e+01 2 1 0
6422 1 1.0613850667472162e+01 7.9161039755693521e+00 2.4230572852209892e+01 2 2 1
5651 1 3.0434268823477049e+00 8.6516206537059102e+00 2.4079500430193001e+01 2 -2 1
375 1 2.0294922467530467e+00 1.0649949572337368e+01 2.0081983721248218e+01 -4 2 0
123 1 2.1300735706424070e+00 1.0801131100867130e+01 2.2855706925292480e+01 2 2 1
441 1 7.1416724533039657e+00 1.0538580763288147e+01 2.4092096482564106e+01 0 -1 0
82 1 1.0716512911631286e+01 7.8809348384986135e+00 1.9929523002587086e+01 -1 -1 0
3188 1 9.4155493756762123e+00 1.0191622807650708e+01 2.0562418880940633e+01 2 -2 0
2087 1 9.4355354816593184e+00 1.0413405427310563e+01 2.3172946968644084e+01 -1 0 0
618 2 0.0000000000000000e+00 2.8417180249513345e+00 2.6810987170093629e+01 0 0 0
620 2 0.0000000000000000e+00 0.0000000000000000e+00 2.6810987170093629e+01 0 0 0
622 2 1.2305000000000001e+00 7.1042950623783474e-01 2.6810987170093629e+01 0 0 0
629 2 1.2305000000000001e+00 2.1312885187134998e+00 2.6810987170093629e+01 0 0 0
631 2 2.4610000000000003e+00 2.8417180249513345e+00 2.6810987170093629e+01 0 0 0
633 2 2.4610000000000003e+00 0.0000000000000000e+00 2.6810987170093629e+01 0 0 0
635 2 3.6915000000000004e+00 7.1042950623783474e-01 2.6810987170093629e+01 0 0 0
650 2 3.6914999999999996e+00 2.1312885187134998e+00 2.6810987170093629e+01 0 0 0
652 2 4.9220000000000006e+00 2.8417180249513332e+00 2.6810987170093629e+01 0 0 0
654 2 4.9220000000000006e+00 0.0000000000000000e+00 2.6810987170093629e+01 0 0 0
656 2 6.1524999999999999e+00 7.1042950623783407e-01 2.6810987170093629e+01 0 0 0
679 2 6.1524999999999999e+00 2.1312885187134989e+00 2.6810987170093629e+01 0 0 0
681 2 7.3829999999999991e+00 2.8417180249513345e+00 2.6810987170093629e+01 0 0 0
683 2 7.3829999999999991e+00 0.0000000000000000e+00 2.6810987170093629e+01 0 0 0
685 2 8.6134999999999984e+00 7.1042950623783407e-01 2.6810987170093629e+01 0 0 0
716 2 8.6134999999999984e+00 2.1312885187135002e+00 2.6810987170093629e+01 0 0 0
718 2 9.8440000000000012e+00 2.8417180249513332e+00 2.6810987170093629e+01 0 0 0
720 2 9.8440000000000012e+00 0.0000000000000000e+00 2.6810987170093629e+01 0 0 0
722 2 1.1074500000000002e+01 7.1042950623783330e-01 2.6810987170093629e+01 0 0 0
761 2 1.1074500000000002e+01 2.1312885187135002e+00 2.6810987170093629e+01 0 0 0
623 2 0.0000000000000000e+00 7.1042950623783341e+00 2.6810987170093629e+01 0 0 0
625 2 0.0000000000000000e+00 4.2625770374269996e+00 2.6810987170093629e+01 0 0 0
627 2 1.2305000000000001e+00 4.9730065436648339e+00 2.6810987170093629e+01 0 0 0
642 2 1.2305000000000001e+00 6.3938655561404980e+00 2.6810987170093629e+01 0 0 0
644 2 2.4610000000000003e+00 7.1042950623783341e+00 2.6810987170093629e+01 0 0 0
646 2 2.4610000000000003e+00 4.2625770374269996e+00 2.6810987170093629e+01 0 0 0
648 2 3.6914999999999996e+00 4.9730065436648339e+00 2.6810987170093629e+01 0 0 0
671 2 3.6914999999999996e+00 6.3938655561404980e+00 2.6810987170093629e+01 0 0 0
673 2 4.9220000000000006e+00 7.1042950623783341e+00 2.6810987170093629e+01 0 0 0
675 2 4.9220000000000006e+00 4.2625770374269978e+00 2.6810987170093629e+01 0 0 0
677 2 6.1524999999999999e+00 4.9730065436648339e+00 2.6810987170093629e+01 0 0 0
708 2 6.1524999999999999e+00 6.3938655561404980e+00 2.6810987170093629e+01 0 0 0
710 2 7.3830000000000009e+00 7.1042950623783341e+00 2.6810987170093629e+01 0 0 0
712 2 7.3829999999999991e+00 4.2625770374269996e+00 2.6810987170093629e+01 0 0 0
714 2 8.6135000000000002e+00 4.9730065436648339e+00 2.6810987170093629e+01 0 0 0
753 2 8.6135000000000002e+00 6.3938655561404980e+00 2.6810987170093629e+01 0 0 0
755 2 9.8440000000000012e+00 7.1042950623783341e+00 2.6810987170093629e+01 0 0 0
757 2 9.8440000000000012e+00 4.2625770374270004e+00 2.6810987170093629e+01 0 0 0
759 2 1.1074500000000002e+01 4.9730065436648339e+00 2.6810987170093629e+01 0 0 0
800 2 1.1074500000000002e+01 6.3938655561404980e+00 2.6810987170093629e+01 0 0 0
667 2 2.4610000000000003e+00 8.5251540748539991e+00 2.6810987170093629e+01 0 0 0
663 2 1.2305000000000001e+00 1.0656442593567498e+01 2.6810987170093629e+01 0 0 0
669 2 3.6915000000000004e+00 9.2355835810918343e+00 2.6810987170093629e+01 0 0 0
700 2 3.6914999999999996e+00 1.0656442593567499e+01 2.6810987170093629e+01 0 0 0
636 2 0.0000000000000000e+00 1.1366872099805333e+01 2.6810987170093629e+01 0 0 0
638 2 0.0000000000000000e+00 8.5251540748539991e+00 2.6810987170093629e+01 0 0 0
640 2 1.2305000000000001e+00 9.2355835810918343e+00 2.6810987170093629e+01 0 0 0
665 2 2.4610000000000003e+00 1.1366872099805333e+01 2.6810987170093629e+01 0 0 0
704 2 4.9220000000000006e+00 8.5251540748539991e+00 2.6810987170093629e+01 0 0 0
747 2 7.3829999999999991e+00 1.1366872099805333e+01 2.6810987170093629e+01 0 0 0
749 2 7.3830000000000009e+00 8.5251540748539991e+00 2.6810987170093629e+01 0 0 0
745 2 6.1524999999999999e+00 1.0656442593567499e+01 2.6810987170093629e+01 0 0 0
706 2 6.1524999999999999e+00 9.2355835810918343e+00 2.6810987170093629e+01 0 0 0
702 2 4.9220000000000006e+00 1.1366872099805333e+01 2.6810987170093629e+01 0 0 0
798 2 1.1074500000000002e+01 9.2355835810918343e+00 2.6810987170093629e+01 0 0 0
841 2 1.2304999999999998e+01 1.1366872099805333e+01 2.6810987170093629e+01 0 0 0
796 2 9.8440000000000012e+00 8.5251540748539956e+00 2.6810987170093629e+01 0 0 0
794 2 9.8440000000000012e+00 1.1366872099805333e+01 2.6810987170093629e+01 0 0 0
3789 1 1.1891754928673398e+01 1.0903547301061429e+00 1.6331305585717502e+01 -1 0 0
350 1 1.1903864519073659e+01 9.9355406636018220e+00 1.6676862917023261e+01 -2 0 0
5374 1 1.0679692698329234e+01 1.2205180059363698e+01 1.7118923997774736e+01 -2 0 0
619 2 0.0000000000000000e+00 1.4208590124756650e+00 3.0031000000002170e+01 0 0 0
621 2 0.0000000000000000e+00 0.0000000000000000e+00 3.0031000000002170e+01 0 0 0
628 2 1.2305000000000001e+00 3.5521475311891644e+00 3.0031000000002170e+01 0 0 0
630 2 1.2305000000000001e+00 2.1312885187134998e+00 3.0031000000002170e+01 0 0 0
632 2 2.4610000000000003e+00 1.4208590124756650e+00 3.0031000000002170e+01 0 0 0
634 2 2.4610000000000003e+00 0.0000000000000000e+00 3.0031000000002170e+01 0 0 0
649 2 3.6914999999999996e+00 3.5521475311891644e+00 3.0031000000002170e+01 0 0 0
651 2 3.6914999999999996e+00 2.1312885187134998e+00 3.0031000000002170e+01 0 0 0
947 2 0.0000000000000000e+00 2.8417180249513345e+00 3.3251012829852172e+01 0 0 0
948 2 0.0000000000000000e+00 0.0000000000000000e+00 3.3251012829852172e+01 0 0 0
949 2 1.2305000000000001e+00 7.1042950623783474e-01 3.3251012829852172e+01 0 0 0
953 2 1.2305000000000001e+00 2.1312885187134998e+00 3.3251012829852172e+01 0 0 0
954 2 2.4610000000000003e+00 2.8417180249513345e+00 3.3251012829852172e+01 0 0 0
955 2 2.4610000000000003e+00 0.0000000000000000e+00 3.3251012829852172e+01 0 0 0
956 2 3.6915000000000004e+00 7.1042950623783474e-01 3.3251012829852172e+01 0 0 0
964 2 3.6914999999999996e+00 2.1312885187134998e+00 3.3251012829852172e+01 0 0 0
653 2 4.9220000000000006e+00 1.4208590124756650e+00 3.0031000000002170e+01 0 0 0
655 2 4.9220000000000006e+00 0.0000000000000000e+00 3.0031000000002170e+01 0 0 0
678 2 6.1524999999999999e+00 3.5521475311891644e+00 3.0031000000002170e+01 0 0 0
680 2 6.1524999999999999e+00 2.1312885187134989e+00 3.0031000000002170e+01 0 0 0
682 2 7.3829999999999991e+00 1.4208590124756659e+00 3.0031000000002170e+01 0 0 0
684 2 7.3829999999999991e+00 0.0000000000000000e+00 3.0031000000002170e+01 0 0 0
965 2 4.9220000000000006e+00 2.8417180249513332e+00 3.3251012829852172e+01 0 0 0
966 2 4.9220000000000006e+00 0.0000000000000000e+00 3.3251012829852172e+01 0 0 0
967 2 6.1524999999999999e+00 7.1042950623783407e-01 3.3251012829852172e+01 0 0 0
979 2 6.1524999999999999e+00 2.1312885187134989e+00 3.3251012829852172e+01 0 0 0
980 2 7.3829999999999991e+00 2.8417180249513345e+00 3.3251012829852172e+01 0 0 0
981 2 7.3829999999999991e+00 0.0000000000000000e+00 3.3251012829852172e+01 0 0 0
715 2 8.6134999999999984e+00 3.5521475311891657e+00 3.0031000000002170e+01 0 0 0
717 2 8.6134999999999984e+00 2.1312885187135002e+00 3.0031000000002170e+01 0 0 0
719 2 9.8440000000000012e+00 1.4208590124756659e+00 3.0031000000002170e+01 0 0 0
721 2 9.8440000000000012e+00 0.0000000000000000e+00 3.0031000000002170e+01 0 0 0
760 2 1.1074500000000002e+01 3.5521475311891644e+00 3.0031000000002170e+01 0 0 0
762 2 1.1074500000000002e+01 2.1312885187135002e+00 3.0031000000002170e+01 0 0 0
982 2 8.6134999999999984e+00 7.1042950623783407e-01 3.3251012829852172e+01 0 0 0
998 2 8.6134999999999984e+00 2.1312885187135002e+00 3.3251012829852172e+01 0 0 0
999 2 9.8440000000000012e+00 2.8417180249513332e+00 3.3251012829852172e+01 0 0 0
1000 2 9.8440000000000012e+00 0.0000000000000000e+00 3.3251012829852172e+01 0 0 0
1001 2 1.1074500000000002e+01 7.1042950623783330e-01 3.3251012829852172e+01 0 0 0
1021 2 1.1074500000000002e+01 2.1312885187135002e+00 3.3251012829852172e+01 0 0 0
624 2 0.0000000000000000e+00 5.6834360499026637e+00 3.0031000000002170e+01 0 0 0
626 2 0.0000000000000000e+00 4.2625770374269996e+00 3.0031000000002170e+01 0 0 0
641 2 1.2305000000000001e+00 7.8147245686161639e+00 3.0031000000002170e+01 0 0 0
643 2 1.2305000000000001e+00 6.3938655561404980e+00 3.0031000000002170e+01 0 0 0
645 2 2.4610000000000003e+00 5.6834360499026637e+00 3.0031000000002170e+01 0 0 0
647 2 2.4610000000000003e+00 4.2625770374269996e+00 3.0031000000002170e+01 0 0 0
670 2 3.6914999999999996e+00 7.8147245686161639e+00 3.0031000000002170e+01 0 0 0
672 2 3.6914999999999996e+00 6.3938655561404980e+00 3.0031000000002170e+01 0 0 0
950 2 0.0000000000000000e+00 7.1042950623783341e+00 3.3251012829852172e+01 0 0 0
951 2 0.0000000000000000e+00 4.2625770374269996e+00 3.3251012829852172e+01 0 0 0
952 2 1.2305000000000001e+00 4.9730065436648339e+00 3.3251012829852172e+01 0 0 0
960 2 1.2305000000000001e+00 6.3938655561404980e+00 3.3251012829852172e+01 0 0 0
961 2 2.4610000000000003e+00 7.1042950623783341e+00 3.3251012829852172e+01 0 0 0
962 2 2.4610000000000003e+00 4.2625770374269996e+00 3.3251012829852172e+01 0 0 0
963 2 3.6914999999999996e+00 4.9730065436648339e+00 3.3251012829852172e+01 0 0 0
975 2 3.6914999999999996e+00 6.3938655561404980e+00 3.3251012829852172e+01 0 0 0
674 2 4.9220000000000006e+00 5.6834360499026637e+00 3.0031000000002170e+01 0 0 0
676 2 4.9220000000000006e+00 4.2625770374269978e+00 3.0031000000002170e+01 0 0 0
707 2 6.1524999999999999e+00 7.8147245686161639e+00 3.0031000000002170e+01 0 0 0
709 2 6.1524999999999999e+00 6.3938655561404980e+00 3.0031000000002170e+01 0 0 0
711 2 7.3829999999999991e+00 5.6834360499026637e+00 3.0031000000002170e+01 0 0 0
713 2 7.3829999999999991e+00 4.2625770374269996e+00 3.0031000000002170e+01 0 0 0
976 2 4.9220000000000006e+00 7.1042950623783341e+00 3.3251012829852172e+01 0 0 0
977 2 4.9220000000000006e+00 4.2625770374269978e+00 3.3251012829852172e+01 0 0 0
978 2 6.1524999999999999e+00 4.9730065436648339e+00 3.3251012829852172e+01 0 0 0
994 2 6.1524999999999999e+00 6.3938655561404980e+00 3.3251012829852172e+01 0 0 0
995 2 7.3830000000000009e+00 7.1042950623783341e+00 3.3251012829852172e+01 0 0 0
996 2 7.3829999999999991e+00 4.2625770374269996e+00 3.3251012829852172e+01 0 0 0
752 2 8.6135000000000002e+00 7.8147245686161639e+00 3.0031000000002170e+01 0 0 0
754 2 8.6135000000000002e+00 6.3938655561404980e+00 3.0031000000002170e+01 0 0 0
756 2 9.8440000000000012e+00 5.6834360499026637e+00 3.0031000000002170e+01 0 0 0
758 2 9.8440000000000012e+00 4.2625770374270004e+00 3.0031000000002170e+01 0 0 0
799 2 1.1074500000000002e+01 7.8147245686161639e+00 3.0031000000002170e+01 0 0 0
801 2 1.1074500000000002e+01 6.3938655561404980e+00 3.0031000000002170e+01 0 0 0
997 2 8.6135000000000002e+00 4.9730065436648339e+00 3.3251012829852172e+01 0 0 0
1017 2 8.6135000000000002e+00 6.3938655561404980e+00 3.3251012829852172e+01 0 0 0
1018 2 9.8440000000000012e+00 7.1042950623783341e+00 3.3251012829852172e+01 0 0 0
1019 2 9.8440000000000012e+00 4.2625770374270004e+00 3.3251012829852172e+01 0 0 0
1020 2 1.1074500000000002e+01 4.9730065436648339e+00 3.3251012829852172e+01 0 0 0
1041 2 1.1074500000000002e+01 6.3938655561404980e+00 3.3251012829852172e+01 0 0 0
637 2 0.0000000000000000e+00 9.9460130873296642e+00 3.0031000000002170e+01 0 0 0
639 2 0.0000000000000000e+00 8.5251540748539991e+00 3.0031000000002170e+01 0 0 0
662 2 1.2305000000000001e+00 1.2077301606043163e+01 3.0031000000002170e+01 0 0 0
664 2 1.2305000000000001e+00 1.0656442593567498e+01 3.0031000000002170e+01 0 0 0
666 2 2.4610000000000003e+00 9.9460130873296642e+00 3.0031000000002170e+01 0 0 0
668 2 2.4610000000000003e+00 8.5251540748539991e+00 3.0031000000002170e+01 0 0 0
699 2 3.6914999999999996e+00 1.2077301606043163e+01 3.0031000000002170e+01 0 0 0
701 2 3.6914999999999996e+00 1.0656442593567499e+01 3.0031000000002170e+01 0 0 0
957 2 0.0000000000000000e+00 1.1366872099805333e+01 3.3251012829852172e+01 0 0 0
958 2 0.0000000000000000e+00 8.5251540748539991e+00 3.3251012829852172e+01 0 0 0
959 2 1.2305000000000001e+00 9.2355835810918343e+00 3.3251012829852172e+01 0 0 0
971 2 1.2305000000000001e+00 1.0656442593567498e+01 3.3251012829852172e+01 0 0 0
972 2 2.4610000000000003e+00 1.1366872099805333e+01 3.3251012829852172e+01 0 0 0
973 2 2.4610000000000003e+00 8.5251540748539991e+00 3.3251012829852172e+01 0 0 0
974 2 3.6915000000000004e+00 9.2355835810918343e+00 3.3251012829852172e+01 0 0 0
990 2 3.6914999999999996e+00 1.0656442593567499e+01 3.3251012829852172e+01 0 0 0
703 2 4.9220000000000006e+00 9.9460130873296642e+00 3.0031000000002170e+01 0 0 0
705 2 4.9220000000000006e+00 8.5251540748539991e+00 3.0031000000002170e+01 0 0 0
744 2 6.1524999999999999e+00 1.2077301606043163e+01 3.0031000000002170e+01 0 0 0
746 2 6.1524999999999999e+00 1.0656442593567499e+01 3.0031000000002170e+01 0 0 0
748 2 7.3830000000000009e+00 9.9460130873296642e+00 3.0031000000002170e+01 0 0 0
750 2 7.3830000000000009e+00 8.5251540748539991e+00 3.0031000000002170e+01 0 0 0
991 2 4.9220000000000006e+00 1.1366872099805333e+01 3.3251012829852172e+01 0 0 0
992 2 4.9220000000000006e+00 8.5251540748539991e+00 3.3251012829852172e+01 0 0 0
993 2 6.1524999999999999e+00 9.2355835810918343e+00 3.3251012829852172e+01 0 0 0
1013 2 6.1524999999999999e+00 1.0656442593567499e+01 3.3251012829852172e+01 0 0 0
1014 2 7.3829999999999991e+00 1.1366872099805333e+01 3.3251012829852172e+01 0 0 0
1015 2 7.3830000000000009e+00 8.5251540748539991e+00 3.3251012829852172e+01 0 0 0
791 2 8.6135000000000002e+00 1.2077301606043163e+01 3.0031000000002170e+01 0 0 0
793 2 8.6134999999999984e+00 1.0656442593567498e+01 3.0031000000002170e+01 0 0 0
795 2 9.8440000000000012e+00 9.9460130873296642e+00 3.0031000000002170e+01 0 0 0
797 2 9.8440000000000012e+00 8.5251540748539956e+00 3.0031000000002170e+01 0 0 0
838 2 1.1074500000000002e+01 1.2077301606043163e+01 3.0031000000002170e+01 0 0 0
840 2 1.1074500000000002e+01 1.0656442593567498e+01 3.0031000000002170e+01 0 0 0
1016 2 8.6134999999999984e+00 9.2355835810918343e+00 3.3251012829852172e+01 0 0 0
1037 2 8.6134999999999984e+00 1.0656442593567498e+01 3.3251012829852172e+01 0 0 0
1038 2 9.8440000000000012e+00 1.1366872099805333e+01 3.3251012829852172e+01 0 0 0
1039 2 9.8440000000000012e+00 8.5251540748539956e+00 3.3251012829852172e+01 0 0 0
1040 2 1.1074500000000002e+01 9.2355835810918343e+00 3.3251012829852172e+01 0 0 0
1061 2 1.1074500000000002e+01 1.0656442593567498e+01 3.3251012829852172e+01 0 0 0
1062 2 1.2304999999999998e+01 1.1366872099805333e+01 3.3251012829852172e+01 0 0 0
3824 1 1.8083619421344859e+00 1.4133898974738359e+00 3.6947500778749188e+01 -1 1 -1
2010 1 1.7938275286543817e+00 2.1257351693851048e+00 3.9497425224148458e+01 0 0 -1
5353 1 2.8111569043936382e+00 3.8767971160192731e+00 3.5689543473385314e+01 4 -2 -1
3977 1 6.5739925940056407e+00 1.3637650724647559e+00 3.5785161727058451e+01 -2 1 0
5365 1 5.7041058876126529e+00 3.8414526074649831e+00 3.9792131513341701e+01 2 0 0
3204 1 5.3400167473208313e+00 3.5463356963402410e+00 3.6748859171511171e+01 1 3 0
322 1 9.0896615776332421e+00 1.2308375154007249e+00 3.6740814122296101e+01 2 1 -1
3425 1 1.0618453752310796e+01 3.2214344572237312e+00 3.5674908715988309e+01 0 2 -1
2001 1 9.2227615715022591e+00 1.1645417598786882e+00 3.9371978742192113e+01 0 3 -1
3129 1 1.5505924911490570e+00 5.9396334173735026e+00 3.6853895525227387e+01 2 -2 0
6704 1 1.5847636780290504e+00 6.1544047858405282e+00 3.9536004163339797e+01 2 1 0
6492 1 7.0566515688601745e+00 5.6418942758837245e+00 3.6180547309240552e+01 1 2 0
5036 1 5.6128263829999225e+00 7.9496486146932206e+00 3.6830731777201777e+01 0 -4 0
367 1 5.4713827250796969e+00 7.8392234621374861e+00 3.9623447395573791e+01 -3 2 -1
4683 1 9.5137634292320392e+00 5.4042127922948193e+00 3.6781007745158163e+01 1 -1 0
3690 1 9.3591134479221036e+00 5.1408464727665608e+00 3.9447410320299483e+01 2 0 -1
1782 1 1.0903172266659391e+01 7.6787069315564400e+00 3.5823013520266542e+01 -3 1 -1
4977 1 2.8703734191195167e+00 8.1894121667922626e+00 3.5837377690251827e+01 -1 3 0
3272 1 1.6872915494208147e+00 1.0795500721260764e+01 3.6838160043458970e+01 2 0 0
145 1 1.9465907085579126e+00 1.0545857413396204e+01 3.9348055305946559e+01 -2 4 -1
208 1 7.1645980511306613e+00 1.0101824322907124e+01 3.5818992624935404e+01 -1 -2 0
3900 1 9.1149087527724095e+00 9.9460403679258107e+00 3.9122887874475126e+01 -2 -1 0
1357 1 1.0034558745673332e+01 1.0199090737378041e+01 3.6518753780248829e+01 -2 -1 0
3439 1 3.1955836719459887e+00 4.1610472682508730e+00 4.0259259404375342e+01 -1 0 0
4955 1 1.5649661811800435e+00 1.6660338538700064e+00 4.4049166292997640e+01 2 2 -1
2195 1 2.7327221242485127e+00 3.8752764648369240e+00 4.3085975614450007e+01 2 0 -1
3123 1 6.7192868253448026e+00 1.5809428222830804e+00 4.0841021090188931e+01 -1 1 0
440 1 6.5920531768568713e+00 1.6721694459472818e+00 4.3162002160632454e+01 -3 3 0
181 1 5.2289880184285185e+00 3.9289536940341976e+00 4.3992370976899721e+01 -2 2 0
3082 1 9.3768919795577954e+00 1.1651703075056996e+00 4.3928170617748435e+01 -2 3 0
6601 1 1.0617469698881973e+01 3.4136760201746550e+00 4.2984935399335384e+01 0 0 0
4823 1 1.0776628026967057e+01 3.1280497289314626e+00 4.0436042906665833e+01 -1 1 -1
1824 1 1.5871836764013056e+00 6.1923633385696828e+00 4.3861713768618372e+01 4 -1 0
1779 1 3.0851524983854426e+00 8.3653388556718706e+00 4.0263833605031081e+01 0 1 -1
5669 1 6.9474911612057788e+00 6.0688017153117242e+00 4.0587819522726761e+01 1 4 0
5585 1 6.8896832043137008e+00 5.7985991743928595e+00 4.3481239077635095e+01 0 0 0
5391 1 9.2560454736867399e+00 5.5041987787769040e+00 4.4043142807235526e+01 2 1 -1
3 1 1.0495435617197101e+01 7.6452122087609862e+00 4.2928789443869107e+01 3 2 0
487 1 1.0641819412095819e+01 7.6434965497176997e+00 4.0032651976905839e+01 -2 0 -1
1703 1 3.1507104688939749e+00 8.2733798247495045e+00 4.3050285552183226e+01 1 2 -1
2112 1 1.4429447483571225e+00 1.0334619396023029e+01 4.3816361013558236e+01 2 0 -1
1345 1 6.6434663341961038e+00 1.0481331984652188e+01 4.3068179063160301e+01 1 1 0
148 1 5.5506321124107565e+00 8.1479393137041498e+00 4.4255736068616883e+01 0 0 -1
3169 1 6.5471826554730326e+00 1.0250464284889782e+01 4.0230314295654253e+01 0 2 0
3570 1 9.1945965147220079e+00 9.9766645608680360e+00 4.3835650526849662e+01 0 0 -1
3298 1 1.0701278255385477e+01 1.2085220441935256e+01 4.2910261026411277e+01 -2 0 -1
202 1 1.7644005908106120e+00 1.9118387127723406e+00 4.6740219706005377e+01 1 2 -1
3415 1 5.0139036860370478e-01 4.0572192883377820e+00 4.7573010673815801e+01 0 0 0
3032 1 4.3837425998982100e+00 1.4248159345167279e+00 4.7877074423609201e+01 0 0 0
3037 1 5.1588308855746963e+00 3.6404490813036396e+00 4.6665076069254866e+01 -2 -1 0
6627 1 7.6177281026468693e+00 3.5977632853949211e+00 4.7559015941863365e+01 1 1 -1
6336 1 9.3163817649959846e+00 1.4227748241195253e+00 4.6708256584179921e+01 1 0 0
6520 1 1.1661688180534329e+01 1.2231822247630906e+00 5.0366576548567124e+01 0 0 0
4852 1 1.7721113393844488e+00 6.1464642717471989e+00 4.6557124706576531e+01 0 -3 0
5071 1 4.0858860991400068e+00 5.7170245361701708e+00 4.7589509575330325e+01 2 3 0
3246 1 8.2216778800121073e+00 7.8617263418959755e+00 4.7419854577245715e+01 1 0 0
3705 1 9.1733208405426794e+00 5.5607784574596106e+00 4.6709006446462567e+01 0 2 -1
2318 1 1.1815168908438009e+01 9.9873001685741389e+00 4.7466969706122427e+01 -1 -2 0
614 1 5.4400942000185137e-01 8.2718564991058301e+00 4.7654562280123656e+01 0 -2 0
3677 1 1.8380064858922636e+00 1.0340929851693298e+01 4.6549412285519722e+01 2 0 -1
1310 1 5.5525147651157578e+00 7.9362395687597109e+00 4.6794578623267739e+01 1 -2 0
4835 1 4.2158700749610443e+00 1.0100815014562547e+01 4.7733710595723821e+01 0 -1 0