LAMMPS data file via write_data, version 16 Mar 2018, timestep = 100000

4545 atoms
2 atom types

0.0000000000000000e+00 4.9219999999999999e+01 xlo xhi
0.0000000000000000e+00 4.9019635930410494e+01 ylo yhi
1.7121696843365140e+00 3.1923170102185004e+01 zlo zhi

Masses

1 18.015
2 12.01

Atoms # atomic

91 2 0.0000000000000000e+00 2.8417180249513345e+00 3.2184380325170894e+00 0 0 0
93 2 0.0000000000000000e+00 0.0000000000000000e+00 3.2184380325170894e+00 0 0 0
95 2 1.2305000000000001e+00 7.1042950623783474e-01 3.2184380325170894e+00 0 0 0
102 2 1.2305000000000001e+00 2.1312885187134998e+00 3.2184380325170894e+00 0 0 0
104 2 2.4610000000000003e+00 2.8417180249513345e+00 3.2184380325170894e+00 0 0 0
106 2 2.4610000000000003e+00 0.0000000000000000e+00 3.2184380325170894e+00 0 0 0
108 2 3.6915000000000004e+00 7.1042950623783474e-01 3.2184380325170894e+00 0 0 0
123 2 3.6914999999999996e+00 2.1312885187134998e+00 3.2184380325170894e+00 0 0 0
125 2 4.9220000000000006e+00 2.8417180249513332e+00 3.2184380325170894e+00 0 0 0
127 2 4.9220000000000006e+00 0.0000000000000000e+00 3.2184380325170894e+00 0 0 0
129 2 6.1524999999999999e+00 7.1042950623783407e-01 3.2184380325170894e+00 0 0 0
152 2 6.1524999999999999e+00 2.1312885187134989e+00 3.2184380325170894e+00 0 0 0
154 2 7.3829999999999991e+00 2.8417180249513345e+00 3.2184380325170894e+00 0 0 0
156 2 7.3829999999999991e+00 0.0000000000000000e+00 3.2184380325170894e+00 0 0 0
158 2 8.6134999999999984e+00 7.1042950623783407e-01 3.2184380325170894e+00 0 0 0
189 2 8.6134999999999984e+00 2.1312885187135002e+00 3.2184380325170894e+00 0 0 0
191 2 9.8440000000000012e+00 2.8417180249513332e+00 3.2184380325170894e+00 0 0 0
193 2 9.8440000000000012e+00 0.0000000000000000e+00 3.2184380325170894e+00 0 0 0
195 2 1.1074500000000002e+01 7.1042950623783330e-01 3.2184380325170894e+00 0 0 0
234 2 1.1074500000000002e+01 2.1312885187135002e+00 3.2184380325170894e+00 0 0 0
98 2 0.0000000000000000e+00 4.2625770374269996e+00 3.2184380325170894e+00 0 0 0
100 2 1.2305000000000001e+00 4.9730065436648339e+00 3.2184380325170894e+00 0 0 0
115 2 1.2305000000000001e+00 6.3938655561404980e+00 3.2184380325170894e+00 0 0 0
119 2 2.4610000000000003e+00 4.2625770374269996e+00 3.2184380325170894e+00 0 0 0
121 2 3.6914999999999996e+00 4.9730065436648339e+00 3.2184380325170894e+00 0 0 0
144 2 3.6914999999999996e+00 6.3938655561404980e+00 3.2184380325170894e+00 0 0 0
96 2 0.0000000000000000e+00 7.1042950623783341e+00 3.2184380325170894e+00 0 0 0
117 2 2.4610000000000003e+00 7.1042950623783341e+00 3.2184380325170894e+00 0 0 0
148 2 4.9220000000000006e+00 4.2625770374269978e+00 3.2184380325170894e+00 0 0 0
150 2 6.1524999999999999e+00 4.9730065436648339e+00 3.2184380325170894e+00 0 0 0
181 2 6.1524999999999999e+00 6.3938655561404980e+00 3.2184380325170894e+00 0 0 0
185 2 7.3829999999999991e+00 4.2625770374269996e+00 3.2184380325170894e+00 0 0 0
146 2 4.9220000000000006e+00 7.1042950623783341e+00 3.2184380325170894e+00 0 0 0
183 2 7.3830000000000009e+00 7.1042950623783341e+00 3.2184380325170894e+00 0 0 0
187 2 8.6135000000000002e+00 4.9730065436648339e+00 3.2184380325170894e+00 0 0 0
226 2 8.6135000000000002e+00 6.3938655561404980e+00 3.2184380325170894e+00 0 0 0
230 2 9.8440000000000012e+00 4.2625770374270004e+00 3.2184380325170894e+00 0 0 0
232 2 1.1074500000000002e+01 4.9730065436648339e+00 3.2184380325170894e+00 0 0 0
273 2 1.1074500000000002e+01 6.3938655561404980e+00 3.2184380325170894e+00 0 0 0
228 2 9.8440000000000012e+00 7.1042950623783341e+00 3.2184380325170894e+00 0 0 0
111 2 0.0000000000000000e+00 8.5251540748539991e+00 3.2184380325170894e+00 0 0 0
113 2 1.2305000000000001e+00 9.2355835810918343e+00 3.2184380325170894e+00 0 0 0
140 2 2.4610000000000003e+00 8.5251540748539991e+00 3.2184380325170894e+00 0 0 0
142 2 3.6915000000000004e+00 9.2355835810918343e+00 3.2184380325170894e+00 0 0 0
109 2 0.0000000000000000e+00 1.1366872099805333e+01 3.2184380325170894e+00 0 0 0
136 2 1.2305000000000001e+00 1.0656442593567498e+01 3.2184380325170894e+00 0 0 0
138 2 2.4610000000000003e+00 1.1366872099805333e+01 3.2184380325170894e+00 0 0 0
173 2 3.6914999999999996e+00 1.0656442593567499e+01 3.2184380325170894e+00 0 0 0
177 2 4.9220000000000006e+00 8.5251540748539991e+00 3.2184380325170894e+00 0 0 0
179 2 6.1524999999999999e+00 9.2355835810918343e+00 3.2184380325170894e+00 0 0 0
222 2 7.3830000000000009e+00 8.5251540748539991e+00 3.2184380325170894e+00 0 0 0
175 2 4.9220000000000006e+00 1.1366872099805333e+01 3.2184380325170894e+00 0 0 0
218 2 6.1524999999999999e+00 1.0656442593567499e+01 3.2184380325170894e+00 0 0 0
220 2 7.3829999999999991e+00 1.1366872099805333e+01 3.2184380325170894e+00 0 0 0
224 2 8.6134999999999984e+00 9.2355835810918343e+00 3.2184380325170894e+00 0 0 0
269 2 9.8440000000000012e+00 8.5251540748539956e+00 3.2184380325170894e+00 0 0 0
271 2 1.1074500000000002e+01 9.2355835810918343e+00 3.2184380325170894e+00 0 0 0
265 2 8.6134999999999984e+00 1.0656442593567498e+01 3.2184380325170894e+00 0 0 0
267 2 9.8440000000000012e+00 1.1366872099805333e+01 3.2184380325170894e+00 0 0 0
312 2 1.1074500000000002e+01 1.0656442593567498e+01 3.2184380325170894e+00 0 0 0
314 2 1.2304999999999998e+01 1.1366872099805333e+01 3.2184380325170894e+00 0 0 0
92 2 0.0000000000000000e+00 1.4208590124756650e+00 6.2309747288777766e+00 0 0 0
94 2 0.0000000000000000e+00 0.0000000000000000e+00 6.2309747288777766e+00 0 0 0
103 2 1.2305000000000001e+00 2.1312885187134998e+00 6.2309747288777766e+00 0 0 0
105 2 2.4610000000000003e+00 1.4208590124756650e+00 6.2309747288777766e+00 0 0 0
107 2 2.4610000000000003e+00 0.0000000000000000e+00 6.2309747288777766e+00 0 0 0
124 2 3.6914999999999996e+00 2.1312885187134998e+00 6.2309747288777766e+00 0 0 0
420 2 0.0000000000000000e+00 2.8417180249513345e+00 9.2435114252388146e+00 0 0 0
421 2 0.0000000000000000e+00 0.0000000000000000e+00 9.2435114252388146e+00 0 0 0
422 2 1.2305000000000001e+00 7.1042950623783474e-01 9.2435114252388146e+00 0 0 0
426 2 1.2305000000000001e+00 2.1312885187134998e+00 9.2435114252388146e+00 0 0 0
427 2 2.4610000000000003e+00 2.8417180249513345e+00 9.2435114252388146e+00 0 0 0
428 2 2.4610000000000003e+00 0.0000000000000000e+00 9.2435114252388146e+00 0 0 0
429 2 3.6915000000000004e+00 7.1042950623783474e-01 9.2435114252388146e+00 0 0 0
437 2 3.6914999999999996e+00 2.1312885187134998e+00 9.2435114252388146e+00 0 0 0
101 2 1.2305000000000001e+00 3.5521475311891644e+00 6.2309747288777766e+00 0 0 0
122 2 3.6914999999999996e+00 3.5521475311891644e+00 6.2309747288777766e+00 0 0 0
126 2 4.9220000000000006e+00 1.4208590124756650e+00 6.2309747288777766e+00 0 0 0
128 2 4.9220000000000006e+00 0.0000000000000000e+00 6.2309747288777766e+00 0 0 0
153 2 6.1524999999999999e+00 2.1312885187134989e+00 6.2309747288777766e+00 0 0 0
155 2 7.3829999999999991e+00 1.4208590124756659e+00 6.2309747288777766e+00 0 0 0
157 2 7.3829999999999991e+00 0.0000000000000000e+00 6.2309747288777766e+00 0 0 0
438 2 4.9220000000000006e+00 2.8417180249513332e+00 9.2435114252388146e+00 0 0 0
439 2 4.9220000000000006e+00 0.0000000000000000e+00 9.2435114252388146e+00 0 0 0
440 2 6.1524999999999999e+00 7.1042950623783407e-01 9.2435114252388146e+00 0 0 0
452 2 6.1524999999999999e+00 2.1312885187134989e+00 9.2435114252388146e+00 0 0 0
453 2 7.3829999999999991e+00 2.8417180249513345e+00 9.2435114252388146e+00 0 0 0
454 2 7.3829999999999991e+00 0.0000000000000000e+00 9.2435114252388146e+00 0 0 0
151 2 6.1524999999999999e+00 3.5521475311891644e+00 6.2309747288777766e+00 0 0 0
190 2 8.6134999999999984e+00 2.1312885187135002e+00 6.2309747288777766e+00 0 0 0
192 2 9.8440000000000012e+00 1.4208590124756659e+00 6.2309747288777766e+00 0 0 0
194 2 9.8440000000000012e+00 0.0000000000000000e+00 6.2309747288777766e+00 0 0 0
235 2 1.1074500000000002e+01 2.1312885187135002e+00 6.2309747288777766e+00 0 0 0
455 2 8.6134999999999984e+00 7.1042950623783407e-01 9.2435114252388146e+00 0 0 0
471 2 8.6134999999999984e+00 2.1312885187135002e+00 9.2435114252388146e+00 0 0 0
472 2 9.8440000000000012e+00 2.8417180249513332e+00 9.2435114252388146e+00 0 0 0
473 2 9.8440000000000012e+00 0.0000000000000000e+00 9.2435114252388146e+00 0 0 0
474 2 1.1074500000000002e+01 7.1042950623783330e-01 9.2435114252388146e+00 0 0 0
494 2 1.1074500000000002e+01 2.1312885187135002e+00 9.2435114252388146e+00 0 0 0
188 2 8.6134999999999984e+00 3.5521475311891657e+00 6.2309747288777766e+00 0 0 0
233 2 1.1074500000000002e+01 3.5521475311891644e+00 6.2309747288777766e+00 0 0 0
97 2 0.0000000000000000e+00 5.6834360499026637e+00 6.2309747288777766e+00 0 0 0
99 2 0.0000000000000000e+00 4.2625770374269996e+00 6.2309747288777766e+00 0 0 0
116 2 1.2305000000000001e+00 6.3938655561404980e+00 6.2309747288777766e+00 0 0 0
118 2 2.4610000000000003e+00 5.6834360499026637e+00 6.2309747288777766e+00 0 0 0
120 2 2.4610000000000003e+00 4.2625770374269996e+00 6.2309747288777766e+00 0 0 0
145 2 3.6914999999999996e+00 6.3938655561404980e+00 6.2309747288777766e+00 0 0 0
424 2 0.0000000000000000e+00 4.2625770374269996e+00 9.2435114252388146e+00 0 0 0
425 2 1.2305000000000001e+00 4.9730065436648339e+00 9.2435114252388146e+00 0 0 0
433 2 1.2305000000000001e+00 6.3938655561404980e+00 9.2435114252388146e+00 0 0 0
435 2 2.4610000000000003e+00 4.2625770374269996e+00 9.2435114252388146e+00 0 0 0
436 2 3.6914999999999996e+00 4.9730065436648339e+00 9.2435114252388146e+00 0 0 0
448 2 3.6914999999999996e+00 6.3938655561404980e+00 9.2435114252388146e+00 0 0 0
114 2 1.2305000000000001e+00 7.8147245686161639e+00 6.2309747288777766e+00 0 0 0
143 2 3.6914999999999996e+00 7.8147245686161639e+00 6.2309747288777766e+00 0 0 0
423 2 0.0000000000000000e+00 7.1042950623783341e+00 9.2435114252388146e+00 0 0 0
434 2 2.4610000000000003e+00 7.1042950623783341e+00 9.2435114252388146e+00 0 0 0
147 2 4.9220000000000006e+00 5.6834360499026637e+00 6.2309747288777766e+00 0 0 0
149 2 4.9220000000000006e+00 4.2625770374269978e+00 6.2309747288777766e+00 0 0 0
182 2 6.1524999999999999e+00 6.3938655561404980e+00 6.2309747288777766e+00 0 0 0
184 2 7.3829999999999991e+00 5.6834360499026637e+00 6.2309747288777766e+00 0 0 0
186 2 7.3829999999999991e+00 4.2625770374269996e+00 6.2309747288777766e+00 0 0 0
450 2 4.9220000000000006e+00 4.2625770374269978e+00 9.2435114252388146e+00 0 0 0
451 2 6.1524999999999999e+00 4.9730065436648339e+00 9.2435114252388146e+00 0 0 0
467 2 6.1524999999999999e+00 6.3938655561404980e+00 9.2435114252388146e+00 0 0 0
469 2 7.3829999999999991e+00 4.2625770374269996e+00 9.2435114252388146e+00 0 0 0
180 2 6.1524999999999999e+00 7.8147245686161639e+00 6.2309747288777766e+00 0 0 0
449 2 4.9220000000000006e+00 7.1042950623783341e+00 9.2435114252388146e+00 0 0 0
468 2 7.3830000000000009e+00 7.1042950623783341e+00 9.2435114252388146e+00 0 0 0
227 2 8.6135000000000002e+00 6.3938655561404980e+00 6.2309747288777766e+00 0 0 0
229 2 9.8440000000000012e+00 5.6834360499026637e+00 6.2309747288777766e+00 0 0 0
231 2 9.8440000000000012e+00 4.2625770374270004e+00 6.2309747288777766e+00 0 0 0
274 2 1.1074500000000002e+01 6.3938655561404980e+00 6.2309747288777766e+00 0 0 0
470 2 8.6135000000000002e+00 4.9730065436648339e+00 9.2435114252388146e+00 0 0 0
490 2 8.6135000000000002e+00 6.3938655561404980e+00 9.2435114252388146e+00 0 0 0
492 2 9.8440000000000012e+00 4.2625770374270004e+00 9.2435114252388146e+00 0 0 0
493 2 1.1074500000000002e+01 4.9730065436648339e+00 9.2435114252388146e+00 0 0 0
514 2 1.1074500000000002e+01 6.3938655561404980e+00 9.2435114252388146e+00 0 0 0
225 2 8.6135000000000002e+00 7.8147245686161639e+00 6.2309747288777766e+00 0 0 0
272 2 1.1074500000000002e+01 7.8147245686161639e+00 6.2309747288777766e+00 0 0 0
491 2 9.8440000000000012e+00 7.1042950623783341e+00 9.2435114252388146e+00 0 0 0
110 2 0.0000000000000000e+00 9.9460130873296642e+00 6.2309747288777766e+00 0 0 0
112 2 0.0000000000000000e+00 8.5251540748539991e+00 6.2309747288777766e+00 0 0 0
139 2 2.4610000000000003e+00 9.9460130873296642e+00 6.2309747288777766e+00 0 0 0
141 2 2.4610000000000003e+00 8.5251540748539991e+00 6.2309747288777766e+00 0 0 0
431 2 0.0000000000000000e+00 8.5251540748539991e+00 9.2435114252388146e+00 0 0 0
432 2 1.2305000000000001e+00 9.2355835810918343e+00 9.2435114252388146e+00 0 0 0
446 2 2.4610000000000003e+00 8.5251540748539991e+00 9.2435114252388146e+00 0 0 0
447 2 3.6915000000000004e+00 9.2355835810918343e+00 9.2435114252388146e+00 0 0 0
135 2 1.2305000000000001e+00 1.2077301606043163e+01 6.2309747288777766e+00 0 0 0
137 2 1.2305000000000001e+00 1.0656442593567498e+01 6.2309747288777766e+00 0 0 0
172 2 3.6914999999999996e+00 1.2077301606043163e+01 6.2309747288777766e+00 0 0 0
174 2 3.6914999999999996e+00 1.0656442593567499e+01 6.2309747288777766e+00 0 0 0
430 2 0.0000000000000000e+00 1.1366872099805333e+01 9.2435114252388146e+00 0 0 0
444 2 1.2305000000000001e+00 1.0656442593567498e+01 9.2435114252388146e+00 0 0 0
445 2 2.4610000000000003e+00 1.1366872099805333e+01 9.2435114252388146e+00 0 0 0
463 2 3.6914999999999996e+00 1.0656442593567499e+01 9.2435114252388146e+00 0 0 0
176 2 4.9220000000000006e+00 9.9460130873296642e+00 6.2309747288777766e+00 0 0 0
178 2 4.9220000000000006e+00 8.5251540748539991e+00 6.2309747288777766e+00 0 0 0
221 2 7.3830000000000009e+00 9.9460130873296642e+00 6.2309747288777766e+00 0 0 0
223 2 7.3830000000000009e+00 8.5251540748539991e+00 6.2309747288777766e+00 0 0 0
465 2 4.9220000000000006e+00 8.5251540748539991e+00 9.2435114252388146e+00 0 0 0
466 2 6.1524999999999999e+00 9.2355835810918343e+00 9.2435114252388146e+00 0 0 0
488 2 7.3830000000000009e+00 8.5251540748539991e+00 9.2435114252388146e+00 0 0 0
217 2 6.1524999999999999e+00 1.2077301606043163e+01 6.2309747288777766e+00 0 0 0
219 2 6.1524999999999999e+00 1.0656442593567499e+01 6.2309747288777766e+00 0 0 0
464 2 4.9220000000000006e+00 1.1366872099805333e+01 9.2435114252388146e+00 0 0 0
486 2 6.1524999999999999e+00 1.0656442593567499e+01 9.2435114252388146e+00 0 0 0
487 2 7.3829999999999991e+00 1.1366872099805333e+01 9.2435114252388146e+00 0 0 0
268 2 9.8440000000000012e+00 9.9460130873296642e+00 6.2309747288777766e+00 0 0 0
270 2 9.8440000000000012e+00 8.5251540748539956e+00 6.2309747288777766e+00 0 0 0
489 2 8.6134999999999984e+00 9.2355835810918343e+00 9.2435114252388146e+00 0 0 0
512 2 9.8440000000000012e+00 8.5251540748539956e+00 9.2435114252388146e+00 0 0 0
513 2 1.1074500000000002e+01 9.2355835810918343e+00 9.2435114252388146e+00 0 0 0
264 2 8.6135000000000002e+00 1.2077301606043163e+01 6.2309747288777766e+00 0 0 0
266 2 8.6134999999999984e+00 1.0656442593567498e+01 6.2309747288777766e+00 0 0 0
311 2 1.1074500000000002e+01 1.2077301606043163e+01 6.2309747288777766e+00 0 0 0
313 2 1.1074500000000002e+01 1.0656442593567498e+01 6.2309747288777766e+00 0 0 0
510 2 8.6134999999999984e+00 1.0656442593567498e+01 9.2435114252388146e+00 0 0 0
511 2 9.8440000000000012e+00 1.1366872099805333e+01 9.2435114252388146e+00 0 0 0
534 2 1.1074500000000002e+01 1.0656442593567498e+01 9.2435114252388146e+00 0 0 0
535 2 1.2304999999999998e+01 1.1366872099805333e+01 9.2435114252388146e+00 0 0 0
603 1 1.2048030903318521e+01 3.9550956497211676e+00 1.2016295718942402e+01 1 0 -1
3853 1 3.1216496298423952e+00 2.3601398006477110e+00 1.1805791064427767e+01 1 0 0
1415 1 6.2946174689202445e+00 1.7412821233291038e+00 1.2020313294392068e+01 1 0 0
4514 1 8.0933592105240617e+00 4.1029609318925191e+00 1.5838160687935217e+01 0 1 0
1601 1 9.3183993098409843e+00 4.9167756266120808e+00 1.1790482301197139e+01 1 0 0
2345 1 6.6195396551627477e+00 4.6064988999297736e+00 1.1857546245689758e+01 0 1 -1
3621 1 1.5261369542591132e+00 4.8504231168163958e+00 1.2416524739123407e+01 0 0 0
4444 1 2.3906880160339408e+00 8.5335584615362858e+00 1.1847505684108533e+01 0 1 0
2977 1 4.1316553003757654e+00 6.1291304207446773e+00 1.2317215925876482e+01 0 0 0
4393 1 9.9159747480516032e+00 7.6621042989377059e+00 1.2169374336187051e+01 1 1 -1
641 1 1.1060957250669581e+01 1.2236250216673608e+00 1.1546471054099543e+01 0 1 0
3782 1 4.4829973263600698e-01 1.4780537549006154e+00 1.2258959696715596e+01 0 1 0
3064 1 5.6290043944108881e+00 8.9561386835397556e+00 1.1952210983535341e+01 1 1 1
3658 1 3.5094329120948413e+00 1.9090447410459339e+00 1.4485481034163472e+01 1 0 -1
81 1 8.4811413366689390e+00 9.9966311345085952e+00 1.1638504877189931e+01 0 0 0
715 1 1.4766516151323912e+00 1.0764173671000533e+01 1.4673589122868846e+01 -1 0 -1
3787 1 9.5229399356173872e+00 9.7734019195087174e-01 1.6608905485350633e+01 0 0 0
2244 1 7.1115284637807132e+00 6.1380187608347647e+00 1.4181933600370586e+01 0 -1 1
669 1 1.1778396893472980e+01 2.6997382806244286e+00 1.5647310188193769e+01 0 1 1
3891 1 9.0051963686871712e+00 2.7194934988756363e+00 1.3480183028484118e+01 0 0 0
3041 1 1.4239220057870030e+00 4.2570159591333132e+00 1.5315103925938244e+01 0 1 0
36 1 4.3165099406594196e+00 6.6636294528406825e+00 1.5031254358165517e+01 0 0 1
2392 1 6.9025154783768663e+00 9.0258110689023709e+00 1.4391264133809376e+01 0 1 0
3002 1 9.9894624544992610e+00 8.3383626811278369e+00 1.4860155254316609e+01 0 0 -1
2277 1 1.1884228955458088e+01 1.0405058509996509e+01 1.2106556009188925e+01 1 1 0
755 1 5.8693742039796373e+00 7.4794461464660966e-01 1.4726228563104993e+01 0 1 1
2882 1 1.7963786014655510e+00 7.8690123474331690e+00 1.4533736366293835e+01 1 0 0
1543 1 1.0669990092572320e+01 1.1038531624215802e+01 1.4641468263315343e+01 1 -1 -1
4340 1 1.1051282673262778e+01 5.6097386812022574e+00 1.5523529192302590e+01 0 1 0
1436 1 3.9686573539237582e+00 1.1278397064381592e+01 1.1897477101815456e+01 1 1 1
1617 1 7.5822297972075727e+00 1.1346681054331206e+01 1.5972056832635237e+01 1 1 1
2394 1 4.4360996199876865e+00 1.1190455721481539e+01 1.4892832401809009e+01 1 0 0
581 1 1.7187618507951583e-01 1.8385876837791353e+00 1.5298580575422175e+01 0 1 -1
2925 1 8.3339646528094136e-01 1.1750273175534618e+01 1.1958413906322424e+01 0 1 0
1592 1 3.0755671767500485e-02 1.2234427441728419e+01 1.6473989282112129e+01 1 1 0
2982 1 3.8165055445695426e+00 4.3881555883508510e+00 1.6743610853846395e+01 -1 1 0
3837 1 7.2343895109344913e+00 1.0406058331308241e+01 2.3497103678792854e+01 1 1 -1
648 1 6.9287329319743867e+00 1.0436382780877729e+01 3.0656142166432595e+01 0 0 0
2342 1 7.0840413872444774e+00 4.1833093792326381e-01 2.7455408847766599e+01 0 0 0
2241 1 1.1165578491369942e+01 5.6347639826112070e+00 1.8505932302529160e+01 0 0 -1
3650 1 7.2173205953089736e-01 5.1528823733122069e+00 2.7482531775524947e+01 1 0 1
3124 1 2.5516733654357489e+00 1.1353310932246751e+01 2.5854264185362723e+01 2 -1 0
3751 1 8.9650535575141248e+00 9.6955459537348840e+00 2.6436599163594956e+01 0 0 0
2927 1 9.4586423247052664e+00 1.0854938489129342e+01 3.1061196293152832e+01 1 1 0
850 1 6.6956880216449277e-01 4.9374613025742828e+00 3.0542097815510125e+01 0 0 0
3785 1 4.5407006164943704e+00 4.8145339579190631e+00 2.1207225959264456e+01 1 -1 0
615 1 3.6782225401785427e+00 6.3533813031047028e+00 1.8887353340756761e+01 0 1 0
1443 1 8.4906587218344534e+00 2.3017604151546043e+00 1.9038872963982598e+01 1 1 -1
27 1 8.2543505688107501e+00 7.9564460638469932e+00 1.7316166005279193e+01 0 0 1
4419 1 5.2307148933120873e+00 8.7187052299500678e+00 1.7249123933198746e+01 0 1 0
42 1 8.6152129581088843e-01 6.5009911388210764e+00 2.3302399862220042e+01 0 0 -1
2313 1 8.7364961899926441e-01 9.0218598220485759e+00 1.9920586960156378e+01 1 0 0
772 1 5.9349941665532118e+00 1.1509104081759437e+01 1.8214001783129262e+01 1 0 -1
4454 1 6.8974952963357303e+00 7.0665990825719094e+00 3.0414280794352834e+01 0 0 0
1405 1 9.5662265036736756e+00 8.0598119818605944e+00 3.0683741743098821e+01 -1 -1 0
2356 1 2.6500897727976698e+00 9.4479923301289470e-01 2.5566388407134113e+01 0 1 0
2389 1 1.0519318643449475e+01 8.0006928340512147e+00 2.8141546337709222e+01 0 0 -1
1622 1 3.9152322602890965e+00 1.5590431423319999e+00 3.0988556384293730e+01 1 1 1
3778 1 4.9179799539352755e+00 1.2565408342603130e+00 2.3990179966500818e+01 1 1 -1
1549 1 2.6100661131859909e-01 1.8655680587817269e+00 2.4332610373130606e+01 0 1 -1
2190 1 6.4453089996234079e+00 2.1642726941578685e+00 2.1957797778373696e+01 0 1 -1
778 1 3.6740226974239945e+00 1.1937830637413311e+01 2.2610336339957541e+01 0 1 1
4383 1 1.9482921064900443e+00 3.3743985651199879e+00 1.9100697930748268e+01 0 -1 0
1656 1 3.4029976507520194e+00 2.1610630434183462e+00 2.1050603992661713e+01 1 0 0
730 1 6.3772058240176976e+00 7.2498528666785145e+00 1.9846064816861919e+01 0 0 1
3760 1 8.3538862496159219e+00 6.1179692520959046e+00 2.1502750263779234e+01 0 0 -1
2236 1 1.0403624983980663e+01 3.2026413827732809e+00 2.0796883896459910e+01 -1 0 0
3116 1 1.1754642268640614e+01 4.0704967707556730e+00 2.3818505916006458e+01 1 1 0
707 1 1.1200386756517361e+01 5.9953388878898082e+00 2.1573790969265296e+01 0 0 0
2907 1 1.0040760979296162e+00 1.0303591976947633e+00 2.1670097565523534e+01 0 1 0
2126 1 2.1526394209351358e+00 8.3384834089056081e+00 1.7507432204738144e+01 1 -1 -1
3746 1 8.5005404962269218e+00 5.3169432528343217e+00 1.8309821204002937e+01 1 1 0
2159 1 6.9708487222149422e+00 9.9314598171297792e+00 2.0540936764987464e+01 0 1 1
683 1 9.5079160844105388e+00 1.0162384856556933e+01 1.8479245780906226e+01 -1 2 0
1373 1 9.8831339508748393e+00 9.7743677665260531e+00 2.1467079276304950e+01 0 -1 0
3807 1 6.2769571811268534e+00 1.0233473584810513e+01 2.6611237307572935e+01 0 1 0
2167 1 4.3927024113678481e+00 9.7803576803988257e+00 2.4587630417912393e+01 1 1 -1
2168 1 4.2367414865320585e+00 5.1658772402211273e-01 2.8095007848962645e+01 0 2 -1
3038 1 2.5410708605830532e+00 1.0457450298105369e+01 3.0527011626245098e+01 0 1 0
2319 1 7.6838200433114405e+00 4.0211191463652343e+00 2.3374955610332385e+01 0 0 0
2961 1 9.4407604543615093e+00 2.2934831190098093e+00 2.4249052381699663e+01 -1 1 0
32 1 1.0744713654493724e+01 9.2457572465829724e-02 2.8042688475882379e+01 1 0 0
1416 1 1.0564137022958688e+01 6.3245639525787178e-01 3.0703521231056563e+01 1 0 -1
685 1 1.9025752776376414e+00 1.1288834903433695e+01 2.0567234127154926e+01 1 0 0
1467 1 5.0876629770660449e+00 3.9307091210368998e+00 2.5279556001246490e+01 0 0 0
827 1 5.0030938656707216e+00 6.1266201424290232e+00 2.3761028005445560e+01 0 1 0
3840 1 9.5288613678547858e+00 5.2350505892685462e+00 2.8277551761265848e+01 1 -1 1
2986 1 2.2334291267201483e+00 9.3535982331372498e+00 2.7767731552846158e+01 1 0 -1
2996 1 3.0434948539549911e+00 7.3403600373424656e+00 2.5036955668422046e+01 0 0 0
665 1 3.2071287525773524e+00 6.7362064708768692e+00 2.7740047597918803e+01 1 1 0
3093 1 7.5495775089655410e+00 7.6427031433786778e+00 2.3764109058451261e+01 0 -1 1
1519 1 7.1010466369760543e+00 5.6977616313314083e+00 2.6545899504311578e+01 0 1 0
2971 1 1.0095480639961758e+01 7.2892420088049148e+00 2.4920117239131571e+01 0 1 0
61 1 1.1654629012078569e+01 1.1857353501283866e+01 2.0844159055553035e+01 0 0 0
1621 1 1.1642708868907373e+01 5.4946446317263371e+00 2.6360451233146080e+01 0 0 0
2351 1 6.0368760095403760e+00 2.4010932014774129e+00 1.6996392667084635e+01 1 2 0
3060 1 4.4151932740300373e+00 7.1397417774066763e-01 1.8785838795768974e+01 0 0 -1
3706 1 9.4503877753119281e-01 2.3492533586397188e+00 2.7615912660742083e+01 0 0 0
4370 1 1.1304756323593463e+00 1.8736625148866892e+00 3.0632379772398068e+01 0 1 0
2179 1 9.4476377687720881e+00 2.5646758182619931e+00 2.7048205821456634e+01 1 1 0
4474 1 3.9299498405954103e+00 3.4747919323849557e+00 2.7838448340496541e+01 0 0 0
640 1 8.1131535591203310e+00 1.7840267639102627e+00 3.0136649547303740e+01 0 1 0
2195 1 1.0733641179506922e+01 4.7886322417126914e+00 3.0609425770796896e+01 2 -1 -1
3831 1 5.8957654588218631e+00 7.6743648976441170e+00 2.7892878762256743e+01 -1 0 0
624 1 4.7336440246301663e+00 8.7209095653726809e+00 3.1289767500126324e+01 1 1 -1
655 1 3.3421251731016079e+00 6.3406850328880777e+00 3.0427652983203814e+01 0 0 -1
1393 1 4.7656798914401506e+00 3.9565381833513631e+00 3.0957967067017620e+01 -1 1 0
650 1 7.6265117397815887e+00 4.2891139261373663e+00 3.0911211309409680e+01 1 1 0
1458 1 1.1331836703725546e+00 6.0300820917005638e+00 2.0375368225212661e+01 0 0 -1
830 1 1.1802579404090007e+01 8.4400522160305567e+00 2.3182558679514862e+01 1 0 -1
3700 1 4.6269795660245355e-01 5.9101280714149844e+00 1.7281965689507082e+01 -1 1 0
2299 1 1.9905681998271602e-01 1.2937989781381871e+00 1.8369824545376524e+01 -1 0 -1
2864 1 1.2269346702326487e+01 1.0236904461057456e+01 1.8368421298807469e+01 0 2 0
37 1 1.0387182845330372e+01 1.2051838504497603e+01 2.6361176966079960e+01 0 0 1
4451 1 8.1552706455875033e+00 4.2341696343122202e-03 2.0800453697025240e+01 -1 2 -1
132 2 0.0000000000000000e+00 1.2787731112280996e+01 3.2184380325170894e+00 0 0 0
134 2 1.2305000000000001e+00 1.3498160618518829e+01 3.2184380325170894e+00 0 0 0
169 2 2.4610000000000003e+00 1.2787731112280996e+01 3.2184380325170894e+00 0 0 0
171 2 3.6915000000000004e+00 1.3498160618518829e+01 3.2184380325170894e+00 0 0 0
130 2 0.0000000000000000e+00 1.5629449137232333e+01 3.2184380325170894e+00 0 0 0
165 2 1.2305000000000001e+00 1.4919019630994494e+01 3.2184380325170894e+00 0 0 0
167 2 2.4610000000000003e+00 1.5629449137232328e+01 3.2184380325170894e+00 0 0 0
210 2 3.6915000000000004e+00 1.4919019630994494e+01 3.2184380325170894e+00 0 0 0
214 2 4.9220000000000006e+00 1.2787731112280996e+01 3.2184380325170894e+00 0 0 0
216 2 6.1524999999999990e+00 1.3498160618518829e+01 3.2184380325170894e+00 0 0 0
261 2 7.3829999999999991e+00 1.2787731112280996e+01 3.2184380325170894e+00 0 0 0
212 2 4.9220000000000006e+00 1.5629449137232333e+01 3.2184380325170894e+00 0 0 0
257 2 6.1524999999999990e+00 1.4919019630994494e+01 3.2184380325170894e+00 0 0 0
259 2 7.3829999999999991e+00 1.5629449137232333e+01 3.2184380325170894e+00 0 0 0
263 2 8.6135000000000002e+00 1.3498160618518835e+01 3.2184380325170894e+00 0 0 0
308 2 9.8440000000000012e+00 1.2787731112280996e+01 3.2184380325170894e+00 0 0 0
310 2 1.1074500000000002e+01 1.3498160618518829e+01 3.2184380325170894e+00 0 0 0
304 2 8.6135000000000002e+00 1.4919019630994494e+01 3.2184380325170894e+00 0 0 0
306 2 9.8440000000000012e+00 1.5629449137232328e+01 3.2184380325170894e+00 0 0 0
346 2 1.1074500000000002e+01 1.4919019630994494e+01 3.2184380325170894e+00 0 0 0
161 2 0.0000000000000000e+00 1.7050308149707998e+01 3.2184380325170894e+00 0 0 0
206 2 2.4610000000000003e+00 1.7050308149707998e+01 3.2184380325170894e+00 0 0 0
159 2 0.0000000000000000e+00 1.9892026174659328e+01 3.2184380325170894e+00 0 0 0
163 2 1.2305000000000001e+00 1.7760737655945832e+01 3.2184380325170894e+00 0 0 0
202 2 1.2305000000000001e+00 1.9181596668421495e+01 3.2184380325170894e+00 0 0 0
204 2 2.4610000000000003e+00 1.9892026174659328e+01 3.2184380325170894e+00 0 0 0
208 2 3.6914999999999996e+00 1.7760737655945832e+01 3.2184380325170894e+00 0 0 0
249 2 3.6914999999999996e+00 1.9181596668421495e+01 3.2184380325170894e+00 0 0 0
253 2 4.9220000000000006e+00 1.7050308149707998e+01 3.2184380325170894e+00 0 0 0
300 2 7.3830000000000009e+00 1.7050308149707998e+01 3.2184380325170894e+00 0 0 0
251 2 4.9220000000000006e+00 1.9892026174659328e+01 3.2184380325170894e+00 0 0 0
255 2 6.1524999999999999e+00 1.7760737655945832e+01 3.2184380325170894e+00 0 0 0
296 2 6.1524999999999999e+00 1.9181596668421495e+01 3.2184380325170894e+00 0 0 0
298 2 7.3829999999999991e+00 1.9892026174659328e+01 3.2184380325170894e+00 0 0 0
342 2 9.8440000000000012e+00 1.7050308149707998e+01 3.2184380325170894e+00 0 0 0
376 2 1.2304999999999998e+01 1.7050308149707998e+01 3.2184380325170894e+00 0 0 0
302 2 8.6134999999999984e+00 1.7760737655945832e+01 3.2184380325170894e+00 0 0 0
338 2 8.6135000000000002e+00 1.9181596668421495e+01 3.2184380325170894e+00 0 0 0
340 2 9.8440000000000012e+00 1.9892026174659335e+01 3.2184380325170894e+00 0 0 0
344 2 1.1074500000000002e+01 1.7760737655945835e+01 3.2184380325170894e+00 0 0 0
372 2 1.1074500000000002e+01 1.9181596668421495e+01 3.2184380325170894e+00 0 0 0
196 2 0.0000000000000000e+00 2.4154603212086325e+01 3.2184380325170894e+00 0 0 0
198 2 0.0000000000000000e+00 2.1312885187134999e+01 3.2184380325170894e+00 0 0 0
200 2 1.2304999999999993e+00 2.2023314693372832e+01 3.2184380325170894e+00 0 0 0
241 2 1.2304999999999993e+00 2.3444173705848499e+01 3.2184380325170894e+00 0 0 0
243 2 2.4610000000000003e+00 2.4154603212086325e+01 3.2184380325170894e+00 0 0 0
245 2 2.4610000000000003e+00 2.1312885187134995e+01 3.2184380325170894e+00 0 0 0
247 2 3.6914999999999996e+00 2.2023314693372832e+01 3.2184380325170894e+00 0 0 0
288 2 3.6915000000000004e+00 2.3444173705848499e+01 3.2184380325170894e+00 0 0 0
290 2 4.9220000000000006e+00 2.4154603212086325e+01 3.2184380325170894e+00 0 0 0
292 2 4.9220000000000006e+00 2.1312885187134995e+01 3.2184380325170894e+00 0 0 0
294 2 6.1524999999999990e+00 2.2023314693372832e+01 3.2184380325170894e+00 0 0 0
330 2 6.1524999999999999e+00 2.3444173705848499e+01 3.2184380325170894e+00 0 0 0
332 2 7.3830000000000009e+00 2.4154603212086336e+01 3.2184380325170894e+00 0 0 0
334 2 7.3829999999999991e+00 2.1312885187134999e+01 3.2184380325170894e+00 0 0 0
336 2 8.6135000000000002e+00 2.2023314693372832e+01 3.2184380325170894e+00 0 0 0
364 2 8.6134999999999984e+00 2.3444173705848499e+01 3.2184380325170894e+00 0 0 0
366 2 9.8440000000000012e+00 2.4154603212086336e+01 3.2184380325170894e+00 0 0 0
368 2 9.8440000000000012e+00 2.1312885187134999e+01 3.2184380325170894e+00 0 0 0
370 2 1.1074500000000002e+01 2.2023314693372832e+01 3.2184380325170894e+00 0 0 0
390 2 1.1074500000000002e+01 2.3444173705848499e+01 3.2184380325170894e+00 0 0 0
133 2 0.0000000000000000e+00 1.2787731112280996e+01 6.2309747288777766e+00 0 0 0
170 2 2.4610000000000003e+00 1.2787731112280996e+01 6.2309747288777766e+00 0 0 0
442 2 0.0000000000000000e+00 1.2787731112280996e+01 9.2435114252388146e+00 0 0 0
443 2 1.2305000000000001e+00 1.3498160618518829e+01 9.2435114252388146e+00 0 0 0
461 2 2.4610000000000003e+00 1.2787731112280996e+01 9.2435114252388146e+00 0 0 0
462 2 3.6915000000000004e+00 1.3498160618518829e+01 9.2435114252388146e+00 0 0 0
131 2 0.0000000000000000e+00 1.4208590124756663e+01 6.2309747288777766e+00 0 0 0