LAMMPS data file via write_data, version 16 Mar 2018, timestep = 8000000

4545 atoms
2 atom types

0.0000000000000000e+00 4.9219999999999999e+01 xlo xhi
0.0000000000000000e+00 4.9019635930410494e+01 ylo yhi
6.4955735223763611e-01 3.2985782434280011e+01 zlo zhi

Masses

1 18.015
2 12.01

Atoms # atomic

91 2 0.0000000000000000e+00 2.8417180249513345e+00 2.2617857348477868e+00 0 0 0
93 2 0.0000000000000000e+00 0.0000000000000000e+00 2.2617857348477868e+00 0 0 0
95 2 1.2305000000000001e+00 7.1042950623783474e-01 2.2617857348477868e+00 0 0 0
102 2 1.2305000000000001e+00 2.1312885187134998e+00 2.2617857348477868e+00 0 0 0
104 2 2.4610000000000003e+00 2.8417180249513345e+00 2.2617857348477868e+00 0 0 0
106 2 2.4610000000000003e+00 0.0000000000000000e+00 2.2617857348477868e+00 0 0 0
108 2 3.6915000000000004e+00 7.1042950623783474e-01 2.2617857348477868e+00 0 0 0
123 2 3.6914999999999996e+00 2.1312885187134998e+00 2.2617857348477868e+00 0 0 0
125 2 4.9220000000000006e+00 2.8417180249513332e+00 2.2617857348477868e+00 0 0 0
127 2 4.9220000000000006e+00 0.0000000000000000e+00 2.2617857348477868e+00 0 0 0
129 2 6.1524999999999999e+00 7.1042950623783407e-01 2.2617857348477868e+00 0 0 0
152 2 6.1524999999999999e+00 2.1312885187134989e+00 2.2617857348477868e+00 0 0 0
154 2 7.3829999999999991e+00 2.8417180249513345e+00 2.2617857348477868e+00 0 0 0
156 2 7.3829999999999991e+00 0.0000000000000000e+00 2.2617857348477868e+00 0 0 0
158 2 8.6134999999999984e+00 7.1042950623783407e-01 2.2617857348477868e+00 0 0 0
189 2 8.6134999999999984e+00 2.1312885187135002e+00 2.2617857348477868e+00 0 0 0
191 2 9.8440000000000012e+00 2.8417180249513332e+00 2.2617857348477868e+00 0 0 0
193 2 9.8440000000000012e+00 0.0000000000000000e+00 2.2617857348477868e+00 0 0 0
195 2 1.1074500000000002e+01 7.1042950623783330e-01 2.2617857348477868e+00 0 0 0
234 2 1.1074500000000002e+01 2.1312885187135002e+00 2.2617857348477868e+00 0 0 0
98 2 0.0000000000000000e+00 4.2625770374269996e+00 2.2617857348477868e+00 0 0 0
100 2 1.2305000000000001e+00 4.9730065436648339e+00 2.2617857348477868e+00 0 0 0
115 2 1.2305000000000001e+00 6.3938655561404980e+00 2.2617857348477868e+00 0 0 0
119 2 2.4610000000000003e+00 4.2625770374269996e+00 2.2617857348477868e+00 0 0 0
121 2 3.6914999999999996e+00 4.9730065436648339e+00 2.2617857348477868e+00 0 0 0
144 2 3.6914999999999996e+00 6.3938655561404980e+00 2.2617857348477868e+00 0 0 0
96 2 0.0000000000000000e+00 7.1042950623783341e+00 2.2617857348477868e+00 0 0 0
117 2 2.4610000000000003e+00 7.1042950623783341e+00 2.2617857348477868e+00 0 0 0
148 2 4.9220000000000006e+00 4.2625770374269978e+00 2.2617857348477868e+00 0 0 0
150 2 6.1524999999999999e+00 4.9730065436648339e+00 2.2617857348477868e+00 0 0 0
181 2 6.1524999999999999e+00 6.3938655561404980e+00 2.2617857348477868e+00 0 0 0
185 2 7.3829999999999991e+00 4.2625770374269996e+00 2.2617857348477868e+00 0 0 0
146 2 4.9220000000000006e+00 7.1042950623783341e+00 2.2617857348477868e+00 0 0 0
183 2 7.3830000000000009e+00 7.1042950623783341e+00 2.2617857348477868e+00 0 0 0
187 2 8.6135000000000002e+00 4.9730065436648339e+00 2.2617857348477868e+00 0 0 0
226 2 8.6135000000000002e+00 6.3938655561404980e+00 2.2617857348477868e+00 0 0 0
230 2 9.8440000000000012e+00 4.2625770374270004e+00 2.2617857348477868e+00 0 0 0
232 2 1.1074500000000002e+01 4.9730065436648339e+00 2.2617857348477868e+00 0 0 0
273 2 1.1074500000000002e+01 6.3938655561404980e+00 2.2617857348477868e+00 0 0 0
228 2 9.8440000000000012e+00 7.1042950623783341e+00 2.2617857348477868e+00 0 0 0
111 2 0.0000000000000000e+00 8.5251540748539991e+00 2.2617857348477868e+00 0 0 0
113 2 1.2305000000000001e+00 9.2355835810918343e+00 2.2617857348477868e+00 0 0 0
140 2 2.4610000000000003e+00 8.5251540748539991e+00 2.2617857348477868e+00 0 0 0
142 2 3.6915000000000004e+00 9.2355835810918343e+00 2.2617857348477868e+00 0 0 0
109 2 0.0000000000000000e+00 1.1366872099805333e+01 2.2617857348477868e+00 0 0 0
136 2 1.2305000000000001e+00 1.0656442593567498e+01 2.2617857348477868e+00 0 0 0
138 2 2.4610000000000003e+00 1.1366872099805333e+01 2.2617857348477868e+00 0 0 0
173 2 3.6914999999999996e+00 1.0656442593567499e+01 2.2617857348477868e+00 0 0 0
177 2 4.9220000000000006e+00 8.5251540748539991e+00 2.2617857348477868e+00 0 0 0
179 2 6.1524999999999999e+00 9.2355835810918343e+00 2.2617857348477868e+00 0 0 0
222 2 7.3830000000000009e+00 8.5251540748539991e+00 2.2617857348477868e+00 0 0 0
175 2 4.9220000000000006e+00 1.1366872099805333e+01 2.2617857348477868e+00 0 0 0
218 2 6.1524999999999999e+00 1.0656442593567499e+01 2.2617857348477868e+00 0 0 0
220 2 7.3829999999999991e+00 1.1366872099805333e+01 2.2617857348477868e+00 0 0 0
224 2 8.6134999999999984e+00 9.2355835810918343e+00 2.2617857348477868e+00 0 0 0
269 2 9.8440000000000012e+00 8.5251540748539956e+00 2.2617857348477868e+00 0 0 0
271 2 1.1074500000000002e+01 9.2355835810918343e+00 2.2617857348477868e+00 0 0 0
265 2 8.6134999999999984e+00 1.0656442593567498e+01 2.2617857348477868e+00 0 0 0
267 2 9.8440000000000012e+00 1.1366872099805333e+01 2.2617857348477868e+00 0 0 0
312 2 1.1074500000000002e+01 1.0656442593567498e+01 2.2617857348477868e+00 0 0 0
314 2 1.2304999999999998e+01 1.1366872099805333e+01 2.2617857348477868e+00 0 0 0
92 2 0.0000000000000000e+00 1.4208590124756650e+00 5.4862425000681458e+00 0 0 0
94 2 0.0000000000000000e+00 0.0000000000000000e+00 5.4862425000681458e+00 0 0 0
103 2 1.2305000000000001e+00 2.1312885187134998e+00 5.4862425000681458e+00 0 0 0
105 2 2.4610000000000003e+00 1.4208590124756650e+00 5.4862425000681458e+00 0 0 0
107 2 2.4610000000000003e+00 0.0000000000000000e+00 5.4862425000681458e+00 0 0 0
124 2 3.6914999999999996e+00 2.1312885187134998e+00 5.4862425000681458e+00 0 0 0
420 2 0.0000000000000000e+00 2.8417180249513345e+00 8.7106992652876638e+00 0 0 0
421 2 0.0000000000000000e+00 0.0000000000000000e+00 8.7106992652876638e+00 0 0 0
422 2 1.2305000000000001e+00 7.1042950623783474e-01 8.7106992652876638e+00 0 0 0
426 2 1.2305000000000001e+00 2.1312885187134998e+00 8.7106992652876638e+00 0 0 0
427 2 2.4610000000000003e+00 2.8417180249513345e+00 8.7106992652876638e+00 0 0 0
428 2 2.4610000000000003e+00 0.0000000000000000e+00 8.7106992652876638e+00 0 0 0
429 2 3.6915000000000004e+00 7.1042950623783474e-01 8.7106992652876638e+00 0 0 0
437 2 3.6914999999999996e+00 2.1312885187134998e+00 8.7106992652876638e+00 0 0 0
101 2 1.2305000000000001e+00 3.5521475311891644e+00 5.4862425000681458e+00 0 0 0
122 2 3.6914999999999996e+00 3.5521475311891644e+00 5.4862425000681458e+00 0 0 0
126 2 4.9220000000000006e+00 1.4208590124756650e+00 5.4862425000681458e+00 0 0 0
128 2 4.9220000000000006e+00 0.0000000000000000e+00 5.4862425000681458e+00 0 0 0
153 2 6.1524999999999999e+00 2.1312885187134989e+00 5.4862425000681458e+00 0 0 0
155 2 7.3829999999999991e+00 1.4208590124756659e+00 5.4862425000681458e+00 0 0 0
157 2 7.3829999999999991e+00 0.0000000000000000e+00 5.4862425000681458e+00 0 0 0
438 2 4.9220000000000006e+00 2.8417180249513332e+00 8.7106992652876638e+00 0 0 0
439 2 4.9220000000000006e+00 0.0000000000000000e+00 8.7106992652876638e+00 0 0 0
440 2 6.1524999999999999e+00 7.1042950623783407e-01 8.7106992652876638e+00 0 0 0
452 2 6.1524999999999999e+00 2.1312885187134989e+00 8.7106992652876638e+00 0 0 0
453 2 7.3829999999999991e+00 2.8417180249513345e+00 8.7106992652876638e+00 0 0 0
454 2 7.3829999999999991e+00 0.0000000000000000e+00 8.7106992652876638e+00 0 0 0
151 2 6.1524999999999999e+00 3.5521475311891644e+00 5.4862425000681458e+00 0 0 0
190 2 8.6134999999999984e+00 2.1312885187135002e+00 5.4862425000681458e+00 0 0 0
192 2 9.8440000000000012e+00 1.4208590124756659e+00 5.4862425000681458e+00 0 0 0
194 2 9.8440000000000012e+00 0.0000000000000000e+00 5.4862425000681458e+00 0 0 0
235 2 1.1074500000000002e+01 2.1312885187135002e+00 5.4862425000681458e+00 0 0 0
455 2 8.6134999999999984e+00 7.1042950623783407e-01 8.7106992652876638e+00 0 0 0
471 2 8.6134999999999984e+00 2.1312885187135002e+00 8.7106992652876638e+00 0 0 0
472 2 9.8440000000000012e+00 2.8417180249513332e+00 8.7106992652876638e+00 0 0 0
473 2 9.8440000000000012e+00 0.0000000000000000e+00 8.7106992652876638e+00 0 0 0
474 2 1.1074500000000002e+01 7.1042950623783330e-01 8.7106992652876638e+00 0 0 0
494 2 1.1074500000000002e+01 2.1312885187135002e+00 8.7106992652876638e+00 0 0 0
188 2 8.6134999999999984e+00 3.5521475311891657e+00 5.4862425000681458e+00 0 0 0
233 2 1.1074500000000002e+01 3.5521475311891644e+00 5.4862425000681458e+00 0 0 0
97 2 0.0000000000000000e+00 5.6834360499026637e+00 5.4862425000681458e+00 0 0 0
99 2 0.0000000000000000e+00 4.2625770374269996e+00 5.4862425000681458e+00 0 0 0
116 2 1.2305000000000001e+00 6.3938655561404980e+00 5.4862425000681458e+00 0 0 0
118 2 2.4610000000000003e+00 5.6834360499026637e+00 5.4862425000681458e+00 0 0 0
120 2 2.4610000000000003e+00 4.2625770374269996e+00 5.4862425000681458e+00 0 0 0
145 2 3.6914999999999996e+00 6.3938655561404980e+00 5.4862425000681458e+00 0 0 0
424 2 0.0000000000000000e+00 4.2625770374269996e+00 8.7106992652876638e+00 0 0 0
425 2 1.2305000000000001e+00 4.9730065436648339e+00 8.7106992652876638e+00 0 0 0
433 2 1.2305000000000001e+00 6.3938655561404980e+00 8.7106992652876638e+00 0 0 0
435 2 2.4610000000000003e+00 4.2625770374269996e+00 8.7106992652876638e+00 0 0 0
436 2 3.6914999999999996e+00 4.9730065436648339e+00 8.7106992652876638e+00 0 0 0
448 2 3.6914999999999996e+00 6.3938655561404980e+00 8.7106992652876638e+00 0 0 0
114 2 1.2305000000000001e+00 7.8147245686161639e+00 5.4862425000681458e+00 0 0 0
143 2 3.6914999999999996e+00 7.8147245686161639e+00 5.4862425000681458e+00 0 0 0
423 2 0.0000000000000000e+00 7.1042950623783341e+00 8.7106992652876638e+00 0 0 0
434 2 2.4610000000000003e+00 7.1042950623783341e+00 8.7106992652876638e+00 0 0 0
147 2 4.9220000000000006e+00 5.6834360499026637e+00 5.4862425000681458e+00 0 0 0
149 2 4.9220000000000006e+00 4.2625770374269978e+00 5.4862425000681458e+00 0 0 0
182 2 6.1524999999999999e+00 6.3938655561404980e+00 5.4862425000681458e+00 0 0 0
184 2 7.3829999999999991e+00 5.6834360499026637e+00 5.4862425000681458e+00 0 0 0
186 2 7.3829999999999991e+00 4.2625770374269996e+00 5.4862425000681458e+00 0 0 0
450 2 4.9220000000000006e+00 4.2625770374269978e+00 8.7106992652876638e+00 0 0 0
451 2 6.1524999999999999e+00 4.9730065436648339e+00 8.7106992652876638e+00 0 0 0
467 2 6.1524999999999999e+00 6.3938655561404980e+00 8.7106992652876638e+00 0 0 0
469 2 7.3829999999999991e+00 4.2625770374269996e+00 8.7106992652876638e+00 0 0 0
180 2 6.1524999999999999e+00 7.8147245686161639e+00 5.4862425000681458e+00 0 0 0
449 2 4.9220000000000006e+00 7.1042950623783341e+00 8.7106992652876638e+00 0 0 0
468 2 7.3830000000000009e+00 7.1042950623783341e+00 8.7106992652876638e+00 0 0 0
227 2 8.6135000000000002e+00 6.3938655561404980e+00 5.4862425000681458e+00 0 0 0
229 2 9.8440000000000012e+00 5.6834360499026637e+00 5.4862425000681458e+00 0 0 0
231 2 9.8440000000000012e+00 4.2625770374270004e+00 5.4862425000681458e+00 0 0 0
274 2 1.1074500000000002e+01 6.3938655561404980e+00 5.4862425000681458e+00 0 0 0
470 2 8.6135000000000002e+00 4.9730065436648339e+00 8.7106992652876638e+00 0 0 0
490 2 8.6135000000000002e+00 6.3938655561404980e+00 8.7106992652876638e+00 0 0 0
492 2 9.8440000000000012e+00 4.2625770374270004e+00 8.7106992652876638e+00 0 0 0
493 2 1.1074500000000002e+01 4.9730065436648339e+00 8.7106992652876638e+00 0 0 0
514 2 1.1074500000000002e+01 6.3938655561404980e+00 8.7106992652876638e+00 0 0 0
225 2 8.6135000000000002e+00 7.8147245686161639e+00 5.4862425000681458e+00 0 0 0
272 2 1.1074500000000002e+01 7.8147245686161639e+00 5.4862425000681458e+00 0 0 0
491 2 9.8440000000000012e+00 7.1042950623783341e+00 8.7106992652876638e+00 0 0 0
110 2 0.0000000000000000e+00 9.9460130873296642e+00 5.4862425000681458e+00 0 0 0
112 2 0.0000000000000000e+00 8.5251540748539991e+00 5.4862425000681458e+00 0 0 0
139 2 2.4610000000000003e+00 9.9460130873296642e+00 5.4862425000681458e+00 0 0 0
141 2 2.4610000000000003e+00 8.5251540748539991e+00 5.4862425000681458e+00 0 0 0
431 2 0.0000000000000000e+00 8.5251540748539991e+00 8.7106992652876638e+00 0 0 0
432 2 1.2305000000000001e+00 9.2355835810918343e+00 8.7106992652876638e+00 0 0 0
446 2 2.4610000000000003e+00 8.5251540748539991e+00 8.7106992652876638e+00 0 0 0
447 2 3.6915000000000004e+00 9.2355835810918343e+00 8.7106992652876638e+00 0 0 0
135 2 1.2305000000000001e+00 1.2077301606043163e+01 5.4862425000681458e+00 0 0 0
137 2 1.2305000000000001e+00 1.0656442593567498e+01 5.4862425000681458e+00 0 0 0
172 2 3.6914999999999996e+00 1.2077301606043163e+01 5.4862425000681458e+00 0 0 0
174 2 3.6914999999999996e+00 1.0656442593567499e+01 5.4862425000681458e+00 0 0 0
430 2 0.0000000000000000e+00 1.1366872099805333e+01 8.7106992652876638e+00 0 0 0
444 2 1.2305000000000001e+00 1.0656442593567498e+01 8.7106992652876638e+00 0 0 0
445 2 2.4610000000000003e+00 1.1366872099805333e+01 8.7106992652876638e+00 0 0 0
463 2 3.6914999999999996e+00 1.0656442593567499e+01 8.7106992652876638e+00 0 0 0
176 2 4.9220000000000006e+00 9.9460130873296642e+00 5.4862425000681458e+00 0 0 0
178 2 4.9220000000000006e+00 8.5251540748539991e+00 5.4862425000681458e+00 0 0 0
221 2 7.3830000000000009e+00 9.9460130873296642e+00 5.4862425000681458e+00 0 0 0
223 2 7.3830000000000009e+00 8.5251540748539991e+00 5.4862425000681458e+00 0 0 0
465 2 4.9220000000000006e+00 8.5251540748539991e+00 8.7106992652876638e+00 0 0 0
466 2 6.1524999999999999e+00 9.2355835810918343e+00 8.7106992652876638e+00 0 0 0
488 2 7.3830000000000009e+00 8.5251540748539991e+00 8.7106992652876638e+00 0 0 0
217 2 6.1524999999999999e+00 1.2077301606043163e+01 5.4862425000681458e+00 0 0 0
219 2 6.1524999999999999e+00 1.0656442593567499e+01 5.4862425000681458e+00 0 0 0
464 2 4.9220000000000006e+00 1.1366872099805333e+01 8.7106992652876638e+00 0 0 0
486 2 6.1524999999999999e+00 1.0656442593567499e+01 8.7106992652876638e+00 0 0 0
487 2 7.3829999999999991e+00 1.1366872099805333e+01 8.7106992652876638e+00 0 0 0
268 2 9.8440000000000012e+00 9.9460130873296642e+00 5.4862425000681458e+00 0 0 0
270 2 9.8440000000000012e+00 8.5251540748539956e+00 5.4862425000681458e+00 0 0 0
489 2 8.6134999999999984e+00 9.2355835810918343e+00 8.7106992652876638e+00 0 0 0
512 2 9.8440000000000012e+00 8.5251540748539956e+00 8.7106992652876638e+00 0 0 0
513 2 1.1074500000000002e+01 9.2355835810918343e+00 8.7106992652876638e+00 0 0 0
264 2 8.6135000000000002e+00 1.2077301606043163e+01 5.4862425000681458e+00 0 0 0
266 2 8.6134999999999984e+00 1.0656442593567498e+01 5.4862425000681458e+00 0 0 0
311 2 1.1074500000000002e+01 1.2077301606043163e+01 5.4862425000681458e+00 0 0 0
313 2 1.1074500000000002e+01 1.0656442593567498e+01 5.4862425000681458e+00 0 0 0
510 2 8.6134999999999984e+00 1.0656442593567498e+01 8.7106992652876638e+00 0 0 0
511 2 9.8440000000000012e+00 1.1366872099805333e+01 8.7106992652876638e+00 0 0 0
534 2 1.1074500000000002e+01 1.0656442593567498e+01 8.7106992652876638e+00 0 0 0
535 2 1.2304999999999998e+01 1.1366872099805333e+01 8.7106992652876638e+00 0 0 0
2851 1 1.2137730895065462e+00 1.2015514800044946e+00 1.1208303060809888e+01 3 -1 0
3723 1 3.4458129913325841e+00 3.0510320116924690e+00 1.1459240817945101e+01 -3 -2 0
742 1 6.3308045531368746e+00 2.8472831395006599e+00 1.1418216569793792e+01 0 2 0
6 1 2.6527102537227107e+00 1.0067278579795770e+01 1.4725639866479810e+01 4 2 0
1558 1 1.2072086706650200e+01 1.7398817589916646e+00 1.4520334596477339e+01 2 -1 0
585 1 1.1343518738546157e+01 8.6319033698038794e+00 1.4411841930560820e+01 -4 -1 0
3633 1 2.0387397334696908e+00 5.4391243150190531e+00 1.1260813786282684e+01 2 2 0
4535 1 3.8486266125360111e+00 7.4785993724998185e+00 1.1735964639921784e+01 4 0 -1
2908 1 6.7832767458966279e+00 7.1393424040563875e+00 1.1334150617492060e+01 6 -1 0
2232 1 8.4001458152302728e+00 5.0087708824417465e+00 1.1183836376715311e+01 2 -5 0
3747 1 1.1292009348656142e+01 4.0333849714158125e+00 1.1446290288487827e+01 -1 3 1
4501 1 3.0801863599929717e+00 9.9570100102078829e+00 1.1718929226927035e+01 2 -4 0
4536 1 8.4075671091354174e+00 9.3792138022367801e+00 1.3914589707222348e+01 0 1 0
3725 1 4.3012081794919572e+00 1.2185896783739041e+01 1.3991057582627823e+01 -2 7 -1
2322 1 8.4343224211710250e+00 9.1466523311599026e+00 1.1335477652232525e+01 -3 -1 0
1472 1 1.1166297764518898e+01 8.5301492604696492e+00 1.1446799963535327e+01 -2 -2 0
2401 1 1.2582340996811350e+00 5.2482607687612703e-01 1.4147786108286873e+01 1 0 0
2394 1 2.8865320204266212e+00 2.6741675559358273e+00 1.4153353507071886e+01 -4 3 0
4506 1 6.3931553658914035e+00 2.8029533267138738e+00 1.4196075960753680e+01 2 -3 -2
2987 1 1.0916559429038914e+01 4.4242938190033021e+00 1.4161163165170111e+01 -1 2 0
1349 1 8.1614480788294710e+00 4.7583814742645361e+00 1.4236759884156841e+01 0 1 0
2237 1 7.0048888417521207e+00 1.1673421187357263e+01 1.4555850369877168e+01 0 3 0
1442 1 1.8498016997288824e+00 5.2455963402859780e+00 1.4256550766953163e+01 1 -2 -1
3815 1 3.7924602453868119e+00 7.5057632341063822e+00 1.4684705968159971e+01 -3 -2 0
1486 1 6.9039189951013302e+00 7.1130123650611550e+00 1.4375514955452061e+01 2 2 0
764 1 1.8019099973575636e-01 1.0260075792340732e+01 1.1784422838614368e+01 -2 -2 0
2230 1 7.3020222728267425e+00 1.1711116455718196e+01 1.1431369880477616e+01 0 3 0
744 1 5.8539282425198826e-02 1.0475550371521656e+01 1.4585506094537113e+01 -5 -2 -1
4524 1 7.2483365893310676e+00 2.7960504522946000e-01 1.1041321394175707e+01 -6 3 0
3730 1 7.1680206590232709e+00 1.9954431606066267e-01 1.4608522649836958e+01 -6 -2 0
3075 1 4.5008247034272442e+00 2.6016956120488532e+00 1.6657006868700972e+01 0 1 1
4347 1 1.9391140731307630e+00 3.2492994146185850e+00 1.8182106122804907e+01 -1 -2 -1
3671 1 1.5873106557856227e+00 2.9138386329713692e+00 2.0939627588947573e+01 -3 1 0
2299 1 4.4165881664940415e-01 8.1632554537604367e+00 2.4460671887602391e+01 4 2 -1
684 1 6.6249075281567615e-01 8.1181588803485454e+00 2.8894380899234754e+01 2 0 -1
1504 1 1.1865018256897255e+01 1.0441730710226135e+01 2.8353219524612282e+01 2 -1 0
846 1 9.4533830950772195e+00 1.8027595144048980e+00 1.8147340995376695e+01 2 -2 0
1592 1 9.8500467283285129e+00 1.7934948054259332e+00 2.0881574642746205e+01 -2 2 0
3695 1 3.2198764748915480e+00 7.7680533170354167e+00 1.7798935147970564e+01 2 0 1
604 1 3.1923706229380837e+00 7.3740904559642768e+00 2.0476073455815676e+01 5 4 0
667 1 1.0318816393782730e+00 5.7812671867926104e+00 1.7333233353373796e+01 -1 3 1
2215 1 6.0965287064079705e+00 4.5274842866058682e+00 1.7636380619249294e+01 1 1 -1
2144 1 6.1752471629334584e+00 4.4198240478961832e+00 2.0309619548724729e+01 0 -3 0
2353 1 5.2346541915738847e+00 2.2261668856357586e-01 2.5000475975709673e+01 0 1 0
2954 1 1.0542091933557778e+01 6.3141393174245115e+00 1.8077744975270587e+01 -2 5 0
3798 1 1.0841187745115676e+01 6.3537154722567433e+00 2.0809960625652909e+01 5 -1 -1
1416 1 1.2258322149333207e+01 1.0674456197483611e+01 1.7714438636586106e+01 2 3 -1
1397 1 1.2120313449914693e+01 1.0654910169018521e+01 2.0407882090649345e+01 3 0 0
2926 1 1.1906323571851356e+01 1.2560599219583775e+00 1.7649313858518028e+01 1 1 0
3752 1 7.6204874819571042e+00 9.3150378616143463e+00 1.8109820200585595e+01 0 2 0
3788 1 7.4163278466947657e+00 9.0434391279864403e+00 2.0789582195919301e+01 -1 1 0
3682 1 1.1843807520759199e+01 1.0932938513908718e+01 2.5329756522960114e+01 -1 0 0
2177 1 4.0606897286523953e+00 1.1999142757053587e+01 3.2204130793141772e+01 2 1 0
4440 1 3.9773375939110123e+00 1.1902431239619704e+01 2.7987200119127856e+01 1 -4 0
2956 1 4.6405688432670793e+00 9.2493340537115234e+00 3.1931077575150820e+01 3 -1 0
726 1 2.7047005224416076e+00 8.5920869915930809e-01 2.4175477985338581e+01 2 -2 -1
3848 1 2.7287274137434898e+00 4.0463079781473155e-01 2.1603792970091732e+01 0 -2 0
840 1 7.0235901744291285e+00 2.2001328470231187e+00 2.1634660104382093e+01 4 0 0
2883 1 7.0814269008192721e+00 2.2923358180550357e+00 2.4445329251973696e+01 1 4 -1
2984 1 1.1521806366227072e+01 3.6835113676126938e+00 2.4239123154835696e+01 1 6 0
3715 1 1.1632806635593516e+01 3.9823647697933695e+00 2.1631844480559298e+01 -1 1 0
2839 1 9.7180686876428570e+00 1.7154962485095711e+00 2.4735136088623850e+01 -2 -3 0
3855 1 4.9504488665890651e+00 9.7340188014717519e+00 2.9212556314253387e+01 -4 -2 0
4378 1 3.5803217077239928e+00 5.1643538735810530e+00 2.4368202834715873e+01 -3 2 -1
834 1 3.6748340198808429e+00 4.5217339189722550e+00 2.1621118443307111e+01 1 -1 0
3823 1 4.4531088644850814e-01 1.2021077348672422e+00 1.6943844369380034e+01 1 2 1
1559 1 8.0537532685617812e+00 6.7255400137554995e+00 2.4286806998485513e+01 -1 -5 0
1365 1 8.1814419379648555e+00 6.4200900044775064e+00 2.1578895439279790e+01 -5 2 0
703 1 4.8429432563764481e+00 9.3633425656184635e+00 2.1589058866343922e+01 4 -1 0
769 1 4.9831169850236181e+00 9.3617677021104679e+00 2.4274800506753984e+01 1 0 0
3053 1 9.4650608336793134e+00 1.0785651312673245e+01 2.1698855055965907e+01 0 0 0
4422 1 9.2919950217966605e+00 1.1212807237447652e+01 2.4321242236194596e+01 -3 -1 0
2931 1 1.9806101840465695e+00 3.0999801146303372e+00 2.5337980630669740e+01 2 -1 -1
1364 1 2.1688950623488181e+00 3.0003023875794206e+00 2.8082383336010786e+01 2 3 1
855 1 2.7815634094924273e+00 4.2163808797636243e-01 2.8701240163635266e+01 4 -2 0
4500 1 5.1294018818128073e+00 9.4788547418127825e-02 1.7716450533654804e+01 4 6 0
1513 1 9.2430258410574861e+00 1.0499908632703693e+01 3.1906482728506884e+01 4 2 0
1467 1 7.3117100161678348e+00 2.3154282853291379e+00 2.8393757818197148e+01 -1 3 0
804 1 9.7795913121432143e+00 1.7866566306232909e+00 2.7485984603008408e+01 3 0 0
3119 1 1.1765268779986352e+01 3.3538618870930677e+00 2.8534621626548756e+01 2 2 0
2929 1 2.9364274987680052e+00 7.7271739800351638e+00 2.5126150476225920e+01 0 1 0
1660 1 3.3646570411321646e+00 7.8078071575357413e+00 2.7979611959001375e+01 5 -2 0
806 1 4.1491330130249215e+00 5.2945392239173970e+00 2.8557180655482735e+01 -2 0 1
587 1 6.2248423958076495e+00 4.8129630865659525e+00 2.5097880241770049e+01 -2 -3 -1
3751 1 6.7368405211939075e+00 4.9376036574513336e+00 2.7667192617456077e+01 4 0 0
811 1 8.5005432527018812e+00 6.7185789287527440e+00 2.8749687441553139e+01 5 -4 1
4407 1 1.0744971223938741e+01 6.0744480185290790e+00 2.5010522634411647e+01 -1 3 0
1555 1 1.0908909111789161e+01 5.9204807951430247e+00 2.7920481502462046e+01 -3 0 0
3052 1 6.4711754927068617e+00 1.1726672222866926e+01 1.7378113658458833e+01 -2 0 -1
4439 1 5.9355081041943167e+00 7.0959335434432482e+00 1.7166541630006304e+01 1 2 0
4406 1 1.0082783981965978e+01 8.9533828442291483e+00 1.6957805918575474e+01 1 0 -1
2887 1 7.6550969871985188e+00 9.1865166494528818e+00 2.5182430983395552e+01 -3 -2 -1
616 1 7.3817186844979270e+00 9.2511867984628608e+00 2.8103025044899347e+01 3 0 0
2864 1 5.8329816822623837e-01 8.1791121160655500e+00 2.1596589072018894e+01 1 7 0
1634 1 1.1882789102450941e+01 1.0406785167849819e+01 3.1743607022361996e+01 0 1 1
842 1 5.5585268053188219e+00 1.3378746002530306e-01 3.1896362180072458e+01 2 0 0
4428 1 9.3581936996321922e+00 1.0883000248456195e+01 2.9137598870188253e+01 3 -2 -1
3675 1 2.9449533866241149e+00 6.9257731819058288e-01 3.1310818079192380e+01 -1 -1 0
3676 1 2.2338564817782234e+00 3.2545983203146664e+00 3.2187484562374259e+01 -3 -6 0
2323 1 7.1738914098375526e+00 8.5361599608247118e+00 3.2261436319184142e+01 0 -4 -1
1587 1 7.3966644588634622e+00 2.1005256630832343e+00 3.1312770047415306e+01 -2 2 1
2962 1 1.1450241555541563e+01 3.5596790501712863e+00 3.1391432293017470e+01 -1 -1 0
874 1 9.9594012887031607e+00 1.4287894426094001e+00 3.2210210925501372e+01 -2 -2 0
2950 1 4.2353649158608420e+00 4.8680435544200895e+00 3.1288055011227570e+01 -3 -1 -1
3797 1 3.0359845114628450e+00 7.1579844804137283e+00 3.1828941992055253e+01 -6 -2 1
2389 1 6.5468992192642412e+00 4.4217775851340608e+00 3.2466165725764917e+01 2 3 -1
630 1 8.4289679988413013e+00 6.2709885226712636e+00 3.1467498606188791e+01 0 0 0
4471 1 1.0902102151209531e+01 6.1389308640368316e+00 3.2211149138089674e+01 -3 1 0
1618 1 3.3567841121248670e-01 8.1149332774021836e+00 3.1559068375032190e+01 0 3 0
3017 1 2.2923167597061473e+00 1.0261884504128238e+01 1.7548578375061027e+01 -2 -3 -1
4432 1 4.0649002006488528e+00 1.1642989802845880e+01 2.5349347891191503e+01 4 1 -1
3020 1 5.5224266152277117e+00 2.3765980068712284e-01 2.7818002921058469e+01 -1 2 -1
599 1 3.9902283155692708e+00 1.2201842848285532e+01 1.8162702702798143e+01 2 2 0
2387 1 4.1406810660894404e+00 1.2183175979944924e+01 2.1012718631829202e+01 0 -2 0
3101 1 1.5469303099882150e+00 1.2238334843980994e+01 2.4419477301740883e+01 -2 4 0
1348 1 9.0223148058532736e+00 4.1769164152752563e+00 1.6905759540753927e+01 4 -3 0
132 2 0.0000000000000000e+00 1.2787731112280996e+01 2.2617857348477868e+00 0 0 0
134 2 1.2305000000000001e+00 1.3498160618518829e+01 2.2617857348477868e+00 0 0 0
169 2 2.4610000000000003e+00 1.2787731112280996e+01 2.2617857348477868e+00 0 0 0
171 2 3.6915000000000004e+00 1.3498160618518829e+01 2.2617857348477868e+00 0 0 0
130 2 0.0000000000000000e+00 1.5629449137232333e+01 2.2617857348477868e+00 0 0 0
165 2 1.2305000000000001e+00 1.4919019630994494e+01 2.2617857348477868e+00 0 0 0
167 2 2.4610000000000003e+00 1.5629449137232328e+01 2.2617857348477868e+00 0 0 0
210 2 3.6915000000000004e+00 1.4919019630994494e+01 2.2617857348477868e+00 0 0 0
214 2 4.9220000000000006e+00 1.2787731112280996e+01 2.2617857348477868e+00 0 0 0
216 2 6.1524999999999990e+00 1.3498160618518829e+01 2.2617857348477868e+00 0 0 0
261 2 7.3829999999999991e+00 1.2787731112280996e+01 2.2617857348477868e+00 0 0 0
212 2 4.9220000000000006e+00 1.5629449137232333e+01 2.2617857348477868e+00 0 0 0
257 2 6.1524999999999990e+00 1.4919019630994494e+01 2.2617857348477868e+00 0 0 0
259 2 7.3829999999999991e+00 1.5629449137232333e+01 2.2617857348477868e+00 0 0 0
263 2 8.6135000000000002e+00 1.3498160618518835e+01 2.2617857348477868e+00 0 0 0
308 2 9.8440000000000012e+00 1.2787731112280996e+01 2.2617857348477868e+00 0 0 0
310 2 1.1074500000000002e+01 1.3498160618518829e+01 2.2617857348477868e+00 0 0 0
304 2 8.6135000000000002e+00 1.4919019630994494e+01 2.2617857348477868e+00 0 0 0
306 2 9.8440000000000012e+00 1.5629449137232328e+01 2.2617857348477868e+00 0 0 0
346 2 1.1074500000000002e+01 1.4919019630994494e+01 2.2617857348477868e+00 0 0 0
161 2 0.0000000000000000e+00 1.7050308149707998e+01 2.2617857348477868e+00 0 0 0
206 2 2.4610000000000003e+00 1.7050308149707998e+01 2.2617857348477868e+00 0 0 0
159 2 0.0000000000000000e+00 1.9892026174659328e+01 2.2617857348477868e+00 0 0 0
163 2 1.2305000000000001e+00 1.7760737655945832e+01 2.2617857348477868e+00 0 0 0
202 2 1.2305000000000001e+00 1.9181596668421495e+01 2.2617857348477868e+00 0 0 0
204 2 2.4610000000000003e+00 1.9892026174659328e+01 2.2617857348477868e+00 0 0 0
208 2 3.6914999999999996e+00 1.7760737655945832e+01 2.2617857348477868e+00 0 0 0
249 2 3.6914999999999996e+00 1.9181596668421495e+01 2.2617857348477868e+00 0 0 0
253 2 4.9220000000000006e+00 1.7050308149707998e+01 2.2617857348477868e+00 0 0 0
300 2 7.3830000000000009e+00 1.7050308149707998e+01 2.2617857348477868e+00 0 0 0
251 2 4.9220000000000006e+00 1.9892026174659328e+01 2.2617857348477868e+00 0 0 0
255 2 6.1524999999999999e+00 1.7760737655945832e+01 2.2617857348477868e+00 0 0 0
296 2 6.1524999999999999e+00 1.9181596668421495e+01 2.2617857348477868e+00 0 0 0
298 2 7.3829999999999991e+00 1.9892026174659328e+01 2.2617857348477868e+00 0 0 0
342 2 9.8440000000000012e+00 1.7050308149707998e+01 2.2617857348477868e+00 0 0 0
376 2 1.2304999999999998e+01 1.7050308149707998e+01 2.2617857348477868e+00 0 0 0
302 2 8.6134999999999984e+00 1.7760737655945832e+01 2.2617857348477868e+00 0 0 0
338 2 8.6135000000000002e+00 1.9181596668421495e+01 2.2617857348477868e+00 0 0 0
340 2 9.8440000000000012e+00 1.9892026174659335e+01 2.2617857348477868e+00 0 0 0
344 2 1.1074500000000002e+01 1.7760737655945835e+01 2.2617857348477868e+00 0 0 0
372 2 1.1074500000000002e+01 1.9181596668421495e+01 2.2617857348477868e+00 0 0 0
196 2 0.0000000000000000e+00 2.4154603212086325e+01 2.2617857348477868e+00 0 0 0
198 2 0.0000000000000000e+00 2.1312885187134999e+01 2.2617857348477868e+00 0 0 0
200 2 1.2304999999999993e+00 2.2023314693372832e+01 2.2617857348477868e+00 0 0 0
241 2 1.2304999999999993e+00 2.3444173705848499e+01 2.2617857348477868e+00 0 0 0
243 2 2.4610000000000003e+00 2.4154603212086325e+01 2.2617857348477868e+00 0 0 0
245 2 2.4610000000000003e+00 2.1312885187134995e+01 2.2617857348477868e+00 0 0 0
247 2 3.6914999999999996e+00 2.2023314693372832e+01 2.2617857348477868e+00 0 0 0
288 2 3.6915000000000004e+00 2.3444173705848499e+01 2.2617857348477868e+00 0 0 0
290 2 4.9220000000000006e+00 2.4154603212086325e+01 2.2617857348477868e+00 0 0 0
292 2 4.9220000000000006e+00 2.1312885187134995e+01 2.2617857348477868e+00 0 0 0
294 2 6.1524999999999990e+00 2.2023314693372832e+01 2.2617857348477868e+00 0 0 0
330 2 6.1524999999999999e+00 2.3444173705848499e+01 2.2617857348477868e+00 0 0 0
332 2 7.3830000000000009e+00 2.4154603212086336e+01 2.2617857348477868e+00 0 0 0
334 2 7.3829999999999991e+00 2.1312885187134999e+01 2.2617857348477868e+00 0 0 0
336 2 8.6135000000000002e+00 2.2023314693372832e+01 2.2617857348477868e+00 0 0 0
364 2 8.6134999999999984e+00 2.3444173705848499e+01 2.2617857348477868e+00 0 0 0
366 2 9.8440000000000012e+00 2.4154603212086336e+01 2.2617857348477868e+00 0 0 0
368 2 9.8440000000000012e+00 2.1312885187134999e+01 2.2617857348477868e+00 0 0 0
370 2 1.1074500000000002e+01 2.2023314693372832e+01 2.2617857348477868e+00 0 0 0
390 2 1.1074500000000002e+01 2.3444173705848499e+01 2.2617857348477868e+00 0 0 0
133 2 0.0000000000000000e+00 1.2787731112280996e+01 5.4862425000681458e+00 0 0 0
170 2 2.4610000000000003e+00 1.2787731112280996e+01 5.4862425000681458e+00 0 0 0
442 2 0.0000000000000000e+00 1.2787731112280996e+01 8.7106992652876638e+00 0 0 0
443 2 1.2305000000000001e+00 1.3498160618518829e+01 8.7106992652876638e+00 0 0 0
461 2 2.4610000000000003e+00 1.2787731112280996e+01 8.7106992652876638e+00 0 0 0