LAMMPS data file via write_data, version 16 Mar 2018, timestep = 100000

4545 atoms
2 atom types

0.0000000000000000e+00 4.9219999999999999e+01 xlo xhi
0.0000000000000000e+00 4.9019635930410494e+01 ylo yhi
1.7090466735746155e+00 3.1926293112947370e+01 zlo zhi

Masses

1 18.015
2 12.01

Atoms # atomic

91 2 0.0000000000000000e+00 2.8417180249513345e+00 3.2156264376102195e+00 0 0 0
93 2 0.0000000000000000e+00 0.0000000000000000e+00 3.2156264376102195e+00 0 0 0
95 2 1.2305000000000001e+00 7.1042950623783474e-01 3.2156264376102195e+00 0 0 0
102 2 1.2305000000000001e+00 2.1312885187134998e+00 3.2156264376102195e+00 0 0 0
104 2 2.4610000000000003e+00 2.8417180249513345e+00 3.2156264376102195e+00 0 0 0
106 2 2.4610000000000003e+00 0.0000000000000000e+00 3.2156264376102195e+00 0 0 0
108 2 3.6915000000000004e+00 7.1042950623783474e-01 3.2156264376102195e+00 0 0 0
123 2 3.6914999999999996e+00 2.1312885187134998e+00 3.2156264376102195e+00 0 0 0
125 2 4.9220000000000006e+00 2.8417180249513332e+00 3.2156264376102195e+00 0 0 0
127 2 4.9220000000000006e+00 0.0000000000000000e+00 3.2156264376102195e+00 0 0 0
129 2 6.1524999999999999e+00 7.1042950623783407e-01 3.2156264376102195e+00 0 0 0
152 2 6.1524999999999999e+00 2.1312885187134989e+00 3.2156264376102195e+00 0 0 0
154 2 7.3829999999999991e+00 2.8417180249513345e+00 3.2156264376102195e+00 0 0 0
156 2 7.3829999999999991e+00 0.0000000000000000e+00 3.2156264376102195e+00 0 0 0
158 2 8.6134999999999984e+00 7.1042950623783407e-01 3.2156264376102195e+00 0 0 0
189 2 8.6134999999999984e+00 2.1312885187135002e+00 3.2156264376102195e+00 0 0 0
191 2 9.8440000000000012e+00 2.8417180249513332e+00 3.2156264376102195e+00 0 0 0
193 2 9.8440000000000012e+00 0.0000000000000000e+00 3.2156264376102195e+00 0 0 0
195 2 1.1074500000000002e+01 7.1042950623783330e-01 3.2156264376102195e+00 0 0 0
234 2 1.1074500000000002e+01 2.1312885187135002e+00 3.2156264376102195e+00 0 0 0
98 2 0.0000000000000000e+00 4.2625770374269996e+00 3.2156264376102195e+00 0 0 0
100 2 1.2305000000000001e+00 4.9730065436648339e+00 3.2156264376102195e+00 0 0 0
115 2 1.2305000000000001e+00 6.3938655561404980e+00 3.2156264376102195e+00 0 0 0
119 2 2.4610000000000003e+00 4.2625770374269996e+00 3.2156264376102195e+00 0 0 0
121 2 3.6914999999999996e+00 4.9730065436648339e+00 3.2156264376102195e+00 0 0 0
144 2 3.6914999999999996e+00 6.3938655561404980e+00 3.2156264376102195e+00 0 0 0
96 2 0.0000000000000000e+00 7.1042950623783341e+00 3.2156264376102195e+00 0 0 0
117 2 2.4610000000000003e+00 7.1042950623783341e+00 3.2156264376102195e+00 0 0 0
148 2 4.9220000000000006e+00 4.2625770374269978e+00 3.2156264376102195e+00 0 0 0
150 2 6.1524999999999999e+00 4.9730065436648339e+00 3.2156264376102195e+00 0 0 0
181 2 6.1524999999999999e+00 6.3938655561404980e+00 3.2156264376102195e+00 0 0 0
185 2 7.3829999999999991e+00 4.2625770374269996e+00 3.2156264376102195e+00 0 0 0
146 2 4.9220000000000006e+00 7.1042950623783341e+00 3.2156264376102195e+00 0 0 0
183 2 7.3830000000000009e+00 7.1042950623783341e+00 3.2156264376102195e+00 0 0 0
187 2 8.6135000000000002e+00 4.9730065436648339e+00 3.2156264376102195e+00 0 0 0
226 2 8.6135000000000002e+00 6.3938655561404980e+00 3.2156264376102195e+00 0 0 0
230 2 9.8440000000000012e+00 4.2625770374270004e+00 3.2156264376102195e+00 0 0 0
232 2 1.1074500000000002e+01 4.9730065436648339e+00 3.2156264376102195e+00 0 0 0
273 2 1.1074500000000002e+01 6.3938655561404980e+00 3.2156264376102195e+00 0 0 0
228 2 9.8440000000000012e+00 7.1042950623783341e+00 3.2156264376102195e+00 0 0 0
111 2 0.0000000000000000e+00 8.5251540748539991e+00 3.2156264376102195e+00 0 0 0
113 2 1.2305000000000001e+00 9.2355835810918343e+00 3.2156264376102195e+00 0 0 0
140 2 2.4610000000000003e+00 8.5251540748539991e+00 3.2156264376102195e+00 0 0 0
142 2 3.6915000000000004e+00 9.2355835810918343e+00 3.2156264376102195e+00 0 0 0
109 2 0.0000000000000000e+00 1.1366872099805333e+01 3.2156264376102195e+00 0 0 0
136 2 1.2305000000000001e+00 1.0656442593567498e+01 3.2156264376102195e+00 0 0 0
138 2 2.4610000000000003e+00 1.1366872099805333e+01 3.2156264376102195e+00 0 0 0
173 2 3.6914999999999996e+00 1.0656442593567499e+01 3.2156264376102195e+00 0 0 0
177 2 4.9220000000000006e+00 8.5251540748539991e+00 3.2156264376102195e+00 0 0 0
179 2 6.1524999999999999e+00 9.2355835810918343e+00 3.2156264376102195e+00 0 0 0
222 2 7.3830000000000009e+00 8.5251540748539991e+00 3.2156264376102195e+00 0 0 0
175 2 4.9220000000000006e+00 1.1366872099805333e+01 3.2156264376102195e+00 0 0 0
218 2 6.1524999999999999e+00 1.0656442593567499e+01 3.2156264376102195e+00 0 0 0
220 2 7.3829999999999991e+00 1.1366872099805333e+01 3.2156264376102195e+00 0 0 0
224 2 8.6134999999999984e+00 9.2355835810918343e+00 3.2156264376102195e+00 0 0 0
269 2 9.8440000000000012e+00 8.5251540748539956e+00 3.2156264376102195e+00 0 0 0
271 2 1.1074500000000002e+01 9.2355835810918343e+00 3.2156264376102195e+00 0 0 0
265 2 8.6134999999999984e+00 1.0656442593567498e+01 3.2156264376102195e+00 0 0 0
267 2 9.8440000000000012e+00 1.1366872099805333e+01 3.2156264376102195e+00 0 0 0
312 2 1.1074500000000002e+01 1.0656442593567498e+01 3.2156264376102195e+00 0 0 0
314 2 1.2304999999999998e+01 1.1366872099805333e+01 3.2156264376102195e+00 0 0 0
92 2 0.0000000000000000e+00 1.4208590124756650e+00 6.2287859656806708e+00 0 0 0
94 2 0.0000000000000000e+00 0.0000000000000000e+00 6.2287859656806708e+00 0 0 0
103 2 1.2305000000000001e+00 2.1312885187134998e+00 6.2287859656806708e+00 0 0 0
105 2 2.4610000000000003e+00 1.4208590124756650e+00 6.2287859656806708e+00 0 0 0
107 2 2.4610000000000003e+00 0.0000000000000000e+00 6.2287859656806708e+00 0 0 0
124 2 3.6914999999999996e+00 2.1312885187134998e+00 6.2287859656806708e+00 0 0 0
420 2 0.0000000000000000e+00 2.8417180249513345e+00 9.2419454937518903e+00 0 0 0
421 2 0.0000000000000000e+00 0.0000000000000000e+00 9.2419454937518903e+00 0 0 0
422 2 1.2305000000000001e+00 7.1042950623783474e-01 9.2419454937518903e+00 0 0 0
426 2 1.2305000000000001e+00 2.1312885187134998e+00 9.2419454937518903e+00 0 0 0
427 2 2.4610000000000003e+00 2.8417180249513345e+00 9.2419454937518903e+00 0 0 0
428 2 2.4610000000000003e+00 0.0000000000000000e+00 9.2419454937518903e+00 0 0 0
429 2 3.6915000000000004e+00 7.1042950623783474e-01 9.2419454937518903e+00 0 0 0
437 2 3.6914999999999996e+00 2.1312885187134998e+00 9.2419454937518903e+00 0 0 0
101 2 1.2305000000000001e+00 3.5521475311891644e+00 6.2287859656806708e+00 0 0 0
122 2 3.6914999999999996e+00 3.5521475311891644e+00 6.2287859656806708e+00 0 0 0
126 2 4.9220000000000006e+00 1.4208590124756650e+00 6.2287859656806708e+00 0 0 0
128 2 4.9220000000000006e+00 0.0000000000000000e+00 6.2287859656806708e+00 0 0 0
153 2 6.1524999999999999e+00 2.1312885187134989e+00 6.2287859656806708e+00 0 0 0
155 2 7.3829999999999991e+00 1.4208590124756659e+00 6.2287859656806708e+00 0 0 0
157 2 7.3829999999999991e+00 0.0000000000000000e+00 6.2287859656806708e+00 0 0 0
438 2 4.9220000000000006e+00 2.8417180249513332e+00 9.2419454937518903e+00 0 0 0
439 2 4.9220000000000006e+00 0.0000000000000000e+00 9.2419454937518903e+00 0 0 0
440 2 6.1524999999999999e+00 7.1042950623783407e-01 9.2419454937518903e+00 0 0 0
452 2 6.1524999999999999e+00 2.1312885187134989e+00 9.2419454937518903e+00 0 0 0
453 2 7.3829999999999991e+00 2.8417180249513345e+00 9.2419454937518903e+00 0 0 0
454 2 7.3829999999999991e+00 0.0000000000000000e+00 9.2419454937518903e+00 0 0 0
151 2 6.1524999999999999e+00 3.5521475311891644e+00 6.2287859656806708e+00 0 0 0
190 2 8.6134999999999984e+00 2.1312885187135002e+00 6.2287859656806708e+00 0 0 0
192 2 9.8440000000000012e+00 1.4208590124756659e+00 6.2287859656806708e+00 0 0 0
194 2 9.8440000000000012e+00 0.0000000000000000e+00 6.2287859656806708e+00 0 0 0
235 2 1.1074500000000002e+01 2.1312885187135002e+00 6.2287859656806708e+00 0 0 0
455 2 8.6134999999999984e+00 7.1042950623783407e-01 9.2419454937518903e+00 0 0 0
471 2 8.6134999999999984e+00 2.1312885187135002e+00 9.2419454937518903e+00 0 0 0
472 2 9.8440000000000012e+00 2.8417180249513332e+00 9.2419454937518903e+00 0 0 0
473 2 9.8440000000000012e+00 0.0000000000000000e+00 9.2419454937518903e+00 0 0 0
474 2 1.1074500000000002e+01 7.1042950623783330e-01 9.2419454937518903e+00 0 0 0
494 2 1.1074500000000002e+01 2.1312885187135002e+00 9.2419454937518903e+00 0 0 0
188 2 8.6134999999999984e+00 3.5521475311891657e+00 6.2287859656806708e+00 0 0 0
233 2 1.1074500000000002e+01 3.5521475311891644e+00 6.2287859656806708e+00 0 0 0
97 2 0.0000000000000000e+00 5.6834360499026637e+00 6.2287859656806708e+00 0 0 0
99 2 0.0000000000000000e+00 4.2625770374269996e+00 6.2287859656806708e+00 0 0 0
116 2 1.2305000000000001e+00 6.3938655561404980e+00 6.2287859656806708e+00 0 0 0
118 2 2.4610000000000003e+00 5.6834360499026637e+00 6.2287859656806708e+00 0 0 0
120 2 2.4610000000000003e+00 4.2625770374269996e+00 6.2287859656806708e+00 0 0 0
145 2 3.6914999999999996e+00 6.3938655561404980e+00 6.2287859656806708e+00 0 0 0
424 2 0.0000000000000000e+00 4.2625770374269996e+00 9.2419454937518903e+00 0 0 0
425 2 1.2305000000000001e+00 4.9730065436648339e+00 9.2419454937518903e+00 0 0 0
433 2 1.2305000000000001e+00 6.3938655561404980e+00 9.2419454937518903e+00 0 0 0
435 2 2.4610000000000003e+00 4.2625770374269996e+00 9.2419454937518903e+00 0 0 0
436 2 3.6914999999999996e+00 4.9730065436648339e+00 9.2419454937518903e+00 0 0 0
448 2 3.6914999999999996e+00 6.3938655561404980e+00 9.2419454937518903e+00 0 0 0
114 2 1.2305000000000001e+00 7.8147245686161639e+00 6.2287859656806708e+00 0 0 0
143 2 3.6914999999999996e+00 7.8147245686161639e+00 6.2287859656806708e+00 0 0 0
423 2 0.0000000000000000e+00 7.1042950623783341e+00 9.2419454937518903e+00 0 0 0
434 2 2.4610000000000003e+00 7.1042950623783341e+00 9.2419454937518903e+00 0 0 0
147 2 4.9220000000000006e+00 5.6834360499026637e+00 6.2287859656806708e+00 0 0 0
149 2 4.9220000000000006e+00 4.2625770374269978e+00 6.2287859656806708e+00 0 0 0
182 2 6.1524999999999999e+00 6.3938655561404980e+00 6.2287859656806708e+00 0 0 0
184 2 7.3829999999999991e+00 5.6834360499026637e+00 6.2287859656806708e+00 0 0 0
186 2 7.3829999999999991e+00 4.2625770374269996e+00 6.2287859656806708e+00 0 0 0
450 2 4.9220000000000006e+00 4.2625770374269978e+00 9.2419454937518903e+00 0 0 0
451 2 6.1524999999999999e+00 4.9730065436648339e+00 9.2419454937518903e+00 0 0 0
467 2 6.1524999999999999e+00 6.3938655561404980e+00 9.2419454937518903e+00 0 0 0
469 2 7.3829999999999991e+00 4.2625770374269996e+00 9.2419454937518903e+00 0 0 0
180 2 6.1524999999999999e+00 7.8147245686161639e+00 6.2287859656806708e+00 0 0 0
449 2 4.9220000000000006e+00 7.1042950623783341e+00 9.2419454937518903e+00 0 0 0
468 2 7.3830000000000009e+00 7.1042950623783341e+00 9.2419454937518903e+00 0 0 0
227 2 8.6135000000000002e+00 6.3938655561404980e+00 6.2287859656806708e+00 0 0 0
229 2 9.8440000000000012e+00 5.6834360499026637e+00 6.2287859656806708e+00 0 0 0
231 2 9.8440000000000012e+00 4.2625770374270004e+00 6.2287859656806708e+00 0 0 0
274 2 1.1074500000000002e+01 6.3938655561404980e+00 6.2287859656806708e+00 0 0 0
470 2 8.6135000000000002e+00 4.9730065436648339e+00 9.2419454937518903e+00 0 0 0
490 2 8.6135000000000002e+00 6.3938655561404980e+00 9.2419454937518903e+00 0 0 0
492 2 9.8440000000000012e+00 4.2625770374270004e+00 9.2419454937518903e+00 0 0 0
493 2 1.1074500000000002e+01 4.9730065436648339e+00 9.2419454937518903e+00 0 0 0
514 2 1.1074500000000002e+01 6.3938655561404980e+00 9.2419454937518903e+00 0 0 0
225 2 8.6135000000000002e+00 7.8147245686161639e+00 6.2287859656806708e+00 0 0 0
272 2 1.1074500000000002e+01 7.8147245686161639e+00 6.2287859656806708e+00 0 0 0
491 2 9.8440000000000012e+00 7.1042950623783341e+00 9.2419454937518903e+00 0 0 0
110 2 0.0000000000000000e+00 9.9460130873296642e+00 6.2287859656806708e+00 0 0 0
112 2 0.0000000000000000e+00 8.5251540748539991e+00 6.2287859656806708e+00 0 0 0
139 2 2.4610000000000003e+00 9.9460130873296642e+00 6.2287859656806708e+00 0 0 0
141 2 2.4610000000000003e+00 8.5251540748539991e+00 6.2287859656806708e+00 0 0 0
431 2 0.0000000000000000e+00 8.5251540748539991e+00 9.2419454937518903e+00 0 0 0
432 2 1.2305000000000001e+00 9.2355835810918343e+00 9.2419454937518903e+00 0 0 0
446 2 2.4610000000000003e+00 8.5251540748539991e+00 9.2419454937518903e+00 0 0 0
447 2 3.6915000000000004e+00 9.2355835810918343e+00 9.2419454937518903e+00 0 0 0
135 2 1.2305000000000001e+00 1.2077301606043163e+01 6.2287859656806708e+00 0 0 0
137 2 1.2305000000000001e+00 1.0656442593567498e+01 6.2287859656806708e+00 0 0 0
172 2 3.6914999999999996e+00 1.2077301606043163e+01 6.2287859656806708e+00 0 0 0
174 2 3.6914999999999996e+00 1.0656442593567499e+01 6.2287859656806708e+00 0 0 0
430 2 0.0000000000000000e+00 1.1366872099805333e+01 9.2419454937518903e+00 0 0 0
444 2 1.2305000000000001e+00 1.0656442593567498e+01 9.2419454937518903e+00 0 0 0
445 2 2.4610000000000003e+00 1.1366872099805333e+01 9.2419454937518903e+00 0 0 0
463 2 3.6914999999999996e+00 1.0656442593567499e+01 9.2419454937518903e+00 0 0 0
176 2 4.9220000000000006e+00 9.9460130873296642e+00 6.2287859656806708e+00 0 0 0
178 2 4.9220000000000006e+00 8.5251540748539991e+00 6.2287859656806708e+00 0 0 0
221 2 7.3830000000000009e+00 9.9460130873296642e+00 6.2287859656806708e+00 0 0 0
223 2 7.3830000000000009e+00 8.5251540748539991e+00 6.2287859656806708e+00 0 0 0
465 2 4.9220000000000006e+00 8.5251540748539991e+00 9.2419454937518903e+00 0 0 0
466 2 6.1524999999999999e+00 9.2355835810918343e+00 9.2419454937518903e+00 0 0 0
488 2 7.3830000000000009e+00 8.5251540748539991e+00 9.2419454937518903e+00 0 0 0
217 2 6.1524999999999999e+00 1.2077301606043163e+01 6.2287859656806708e+00 0 0 0
219 2 6.1524999999999999e+00 1.0656442593567499e+01 6.2287859656806708e+00 0 0 0
464 2 4.9220000000000006e+00 1.1366872099805333e+01 9.2419454937518903e+00 0 0 0
486 2 6.1524999999999999e+00 1.0656442593567499e+01 9.2419454937518903e+00 0 0 0
487 2 7.3829999999999991e+00 1.1366872099805333e+01 9.2419454937518903e+00 0 0 0
268 2 9.8440000000000012e+00 9.9460130873296642e+00 6.2287859656806708e+00 0 0 0
270 2 9.8440000000000012e+00 8.5251540748539956e+00 6.2287859656806708e+00 0 0 0
489 2 8.6134999999999984e+00 9.2355835810918343e+00 9.2419454937518903e+00 0 0 0
512 2 9.8440000000000012e+00 8.5251540748539956e+00 9.2419454937518903e+00 0 0 0
513 2 1.1074500000000002e+01 9.2355835810918343e+00 9.2419454937518903e+00 0 0 0
264 2 8.6135000000000002e+00 1.2077301606043163e+01 6.2287859656806708e+00 0 0 0
266 2 8.6134999999999984e+00 1.0656442593567498e+01 6.2287859656806708e+00 0 0 0
311 2 1.1074500000000002e+01 1.2077301606043163e+01 6.2287859656806708e+00 0 0 0
313 2 1.1074500000000002e+01 1.0656442593567498e+01 6.2287859656806708e+00 0 0 0
510 2 8.6134999999999984e+00 1.0656442593567498e+01 9.2419454937518903e+00 0 0 0
511 2 9.8440000000000012e+00 1.1366872099805333e+01 9.2419454937518903e+00 0 0 0
534 2 1.1074500000000002e+01 1.0656442593567498e+01 9.2419454937518903e+00 0 0 0
535 2 1.2304999999999998e+01 1.1366872099805333e+01 9.2419454937518903e+00 0 0 0
3831 1 5.5426101804933481e+00 9.1753717358214129e+00 1.4376275869030914e+01 -1 0 0
1459 1 3.6632626480391877e+00 3.6705307911605414e+00 1.2376998598859188e+01 2 1 0
1622 1 6.5248095726488797e+00 2.4019480596712253e+00 1.2049305292695077e+01 1 1 1
4535 1 1.1891945551319331e+01 2.8155360573919905e+00 1.1512876148643979e+01 2 1 -1
732 1 2.9595875038293618e+00 9.9856044382206974e+00 1.4387459830029888e+01 1 1 0
865 1 1.1409544138804890e+00 6.8079192679394156e+00 1.2176654972532006e+01 0 1 1
873 1 3.6263658197682194e+00 6.1475561015530484e+00 1.1643157941580935e+01 1 0 0
2337 1 5.6192119401591674e+00 8.0770413785694029e+00 1.1894879913927353e+01 2 1 0
1566 1 9.3363417313617560e+00 3.1517303751473333e+00 1.2592745373073667e+01 1 -1 1
1582 1 1.0164177545616958e+01 6.5999806178160263e+00 1.1925002666725812e+01 0 0 0
24 1 1.6663971907714898e+00 9.4661207045036111e+00 1.1864943255544503e+01 0 1 0
2364 1 4.2901683061108624e+00 1.1383414569435018e+01 1.1934219238950718e+01 0 0 1
3026 1 7.1943401439307335e+00 1.1081384243923134e+01 1.1966819469595730e+01 0 -1 -1
2887 1 7.3307466435711142e+00 5.7204886361359124e+00 1.2210646785167860e+01 1 0 -1
2389 1 8.7632364980932671e+00 8.6212349581471290e+00 1.3430257170789709e+01 0 0 -1
2947 1 1.8142250870337808e+00 7.2578912112652638e-01 1.4828948319172532e+01 0 1 0
3864 1 1.1956016023613756e+01 8.6817253128796565e+00 1.4545538645656016e+01 -1 0 1
607 1 1.0558461719275014e+01 1.0533769411860334e+01 1.2297548456861156e+01 0 -1 -1
1386 1 2.8796020876447503e+00 3.1910772498565398e+00 1.5362782075856192e+01 0 0 0
1516 1 7.3892639810117595e+00 1.1477916937889120e+01 1.4984394360777010e+01 0 0 0
1544 1 9.1985732237595830e+00 9.7384773296179594e-01 1.4599578610061375e+01 -1 1 -1
3636 1 1.2728951221752527e+00 9.1531780727638179e-01 1.2022629817685729e+01 0 0 0
4406 1 1.5348088914186697e+00 6.1981229299958809e+00 1.4726009785921585e+01 0 0 -1
2406 1 5.8249113116449420e+00 2.6707161243055180e+00 1.4841752713018892e+01 -1 1 1
2124 1 7.3430379015668379e+00 5.0043825064110301e+00 1.5162823035833368e+01 -1 1 0
3887 1 9.9799877008232158e+00 3.6370817262222270e+00 1.5495900276168918e+01 -1 0 0
1452 1 1.0067175441715502e+01 6.7801275492927280e+00 1.5507920011725956e+01 2 0 0
596 1 1.5856310228554771e+00 8.7965791098961059e+00 1.6716652356447327e+01 0 1 0
737 1 6.8310591562304062e+00 3.9683913908253698e-01 1.5942697857338930e+01 -1 0 0
3053 1 5.8973521903336783e+00 7.1277982642907487e+00 1.6476182888319446e+01 1 1 0
611 1 4.5126838246960271e-01 1.1689115557829306e+01 1.6182262859716054e+01 1 1 0
1499 1 3.6062824572479529e-01 4.1463388888316510e+00 3.0681954717439158e+01 0 1 -1
4383 1 1.1910505719577307e+01 7.1851015685908672e+00 2.8485116884962704e+01 0 -1 0
2882 1 6.8846112564600803e+00 1.8937501577786400e+00 2.0401932856841228e+01 1 0 0
2351 1 1.1745620318204431e-01 5.3707787669611404e+00 2.8236344594309831e+01 1 2 0
3655 1 8.3527059864103119e+00 7.6479481121549515e+00 1.7426331361024058e+01 1 0 0
1546 1 7.2077025218762634e+00 3.2385429733025064e+00 1.7863541158647177e+01 0 1 1
2159 1 1.1097428297731113e+01 3.5933916420198830e+00 2.0435802556085836e+01 0 1 1
2932 1 3.5536953213350611e+00 4.9312610227635103e+00 2.1371339015402832e+01 0 0 0
602 1 8.2762791983595985e-01 5.4371999038749736e+00 2.4810572941308155e+01 0 0 -1
879 1 4.6831405222797056e+00 6.6603942977830872e+00 1.9651122112806664e+01 0 2 0
1430 1 8.3946866172127059e+00 5.5105572925544308e+00 1.9416834079977814e+01 0 -1 0
2854 1 7.8952203045035088e+00 1.1816617566567523e+01 1.8097802425860596e+01 -1 -1 -1
4435 1 1.2201197064686677e+00 8.9875033694647932e+00 2.1008963888822752e+01 1 0 0
3843 1 5.4664367513241636e+00 9.7125462186672298e+00 2.1276051248572930e+01 1 1 0
1410 1 4.6730739511052688e+00 4.4067375688515957e+00 1.7750850976562788e+01 1 1 0
3616 1 9.4284442059021369e+00 9.7646848735957814e+00 1.8880222262994124e+01 1 2 0
4343 1 1.2031000112691522e+01 1.7224786192226276e+00 2.3411805536898957e+01 0 1 -1
1526 1 7.8456947904275587e-01 7.9421779574810125e-01 2.8219345228699460e+01 1 1 0
2853 1 9.1201041602539217e+00 2.6842089800942230e+00 2.1783953644002533e+01 1 0 -1
772 1 4.8439639065527773e+00 4.9521042307658618e+00 2.3927782022027476e+01 1 0 -1
1448 1 5.7681111092171609e+00 2.2894003160931007e+00 2.3276181579794603e+01 -1 1 0
3804 1 1.0168853904461567e+01 1.1427196750430912e+01 2.3014797989320648e+01 -1 1 -1
2225 1 8.7307156426821617e+00 4.0299672514488272e+00 2.4055268763326836e+01 0 1 -1
2936 1 1.1729357899485851e+01 7.7779144380476906e+00 2.3396528437400690e+01 -1 1 0
3089 1 8.2705434249753584e-01 5.1415172063817405e+00 2.2199454815693144e+01 1 0 0
1536 1 3.1838318737884150e+00 7.1030823581000027e+00 2.4828209727056304e+01 1 0 0
718 1 7.2735611088742429e+00 6.1956025522999632e+00 2.3598177050508696e+01 0 0 -1
712 1 1.1396299433831219e+01 6.3824062552063330e+00 2.0740527102650120e+01 0 0 0
3797 1 7.1238999562769143e+00 7.3562850225586809e+00 2.0898318550277889e+01 0 1 1
877 1 7.3289094353321547e+00 4.7559198767665040e-01 2.5164189471568363e+01 1 2 0
2268 1 2.9681449628730836e+00 9.5069468328568583e+00 2.3518275582846957e+01 0 0 -1
2949 1 7.6061723435924922e+00 1.2147630894757508e+01 2.3307111176654008e+01 1 0 0
2886 1 5.5801393905986636e+00 1.0631923221884318e+01 2.4603966617837731e+01 1 0 0
2175 1 1.3266719403225267e+00 1.1029302462364481e+00 1.8379834487323347e+01 -1 1 0
3892 1 9.6293341912760440e+00 8.7880851845200425e+00 2.1640496784941952e+01 0 1 0
4544 1 8.6630270850764568e-01 2.7886564667821427e+00 2.6343667852797903e+01 1 1 -1
3902 1 3.2687099905400987e+00 8.8822053947549175e+00 1.8898045237503073e+01 0 0 0
3777 1 3.9159439976615000e+00 3.4150074263222807e+00 2.6287762496493905e+01 0 0 0
1388 1 5.1679885269062336e+00 1.9800792202571948e+00 2.8447523118968601e+01 1 1 1
2961 1 1.1622514829202165e+01 7.2873578686158238e+00 1.8327048895004356e+01 0 1 0
2152 1 1.0084592164761840e+01 1.4022489228964927e+00 2.5743048659319459e+01 -1 0 0
3889 1 1.0078273001636175e+01 2.1965380248791191e+00 1.8192544309839416e+01 1 0 0
2890 1 1.4859017314298844e+00 1.1873913163836468e+01 2.2837724411267821e+01 1 0 1
4342 1 1.9682574423819759e+00 7.5176485969284998e+00 2.7430780768403483e+01 1 1 1
3829 1 7.0119089891497524e+00 3.0718910204206531e+00 2.6059915757370327e+01 0 1 -1
1432 1 1.1120755424981448e+01 5.5335191236467560e+00 2.4985937448125423e+01 0 1 -1
2865 1 1.0607765565868258e+01 2.7718752378619924e+00 2.8091336045662050e+01 0 1 -1
690 1 8.0277822459977717e+00 1.0815458629714842e+01 2.7942111475581299e+01 1 0 1
846 1 5.2463902472951851e+00 1.0922572869810555e+01 2.7266703663663669e+01 1 0 0
3114 1 6.9418558637406607e+00 8.4349984729051322e+00 2.5566688504456462e+01 0 0 -1
2998 1 1.1515516137624651e+01 9.9969639744029450e+00 2.5205468699051860e+01 0 0 -1
4490 1 9.5544586080696003e+00 8.6426089177212280e+00 2.6838097455065650e+01 0 0 -1
648 1 5.4049592304099967e+00 1.0235856322298055e+01 1.7705177983251883e+01 0 0 0
3079 1 9.0592705850291044e-01 1.4921687360842084e+00 3.0842907720933336e+01 0 0 0
1357 1 3.7095343663445646e+00 1.5261332165387718e+00 3.1096524468850347e+01 1 1 -1
3002 1 6.4563858657803861e+00 3.5516342374848717e+00 3.0929426032123892e+01 0 0 -1
2971 1 8.5865912955464463e+00 1.8914654243922806e+00 3.0335106792332674e+01 0 1 0
3059 1 1.0891125483018604e+01 3.5652194382799944e+00 3.1090226020941770e+01 1 1 0
4528 1 1.2029639220289365e+01 1.1831646562192073e+01 2.7479748708823543e+01 -1 1 -1
1359 1 3.2142201190551618e+00 4.6376949139964818e+00 3.1156573985470157e+01 1 0 0
855 1 1.8532617335649202e+00 7.0450967125149342e+00 3.1181645713951799e+01 0 0 0
53 1 3.6535179583741275e+00 5.4562935290572918e+00 2.8327055521902100e+01 0 0 0
2206 1 5.5688109227805116e+00 7.9188876322207395e+00 2.7862741301471239e+01 0 1 0
4448 1 9.9400492070763775e+00 5.4938046993990035e+00 2.7505806040323009e+01 1 1 0
1604 1 6.5786881352439712e+00 4.9645607264625689e+00 2.8223600491901461e+01 0 1 0
4340 1 7.6700729755555788e+00 6.1194573282065239e+00 3.0772668891870680e+01 0 1 0
3796 1 1.0361350553087734e+01 6.3297277204462583e+00 3.1268885420641954e+01 1 0 -1
770 1 8.3624778537351769e+00 1.0475667374338428e+01 3.0966300368896562e+01 1 1 -1
69 1 1.0974219186725103e+00 1.0693464870731566e+00 2.4121194605366270e+01 0 1 0
3072 1 2.7667459067601121e+00 1.0005228281708174e+01 2.8681530614638081e+01 1 1 0
1569 1 3.6722432011668955e+00 9.4064422642998462e+00 3.1281357226236508e+01 0 0 0
2262 1 6.3395071428555028e+00 8.5029074629359318e+00 3.0452170833564317e+01 -1 0 0
2928 1 3.5845487046563940e+00 2.1344607324328860e-01 2.3433850127634511e+01 0 0 0
4494 1 3.2794219371569406e+00 2.9459472831748532e+00 1.9591968592235816e+01 -1 1 -1
3131 1 4.5394007732464061e+00 2.9654795200716311e-01 2.0303404558260610e+01 1 1 0
3811 1 1.2095055360153133e+01 1.1181169927307534e+01 1.8992288432185447e+01 0 0 -1
1365 1 1.1308565758204681e+01 1.0988457575783276e+01 3.0069465804415934e+01 0 0 0
3678 1 1.3846889449623057e-01 9.6845712775799466e+00 2.6076603413485092e+01 0 0 0
721 1 4.5521699102926885e+00 1.2136429075286365e+01 3.0420891327172846e+01 0 0 0
132 2 0.0000000000000000e+00 1.2787731112280996e+01 3.2156264376102195e+00 0 0 0
134 2 1.2305000000000001e+00 1.3498160618518829e+01 3.2156264376102195e+00 0 0 0
169 2 2.4610000000000003e+00 1.2787731112280996e+01 3.2156264376102195e+00 0 0 0
171 2 3.6915000000000004e+00 1.3498160618518829e+01 3.2156264376102195e+00 0 0 0
130 2 0.0000000000000000e+00 1.5629449137232333e+01 3.2156264376102195e+00 0 0 0
165 2 1.2305000000000001e+00 1.4919019630994494e+01 3.2156264376102195e+00 0 0 0
167 2 2.4610000000000003e+00 1.5629449137232328e+01 3.2156264376102195e+00 0 0 0
210 2 3.6915000000000004e+00 1.4919019630994494e+01 3.2156264376102195e+00 0 0 0
214 2 4.9220000000000006e+00 1.2787731112280996e+01 3.2156264376102195e+00 0 0 0
216 2 6.1524999999999990e+00 1.3498160618518829e+01 3.2156264376102195e+00 0 0 0
261 2 7.3829999999999991e+00 1.2787731112280996e+01 3.2156264376102195e+00 0 0 0
212 2 4.9220000000000006e+00 1.5629449137232333e+01 3.2156264376102195e+00 0 0 0
257 2 6.1524999999999990e+00 1.4919019630994494e+01 3.2156264376102195e+00 0 0 0
259 2 7.3829999999999991e+00 1.5629449137232333e+01 3.2156264376102195e+00 0 0 0
263 2 8.6135000000000002e+00 1.3498160618518835e+01 3.2156264376102195e+00 0 0 0
308 2 9.8440000000000012e+00 1.2787731112280996e+01 3.2156264376102195e+00 0 0 0
310 2 1.1074500000000002e+01 1.3498160618518829e+01 3.2156264376102195e+00 0 0 0
304 2 8.6135000000000002e+00 1.4919019630994494e+01 3.2156264376102195e+00 0 0 0
306 2 9.8440000000000012e+00 1.5629449137232328e+01 3.2156264376102195e+00 0 0 0
346 2 1.1074500000000002e+01 1.4919019630994494e+01 3.2156264376102195e+00 0 0 0
161 2 0.0000000000000000e+00 1.7050308149707998e+01 3.2156264376102195e+00 0 0 0
206 2 2.4610000000000003e+00 1.7050308149707998e+01 3.2156264376102195e+00 0 0 0
159 2 0.0000000000000000e+00 1.9892026174659328e+01 3.2156264376102195e+00 0 0 0
163 2 1.2305000000000001e+00 1.7760737655945832e+01 3.2156264376102195e+00 0 0 0
202 2 1.2305000000000001e+00 1.9181596668421495e+01 3.2156264376102195e+00 0 0 0
204 2 2.4610000000000003e+00 1.9892026174659328e+01 3.2156264376102195e+00 0 0 0
208 2 3.6914999999999996e+00 1.7760737655945832e+01 3.2156264376102195e+00 0 0 0
249 2 3.6914999999999996e+00 1.9181596668421495e+01 3.2156264376102195e+00 0 0 0
253 2 4.9220000000000006e+00 1.7050308149707998e+01 3.2156264376102195e+00 0 0 0
300 2 7.3830000000000009e+00 1.7050308149707998e+01 3.2156264376102195e+00 0 0 0
251 2 4.9220000000000006e+00 1.9892026174659328e+01 3.2156264376102195e+00 0 0 0
255 2 6.1524999999999999e+00 1.7760737655945832e+01 3.2156264376102195e+00 0 0 0
296 2 6.1524999999999999e+00 1.9181596668421495e+01 3.2156264376102195e+00 0 0 0
298 2 7.3829999999999991e+00 1.9892026174659328e+01 3.2156264376102195e+00 0 0 0
342 2 9.8440000000000012e+00 1.7050308149707998e+01 3.2156264376102195e+00 0 0 0
376 2 1.2304999999999998e+01 1.7050308149707998e+01 3.2156264376102195e+00 0 0 0
302 2 8.6134999999999984e+00 1.7760737655945832e+01 3.2156264376102195e+00 0 0 0
338 2 8.6135000000000002e+00 1.9181596668421495e+01 3.2156264376102195e+00 0 0 0
340 2 9.8440000000000012e+00 1.9892026174659335e+01 3.2156264376102195e+00 0 0 0
344 2 1.1074500000000002e+01 1.7760737655945835e+01 3.2156264376102195e+00 0 0 0
372 2 1.1074500000000002e+01 1.9181596668421495e+01 3.2156264376102195e+00 0 0 0
196 2 0.0000000000000000e+00 2.4154603212086325e+01 3.2156264376102195e+00 0 0 0
198 2 0.0000000000000000e+00 2.1312885187134999e+01 3.2156264376102195e+00 0 0 0
200 2 1.2304999999999993e+00 2.2023314693372832e+01 3.2156264376102195e+00 0 0 0
241 2 1.2304999999999993e+00 2.3444173705848499e+01 3.2156264376102195e+00 0 0 0
243 2 2.4610000000000003e+00 2.4154603212086325e+01 3.2156264376102195e+00 0 0 0
245 2 2.4610000000000003e+00 2.1312885187134995e+01 3.2156264376102195e+00 0 0 0
247 2 3.6914999999999996e+00 2.2023314693372832e+01 3.2156264376102195e+00 0 0 0
288 2 3.6915000000000004e+00 2.3444173705848499e+01 3.2156264376102195e+00 0 0 0
290 2 4.9220000000000006e+00 2.4154603212086325e+01 3.2156264376102195e+00 0 0 0
292 2 4.9220000000000006e+00 2.1312885187134995e+01 3.2156264376102195e+00 0 0 0
294 2 6.1524999999999990e+00 2.2023314693372832e+01 3.2156264376102195e+00 0 0 0
330 2 6.1524999999999999e+00 2.3444173705848499e+01 3.2156264376102195e+00 0 0 0
332 2 7.3830000000000009e+00 2.4154603212086336e+01 3.2156264376102195e+00 0 0 0
334 2 7.3829999999999991e+00 2.1312885187134999e+01 3.2156264376102195e+00 0 0 0
336 2 8.6135000000000002e+00 2.2023314693372832e+01 3.2156264376102195e+00 0 0 0
364 2 8.6134999999999984e+00 2.3444173705848499e+01 3.2156264376102195e+00 0 0 0
366 2 9.8440000000000012e+00 2.4154603212086336e+01 3.2156264376102195e+00 0 0 0
368 2 9.8440000000000012e+00 2.1312885187134999e+01 3.2156264376102195e+00 0 0 0
370 2 1.1074500000000002e+01 2.2023314693372832e+01 3.2156264376102195e+00 0 0 0
390 2 1.1074500000000002e+01 2.3444173705848499e+01 3.2156264376102195e+00 0 0 0
133 2 0.0000000000000000e+00 1.2787731112280996e+01 6.2287859656806708e+00 0 0 0
170 2 2.4610000000000003e+00 1.2787731112280996e+01 6.2287859656806708e+00 0 0 0
442 2 0.0000000000000000e+00 1.2787731112280996e+01 9.2419454937518903e+00 0 0 0
443 2 1.2305000000000001e+00 1.3498160618518829e+01 9.2419454937518903e+00 0 0 0
461 2 2.4610000000000003e+00 1.2787731112280996e+01 9.2419454937518903e+00 0 0 0
462 2 3.6915000000000004e+00 1.3498160618518829e+01 9.2419454937518903e+00 0 0 0
131 2 0.0000000000000000e+00 1.4208590124756663e+01 6.2287859656806708e+00 0 0 0
166 2 1.2305000000000001e+00 1.4919019630994494e+01 6.2287859656806708e+00 0 0 0
168 2 2.4610000000000003e+00 1.4208590124756663e+01 6.2287859656806708e+00 0 0 0
211 2 3.6915000000000004e+00 1.4919019630994494e+01 6.2287859656806708e+00 0 0 0
441 2 0.0000000000000000e+00 1.5629449137232333e+01 9.2419454937518903e+00 0 0 0
459 2 1.2305000000000001e+00 1.4919019630994494e+01 9.2419454937518903e+00 0 0 0