LAMMPS data file via write_data, version 16 Mar 2018, timestep = 6000000

6736 atoms
2 atom types

0.0000000000000000e+00 4.9219999999999999e+01 xlo xhi
0.0000000000000000e+00 4.9019635930410494e+01 ylo yhi
5.5727322412633029e-01 5.9504726775878709e+01 zlo zhi

Masses

1 18.015
2 12.01

Atoms # atomic

3617 1 2.7126099511416055e+00 1.0874441565733239e+00 2.0114083056641596e+00 -2 -1 0
5232 1 3.7458468118831378e+00 3.7113488093152496e+00 2.8743594230476068e+00 1 -1 1
1843 1 1.5362482907093314e-01 9.8524929271744066e-01 2.9878599309682454e+00 0 -1 0
5435 1 6.4662611227683282e+00 3.5325865920370614e+00 2.0441368204569188e+00 1 -2 0
5971 1 7.3766721189326763e+00 1.4444849302942355e+00 3.0678382442827554e+00 1 -2 1
4177 1 9.8295446667995119e+00 1.6295268028579615e+00 2.0818465870577327e+00 -2 -3 1
5294 1 1.1176251022578864e+01 3.7218621155847140e+00 2.7803048651874183e+00 -2 0 0
4202 1 2.7412650119384918e+00 6.1118407820490850e+00 1.7677646651617909e+00 3 -2 1
5514 1 2.3323448638361996e-01 5.7139517886985196e+00 2.8370774142173358e+00 4 4 0
3500 1 4.1867901767328171e+00 8.1385420301880345e+00 2.5241051708855742e+00 2 -2 0
368 1 8.1096223891672210e+00 5.6254407470433243e+00 2.7011755639586115e+00 -6 4 0
62 1 7.0269629931572384e+00 7.9766826587168280e+00 2.1057897657943698e+00 2 2 0
5991 1 1.0324222185123304e+01 6.0661560853001797e+00 1.8332299616407854e+00 1 1 1
463 1 1.1852945732544377e+01 8.1405953982463437e+00 2.9176818845863330e+00 -1 0 0
2191 1 2.6504884820240320e+00 1.0281283164432892e+01 1.9515224042959252e+00 -1 1 0
3451 1 1.7486345466131017e-01 9.9805119164883216e+00 2.8408359923270039e+00 0 0 0
986 1 4.2686966891519385e+00 1.2246415719380572e+01 2.5415469620792805e+00 1 2 1
364 1 6.5629043342848705e+00 1.2123824844326837e+01 1.8165604143445935e+00 4 1 0
6017 1 8.2191446639282493e+00 1.0286951195333401e+01 3.0638805733556849e+00 -2 0 1
2646 1 1.0815935271638574e+01 1.0333093593927575e+01 1.9865600668449612e+00 0 4 1
1774 1 2.9599644047972995e+00 1.4384763097939105e+01 1.6095774356070724e+00 2 1 0
2723 1 3.9440566855005765e-01 1.4529500992158210e+01 2.6895200095844807e+00 -1 2 1
1067 1 7.8839680330014463e+00 1.4381333437126981e+01 2.9360680656492981e+00 -4 3 1
2046 1 1.0450380856332119e+01 1.4577421630380611e+01 1.7445435355104830e+00 1 -2 0
2882 1 1.2122382181410000e+01 1.2625501420443374e+01 2.9508636252116274e+00 3 -2 1
5365 1 2.7203469381138632e+00 9.3081027704713359e-01 6.3408045980876713e+00 1 -1 0
2429 1 2.0499738911325049e-01 9.7257888399733150e-01 5.5777397952259369e+00 -5 4 0
5570 1 4.2100424227747588e+00 3.4850282638714978e+00 5.5356253146421652e+00 7 1 0
2024 1 7.5555421431559360e+00 1.0746935244945903e+00 5.6120272198993471e+00 -1 1 1
1205 1 6.7378243346110160e+00 3.4792202966441237e+00 6.6040133182092386e+00 1 4 1
4411 1 1.1269975598533659e+01 3.4442734302548730e+00 5.6969400465812887e+00 -1 -1 1
3521 1 1.0187885573597375e+01 1.2375166027081126e+00 6.6247605735373263e+00 0 0 0
3658 1 2.9716253777620381e+00 5.5854459820685562e+00 6.4545361318959644e+00 5 5 0
2873 1 3.9560152505774981e+00 7.9444774726882166e+00 5.3134985943730690e+00 1 0 1
5299 1 3.6294796672569135e-01 5.3890660211643890e+00 5.3306723270938177e+00 5 1 0
2752 1 7.7580836203933732e+00 5.7223693774823783e+00 5.4581831091149269e+00 0 -1 0
6207 1 6.3184122585008140e+00 7.8356567341316534e+00 6.5859639343360961e+00 0 2 1
4543 1 1.0164432396224845e+01 5.9904308373467252e+00 6.4079976045982585e+00 1 2 0
2161 1 1.1606099692650437e+01 7.8042844139498291e+00 5.5300909236468092e+00 0 2 0
2886 1 2.2275516190740335e-01 1.0121300441204712e+01 5.6284414168918016e+00 1 -1 1
2887 1 2.5762048863531093e+00 1.0382101746983407e+01 6.2886928997386802e+00 -1 0 1
6224 1 7.9045346934359095e+00 1.0113717130376434e+01 5.5776420020774529e+00 0 2 0
5154 1 4.2729896930201416e+00 1.2197392168492000e+01 5.3503615203507522e+00 -1 -1 1
792 1 1.0546998746303792e+01 1.0361043983682491e+01 6.3093412184067912e+00 2 -1 1
2438 1 2.8792612803764968e+00 1.4250034052964585e+01 6.1966319012105640e+00 4 -1 0
133 1 3.2878034362032188e-01 1.4231196058323031e+01 5.1456115182448503e+00 0 3 1
1087 1 6.6176192551616797e+00 1.2276365203177376e+01 6.4806073037860772e+00 0 -1 1
5910 1 7.8181492635117449e+00 1.4548924473045886e+01 5.4871206951962064e+00 -1 -3 0
3730 1 1.1778261149906346e+01 1.2512716382015805e+01 5.4866552037617646e+00 -1 3 0
4413 1 1.0373192598271260e+01 1.4804781807236335e+01 6.2315270684873214e+00 -1 -2 1
1193 1 2.4591458174119327e+00 1.5386483923515866e+00 9.1229082437447335e+00 2 -3 0
3637 1 3.8607100431265482e+00 3.7856245063437908e+00 9.8948792994743844e+00 -1 0 0
952 1 6.5219049786168481e+00 3.4413127790289892e+00 8.9427791013767290e+00 3 3 1
1152 1 7.8371252302140944e+00 1.1901511025126952e+00 1.0069786033245206e+01 1 -3 0
3455 1 1.0147191139324754e+01 1.3714392796216308e+00 9.0976318802197547e+00 -1 1 0
3761 1 1.1427696403038713e+01 3.4904368643920254e+00 9.7336882232191186e+00 -1 -2 0
2066 1 5.7342186878414657e-02 5.5821441842438757e+00 9.9394805367043144e+00 -2 0 0
3837 1 2.6787027930424219e+00 5.7948066448408593e+00 9.1121120947658749e+00 0 0 0
4217 1 3.9324148614793208e+00 8.0081263479388287e+00 1.0186771258666798e+01 3 -2 1
1986 1 7.3828068708366583e+00 5.6921105054685119e+00 1.0019293507091401e+01 0 2 0
5132 1 6.3031357486362616e+00 7.8670033377044000e+00 9.2357660896518059e+00 2 1 0
5931 1 1.0124119515441903e+01 6.1253300894184468e+00 9.0875788051654141e+00 2 -3 1
1903 1 1.1652991407488608e+01 8.1385678430629511e+00 1.0098208678909108e+01 0 0 0
84 1 6.2790868996958782e-01 1.0049631964220980e+01 1.0396004393455723e+01 -3 1 0
2705 1 3.0150787996359911e+00 1.0084180067844668e+01 9.2262672320138357e+00 2 1 1
6061 1 7.7269021128019455e+00 1.0161202012758332e+01 9.8998839568762431e+00 1 -2 1
1924 1 1.0457591739046864e+01 1.0626566006442747e+01 8.8479624825201935e+00 7 -1 0
978 1 2.9463090369614622e+00 1.4661965082519862e+01 9.0021052095147596e+00 -1 -2 1
3840 1 4.7329340485116350e-01 1.4547680765641269e+01 1.0219040005797671e+01 4 -4 0
2710 1 7.9097149242684397e+00 1.4229522385337070e+01 1.0026094197187430e+01 0 -1 1
5234 1 4.1137150209077262e+00 1.2454517194943456e+01 1.0176389806845407e+01 -1 4 0
5894 1 6.3571522895040102e+00 1.2273103957343622e+01 9.0939416456478952e+00 1 -3 1
1129 1 1.1822482647106559e+01 1.2597948579234417e+01 9.8386799187585456e+00 2 1 1
892 1 1.0452104640161480e+01 1.4820083059654992e+01 9.1070577121905014e+00 0 2 1
1737 1 2.4195167393157351e+00 1.3383492615623707e+00 1.3520232624836035e+01 -4 -3 0
268 1 3.8229114045463111e+00 3.5645457554556139e+00 1.2748771984391992e+01 0 2 0
3421 1 6.5132583086005811e+00 3.6575595140063104e+00 1.3205031498209339e+01 3 1 0
1000 1 7.8055484972516638e+00 1.4113086364387055e+00 1.2641534061834411e+01 3 -1 1
3742 1 1.0284051988468956e+01 1.6893774289642884e+00 1.3459589048166301e+01 -2 2 0
6278 1 1.1571040900715960e+01 3.8714050863346441e+00 1.2439744453661792e+01 -1 0 0
2764 1 1.0418893174774524e+01 1.5721028675113311e+00 1.6062787701087316e+01 -2 1 1
5439 1 2.6846879165762432e+00 5.6311444540196440e+00 1.3777823795735870e+01 -1 1 0
2853 1 2.0709543943755904e-01 5.2823507592382670e+00 1.2519852577029580e+01 3 1 1
3700 1 6.8399131994199331e+00 8.1372456781357396e+00 1.3542745020492388e+01 1 -5 0
5152 1 4.3529153432711762e+00 7.6465895396944354e+00 1.2928241339372518e+01 -3 -1 0
1180 1 7.9743254701875657e+00 6.0036111480030723e+00 1.2654577518922842e+01 2 1 1
5927 1 1.0744952215866459e+01 6.0482624557056388e+00 1.3304140334425815e+01 -1 2 1
162 1 1.0654086276641847e+01 6.1347436363730843e+00 1.5995350430346409e+01 -3 -2 0
308 1 3.0447869437601720e+00 9.8204076199540520e+00 1.4085897435945750e+01 2 2 0
3605 1 5.8107103517422909e-01 9.5028853890380329e+00 1.3137634858966329e+01 3 1 0
4536 1 8.0395414746407585e+00 1.0278287520472905e+01 1.2555876857874528e+01 3 -5 1
5531 1 6.5199735162888368e+00 8.2798272620475526e+00 1.6122104740600559e+01 1 2 0
3480 1 4.1821949829942104e+00 1.2106917491505241e+01 1.2940659407144862e+01 -2 0 0
2647 1 1.2005428413720265e+01 8.3573397134806626e+00 1.2741154249634748e+01 3 -3 0
2695 1 1.0642574766936736e+01 1.0353134082491257e+01 1.3591402832122897e+01 3 0 1
2637 1 1.0431823932916279e+01 9.9829073754082085e+00 1.6238250284340506e+01 2 -5 1
247 1 4.4271510632466898e-01 1.4333672240579638e+01 1.2861398043018893e+01 -2 0 1
1009 1 2.7107983241010447e+00 1.4323533875402532e+01 1.4010118394143918e+01 0 0 1
6214 1 7.9896747306328146e+00 1.4726780165201911e+01 1.2698088534193221e+01 -3 3 1
211 1 6.8940841953970384e+00 1.2623779158492626e+01 1.3957743941458261e+01 0 0 0
6216 1 1.0475442805394684e+01 1.4898895654510550e+01 1.3461079816040298e+01 0 -1 1
5554 1 1.0670508289588364e+01 1.4535612467196165e+01 1.6164013797489517e+01 0 1 0
5108 1 1.1610681361071462e+01 1.2792392311812357e+01 1.2574026602380684e+01 0 -1 1
992 1 2.8204475571438130e+00 1.3739666609556789e+00 1.6341429716441993e+01 -1 1 1
1829 1 4.0928976342134566e+00 3.3936396659382524e+00 1.7549722759710278e+01 1 0 0
3484 1 1.0383348831595778e-01 8.6711398418996055e-01 1.7408313201030385e+01 2 -1 0
1035 1 6.6729854953365750e+00 3.5244428624992028e+00 1.6348799150904590e+01 2 -4 1
3494 1 7.7569943118902707e+00 1.2364601039866860e+00 1.6942426644869688e+01 2 0 0
5348 1 7.8123330311780350e+00 1.2885680974703801e+00 1.9846033838567298e+01 1 2 0
1114 1 1.1497537588621059e+01 3.6642018111368357e+00 1.9988367505317285e+01 -1 -1 1
3560 1 1.1579882392901856e+01 3.9984874606094314e+00 1.7429609359502354e+01 -1 0 0
5841 1 2.8968538420307319e+00 5.5169821530019112e+00 1.6395728004337130e+01 0 0 0
5081 1 3.9144028724177042e+00 7.9107476189016737e+00 1.9943411711169627e+01 2 4 0
4521 1 4.9093359820494947e-01 5.3047027941652374e+00 1.7355817125686123e+01 0 0 1
1112 1 2.4759374758708730e-01 5.6558649781191344e+00 1.9837370667931108e+01 3 1 1
1723 1 4.1500602848844483e+00 7.7419343048621601e+00 1.7179851378769246e+01 4 -2 0
6027 1 7.8448514345200344e+00 5.8446331399734053e+00 1.6907884150113556e+01 3 -1 1
2622 1 7.7446322466467716e+00 5.9772304957317530e+00 1.9459918474784750e+01 5 2 1
2616 1 1.1631287218333339e+01 8.1477279816390702e+00 1.9991553709464458e+01 -1 -1 1
5806 1 2.9535625188405854e+00 9.9271206778510805e+00 1.6540436714491328e+01 2 2 0
4330 1 7.0399835760393131e-02 9.9470366661741121e+00 1.9772426634535826e+01 -1 0 1
2880 1 4.0036644696995882e+00 1.2036932907504632e+01 1.7530762837151542e+01 3 4 1
2903 1 1.3125575568375067e-01 9.7671917365816050e+00 1.6990270494525330e+01 1 0 0
4523 1 7.7969158116994750e+00 1.0043203355299415e+01 1.9907411232169395e+01 -1 1 1
93 1 7.9811569805151859e+00 1.0481315624440469e+01 1.7203556255413499e+01 0 0 0
2808 1 1.2014153025450648e+01 8.2023840223196594e+00 1.7098583573102907e+01 -3 2 0
5191 1 1.1905262444976012e+01 1.2194887494980788e+01 1.7203290307483137e+01 1 -2 0
5078 1 6.8695399341485969e-02 1.4560487590234318e+01 2.0146542376727588e+01 1 2 0
3409 1 2.6698015715077772e+00 1.4361086998041833e+01 1.6802796601259946e+01 6 1 0
3778 1 1.4266926048332301e-01 1.4111882195112441e+01 1.7328401985870673e+01 0 -4 0
1231 1 6.5919735542150768e+00 1.2667288019560356e+01 1.6713211712359097e+01 -1 -2 0
994 1 7.8806608098843780e+00 1.5075523038134751e+01 1.7111061160538910e+01 5 -1 0
273 1 7.7538237582566349e+00 1.4981993290451250e+01 1.9730164658989523e+01 1 -2 0
2585 1 1.1590772525672730e+01 1.2658263124290656e+01 1.9729604984689125e+01 2 4 1
4262 1 3.9243395242174759e+00 3.8726985025994791e+00 2.3926654411726592e+01 4 -1 1
24 1 2.6055814564977942e+00 1.2205742380394740e+00 2.3619511860777191e+01 1 -2 0
333 1 2.8306718351238005e+00 1.0796192074765349e+00 2.0846650288672024e+01 0 -1 0
2583 1 4.1185837393212132e+00 3.2143344999449872e+00 2.0387260115052065e+01 1 -1 1
324 1 6.7489893956567366e+00 3.5752938195386621e+00 2.3252814275956162e+01 1 3 0
4314 1 6.6115208907475953e+00 3.4393471858826166e+00 2.0689038762319175e+01 0 0 1
4284 1 9.8309833664935873e+00 1.7483276398969076e+00 2.3501222708276046e+01 2 0 1
38 1 1.0425764338974322e+01 1.5073392400573247e+00 2.1011336853878252e+01 1 -1 0
224 1 3.2076889842220049e+00 6.3698038031926760e+00 2.3444095689016855e+01 -1 -2 0
134 1 2.6238401973997698e+00 5.5052847644024263e+00 2.0788610478517082e+01 0 -1 1
2923 1 7.7123912574341535e-01 5.7215631168125149e+00 2.3908656449905845e+01 2 1 1
3788 1 6.1235137123483145e+00 7.8784941890854006e+00 2.3520832307111657e+01 3 -3 0
3764 1 6.3189834602133095e+00 7.8167217163605951e+00 2.0476643350982336e+01 2 -3 0
3424 1 1.0355213886345535e+01 6.0575735912736652e+00 2.3612703263584240e+01 6 3 0
4237 1 1.0412923472476349e+01 6.1586290688869569e+00 2.0877553802229869e+01 1 0 1
2181 1 3.7106088861379041e+00 9.5800653616129985e+00 2.3885095103358807e+01 -2 1 0
1130 1 2.5973731866388388e+00 9.9446332695921154e+00 2.1044986535887379e+01 1 -3 1
6026 1 6.2548031064435750e-01 1.0366440881452142e+01 2.3343720358368188e+01 0 2 1
848 1 7.7410684241594998e+00 9.9338378152485163e+00 2.3790940395963588e+01 -3 2 1
4298 1 4.1691603311617840e+00 1.2223416916175399e+01 2.3627970238150194e+01 3 2 1
1781 1 1.0390391160776073e+01 1.0294823181275071e+01 2.3346290196649356e+01 -1 -2 0
2848 1 1.0248744948565857e+01 1.0353271628866027e+01 2.0644613789873439e+01 4 1 1
2451 1 3.0234188804611839e+00 1.4430894129658526e+01 2.3583268183341850e+01 5 3 1
2124 1 2.5897978916949391e+00 1.4650911765788054e+01 2.0988462058742368e+01 -1 2 0
2441 1 4.0748014390646725e+00 1.2508620409178393e+01 2.0400628217909457e+01 -1 -2 1
2131 1 6.8023975665102094e+00 1.2406748305536299e+01 2.3886585804998766e+01 -1 2 0
3721 1 6.7591186849316500e+00 1.2632227426306557e+01 2.0811924491818591e+01 2 -2 0
4353 1 1.0169383662827812e+01 1.4771695828789174e+01 2.0920998592478096e+01 0 0 1
3463 1 1.0329584791007024e+01 1.4605887358982045e+01 2.3465684640311711e+01 5 0 0
511 2 0.0000000000000000e+00 2.8417180249513345e+00 2.6782334627130407e+01 0 0 0
512 2 0.0000000000000000e+00 0.0000000000000000e+00 2.6782334627130407e+01 0 0 0
513 2 1.2305000000000001e+00 7.1042950623783474e-01 2.6782334627130407e+01 0 0 0
517 2 1.2305000000000001e+00 2.1312885187134998e+00 2.6782334627130407e+01 0 0 0
518 2 2.4610000000000003e+00 2.8417180249513345e+00 2.6782334627130407e+01 0 0 0
519 2 2.4610000000000003e+00 0.0000000000000000e+00 2.6782334627130407e+01 0 0 0
520 2 3.6915000000000004e+00 7.1042950623783474e-01 2.6782334627130407e+01 0 0 0
528 2 3.6914999999999996e+00 2.1312885187134998e+00 2.6782334627130407e+01 0 0 0
529 2 4.9220000000000006e+00 2.8417180249513332e+00 2.6782334627130407e+01 0 0 0
530 2 4.9220000000000006e+00 0.0000000000000000e+00 2.6782334627130407e+01 0 0 0
531 2 6.1524999999999999e+00 7.1042950623783407e-01 2.6782334627130407e+01 0 0 0
543 2 6.1524999999999999e+00 2.1312885187134989e+00 2.6782334627130407e+01 0 0 0
544 2 7.3829999999999991e+00 2.8417180249513345e+00 2.6782334627130407e+01 0 0 0
545 2 7.3829999999999991e+00 0.0000000000000000e+00 2.6782334627130407e+01 0 0 0
4464 1 7.4326748757351897e+00 1.0415450949164871e+00 2.4185171042068031e+01 1 4 1
546 2 8.6134999999999984e+00 7.1042950623783407e-01 2.6782334627130407e+01 0 0 0
562 2 8.6134999999999984e+00 2.1312885187135002e+00 2.6782334627130407e+01 0 0 0
563 2 9.8440000000000012e+00 2.8417180249513332e+00 2.6782334627130407e+01 0 0 0
564 2 9.8440000000000012e+00 0.0000000000000000e+00 2.6782334627130407e+01 0 0 0
565 2 1.1074500000000002e+01 7.1042950623783330e-01 2.6782334627130407e+01 0 0 0
585 2 1.1074500000000002e+01 2.1312885187135002e+00 2.6782334627130407e+01 0 0 0
6129 1 1.1628377072210032e+01 3.8448762355283734e+00 2.4177167304072256e+01 1 0 1
514 2 0.0000000000000000e+00 7.1042950623783341e+00 2.6782334627130407e+01 0 0 0
515 2 0.0000000000000000e+00 4.2625770374269996e+00 2.6782334627130407e+01 0 0 0
516 2 1.2305000000000001e+00 4.9730065436648339e+00 2.6782334627130407e+01 0 0 0
524 2 1.2305000000000001e+00 6.3938655561404980e+00 2.6782334627130407e+01 0 0 0
525 2 2.4610000000000003e+00 7.1042950623783341e+00 2.6782334627130407e+01 0 0 0
526 2 2.4610000000000003e+00 4.2625770374269996e+00 2.6782334627130407e+01 0 0 0
527 2 3.6914999999999996e+00 4.9730065436648339e+00 2.6782334627130407e+01 0 0 0
539 2 3.6914999999999996e+00 6.3938655561404980e+00 2.6782334627130407e+01 0 0 0
540 2 4.9220000000000006e+00 7.1042950623783341e+00 2.6782334627130407e+01 0 0 0
541 2 4.9220000000000006e+00 4.2625770374269978e+00 2.6782334627130407e+01 0 0 0
542 2 6.1524999999999999e+00 4.9730065436648339e+00 2.6782334627130407e+01 0 0 0
558 2 6.1524999999999999e+00 6.3938655561404980e+00 2.6782334627130407e+01 0 0 0
559 2 7.3830000000000009e+00 7.1042950623783341e+00 2.6782334627130407e+01 0 0 0
560 2 7.3829999999999991e+00 4.2625770374269996e+00 2.6782334627130407e+01 0 0 0
6228 1 7.5855816548081565e+00 5.9835882046382345e+00 2.4374197644619276e+01 1 2 1
561 2 8.6135000000000002e+00 4.9730065436648339e+00 2.6782334627130407e+01 0 0 0
581 2 8.6135000000000002e+00 6.3938655561404980e+00 2.6782334627130407e+01 0 0 0
582 2 9.8440000000000012e+00 7.1042950623783341e+00 2.6782334627130407e+01 0 0 0
583 2 9.8440000000000012e+00 4.2625770374270004e+00 2.6782334627130407e+01 0 0 0
584 2 1.1074500000000002e+01 4.9730065436648339e+00 2.6782334627130407e+01 0 0 0
605 2 1.1074500000000002e+01 6.3938655561404980e+00 2.6782334627130407e+01 0 0 0
521 2 0.0000000000000000e+00 1.1366872099805333e+01 2.6782334627130407e+01 0 0 0
522 2 0.0000000000000000e+00 8.5251540748539991e+00 2.6782334627130407e+01 0 0 0
523 2 1.2305000000000001e+00 9.2355835810918343e+00 2.6782334627130407e+01 0 0 0
535 2 1.2305000000000001e+00 1.0656442593567498e+01 2.6782334627130407e+01 0 0 0
536 2 2.4610000000000003e+00 1.1366872099805333e+01 2.6782334627130407e+01 0 0 0
537 2 2.4610000000000003e+00 8.5251540748539991e+00 2.6782334627130407e+01 0 0 0
538 2 3.6915000000000004e+00 9.2355835810918343e+00 2.6782334627130407e+01 0 0 0
554 2 3.6914999999999996e+00 1.0656442593567499e+01 2.6782334627130407e+01 0 0 0
555 2 4.9220000000000006e+00 1.1366872099805333e+01 2.6782334627130407e+01 0 0 0
556 2 4.9220000000000006e+00 8.5251540748539991e+00 2.6782334627130407e+01 0 0 0
557 2 6.1524999999999999e+00 9.2355835810918343e+00 2.6782334627130407e+01 0 0 0
577 2 6.1524999999999999e+00 1.0656442593567499e+01 2.6782334627130407e+01 0 0 0
578 2 7.3829999999999991e+00 1.1366872099805333e+01 2.6782334627130407e+01 0 0 0
579 2 7.3830000000000009e+00 8.5251540748539991e+00 2.6782334627130407e+01 0 0 0
580 2 8.6134999999999984e+00 9.2355835810918343e+00 2.6782334627130407e+01 0 0 0
601 2 8.6134999999999984e+00 1.0656442593567498e+01 2.6782334627130407e+01 0 0 0
602 2 9.8440000000000012e+00 1.1366872099805333e+01 2.6782334627130407e+01 0 0 0
603 2 9.8440000000000012e+00 8.5251540748539956e+00 2.6782334627130407e+01 0 0 0
604 2 1.1074500000000002e+01 9.2355835810918343e+00 2.6782334627130407e+01 0 0 0
625 2 1.1074500000000002e+01 1.0656442593567498e+01 2.6782334627130407e+01 0 0 0
626 2 1.2304999999999998e+01 1.1366872099805333e+01 2.6782334627130407e+01 0 0 0
1161 1 1.1640486043474239e+01 8.2841630480010142e+00 2.4232396533634837e+01 4 2 0
6109 1 4.9408829211356231e-01 1.4569398906455069e+01 2.4612592468240251e+01 3 -2 1
532 2 0.0000000000000000e+00 1.5629449137232333e+01 2.6782334627130407e+01 0 0 0
533 2 0.0000000000000000e+00 1.2787731112280996e+01 2.6782334627130407e+01 0 0 0
534 2 1.2305000000000001e+00 1.3498160618518829e+01 2.6782334627130407e+01 0 0 0
550 2 1.2305000000000001e+00 1.4919019630994494e+01 2.6782334627130407e+01 0 0 0
551 2 2.4610000000000003e+00 1.5629449137232328e+01 2.6782334627130407e+01 0 0 0
552 2 2.4610000000000003e+00 1.2787731112280996e+01 2.6782334627130407e+01 0 0 0
553 2 3.6915000000000004e+00 1.3498160618518829e+01 2.6782334627130407e+01 0 0 0
573 2 3.6915000000000004e+00 1.4919019630994494e+01 2.6782334627130407e+01 0 0 0
574 2 4.9220000000000006e+00 1.5629449137232333e+01 2.6782334627130407e+01 0 0 0
575 2 4.9220000000000006e+00 1.2787731112280996e+01 2.6782334627130407e+01 0 0 0
576 2 6.1524999999999990e+00 1.3498160618518829e+01 2.6782334627130407e+01 0 0 0
597 2 6.1524999999999990e+00 1.4919019630994494e+01 2.6782334627130407e+01 0 0 0
598 2 7.3829999999999991e+00 1.5629449137232333e+01 2.6782334627130407e+01 0 0 0
599 2 7.3829999999999991e+00 1.2787731112280996e+01 2.6782334627130407e+01 0 0 0
6250 1 7.8704057726438759e+00 1.4690335235686968e+01 2.4591174985874947e+01 0 2 1
3473 1 1.1688100939686271e+01 1.2375980044067015e+01 2.4395389021659824e+01 3 1 1
600 2 8.6135000000000002e+00 1.3498160618518835e+01 2.6782334627130407e+01 0 0 0
621 2 8.6135000000000002e+00 1.4919019630994494e+01 2.6782334627130407e+01 0 0 0
622 2 9.8440000000000012e+00 1.5629449137232328e+01 2.6782334627130407e+01 0 0 0
623 2 9.8440000000000012e+00 1.2787731112280996e+01 2.6782334627130407e+01 0 0 0
624 2 1.1074500000000002e+01 1.3498160618518829e+01 2.6782334627130407e+01 0 0 0
642 2 1.1074500000000002e+01 1.4919019630994494e+01 2.6782334627130407e+01 0 0 0
1250 2 0.0000000000000000e+00 1.4208590124756650e+00 3.0031000000002702e+01 0 0 0
1251 2 0.0000000000000000e+00 0.0000000000000000e+00 3.0031000000002702e+01 0 0 0
1254 2 1.2305000000000001e+00 3.5521475311891644e+00 3.0031000000002702e+01 0 0 0
1255 2 1.2305000000000001e+00 2.1312885187134998e+00 3.0031000000002702e+01 0 0 0
1256 2 2.4610000000000003e+00 1.4208590124756650e+00 3.0031000000002702e+01 0 0 0
1257 2 2.4610000000000003e+00 0.0000000000000000e+00 3.0031000000002702e+01 0 0 0
1264 2 3.6914999999999996e+00 3.5521475311891644e+00 3.0031000000002702e+01 0 0 0
1265 2 3.6914999999999996e+00 2.1312885187134998e+00 3.0031000000002702e+01 0 0 0
1266 2 4.9220000000000006e+00 1.4208590124756650e+00 3.0031000000002702e+01 0 0 0
1267 2 4.9220000000000006e+00 0.0000000000000000e+00 3.0031000000002702e+01 0 0 0
1278 2 6.1524999999999999e+00 3.5521475311891644e+00 3.0031000000002702e+01 0 0 0
1279 2 6.1524999999999999e+00 2.1312885187134989e+00 3.0031000000002702e+01 0 0 0
1280 2 7.3829999999999991e+00 1.4208590124756659e+00 3.0031000000002702e+01 0 0 0
1281 2 7.3829999999999991e+00 0.0000000000000000e+00 3.0031000000002702e+01 0 0 0
1296 2 8.6134999999999984e+00 3.5521475311891657e+00 3.0031000000002702e+01 0 0 0
1297 2 8.6134999999999984e+00 2.1312885187135002e+00 3.0031000000002702e+01 0 0 0
1298 2 9.8440000000000012e+00 1.4208590124756659e+00 3.0031000000002702e+01 0 0 0
1299 2 9.8440000000000012e+00 0.0000000000000000e+00 3.0031000000002702e+01 0 0 0
1318 2 1.1074500000000002e+01 3.5521475311891644e+00 3.0031000000002702e+01 0 0 0
1319 2 1.1074500000000002e+01 2.1312885187135002e+00 3.0031000000002702e+01 0 0 0
1252 2 0.0000000000000000e+00 5.6834360499026637e+00 3.0031000000002702e+01 0 0 0
1253 2 0.0000000000000000e+00 4.2625770374269996e+00 3.0031000000002702e+01 0 0 0
1260 2 1.2305000000000001e+00 7.8147245686161639e+00 3.0031000000002702e+01 0 0 0
1261 2 1.2305000000000001e+00 6.3938655561404980e+00 3.0031000000002702e+01 0 0 0
1262 2 2.4610000000000003e+00 5.6834360499026637e+00 3.0031000000002702e+01 0 0 0
1263 2 2.4610000000000003e+00 4.2625770374269996e+00 3.0031000000002702e+01 0 0 0
1274 2 3.6914999999999996e+00 7.8147245686161639e+00 3.0031000000002702e+01 0 0 0
1275 2 3.6914999999999996e+00 6.3938655561404980e+00 3.0031000000002702e+01 0 0 0
1276 2 4.9220000000000006e+00 5.6834360499026637e+00 3.0031000000002702e+01 0 0 0
1277 2 4.9220000000000006e+00 4.2625770374269978e+00 3.0031000000002702e+01 0 0 0
1292 2 6.1524999999999999e+00 7.8147245686161639e+00 3.0031000000002702e+01 0 0 0
1293 2 6.1524999999999999e+00 6.3938655561404980e+00 3.0031000000002702e+01 0 0 0
1294 2 7.3829999999999991e+00 5.6834360499026637e+00 3.0031000000002702e+01 0 0 0
1295 2 7.3829999999999991e+00 4.2625770374269996e+00 3.0031000000002702e+01 0 0 0
1314 2 8.6135000000000002e+00 7.8147245686161639e+00 3.0031000000002702e+01 0 0 0
1315 2 8.6135000000000002e+00 6.3938655561404980e+00 3.0031000000002702e+01 0 0 0
1316 2 9.8440000000000012e+00 5.6834360499026637e+00 3.0031000000002702e+01 0 0 0
1317 2 9.8440000000000012e+00 4.2625770374270004e+00 3.0031000000002702e+01 0 0 0
1337 2 1.1074500000000002e+01 7.8147245686161639e+00 3.0031000000002702e+01 0 0 0
1338 2 1.1074500000000002e+01 6.3938655561404980e+00 3.0031000000002702e+01 0 0 0
1258 2 0.0000000000000000e+00 9.9460130873296642e+00 3.0031000000002702e+01 0 0 0
1259 2 0.0000000000000000e+00 8.5251540748539991e+00 3.0031000000002702e+01 0 0 0
1270 2 1.2305000000000001e+00 1.2077301606043163e+01 3.0031000000002702e+01 0 0 0
1271 2 1.2305000000000001e+00 1.0656442593567498e+01 3.0031000000002702e+01 0 0 0
1272 2 2.4610000000000003e+00 9.9460130873296642e+00 3.0031000000002702e+01 0 0 0
1273 2 2.4610000000000003e+00 8.5251540748539991e+00 3.0031000000002702e+01 0 0 0
1288 2 3.6914999999999996e+00 1.2077301606043163e+01 3.0031000000002702e+01 0 0 0
1289 2 3.6914999999999996e+00 1.0656442593567499e+01 3.0031000000002702e+01 0 0 0
1290 2 4.9220000000000006e+00 9.9460130873296642e+00 3.0031000000002702e+01 0 0 0
1291 2 4.9220000000000006e+00 8.5251540748539991e+00 3.0031000000002702e+01 0 0 0
1310 2 6.1524999999999999e+00 1.2077301606043163e+01 3.0031000000002702e+01 0 0 0
1311 2 6.1524999999999999e+00 1.0656442593567499e+01 3.0031000000002702e+01 0 0 0
1312 2 7.3830000000000009e+00 9.9460130873296642e+00 3.0031000000002702e+01 0 0 0
1313 2 7.3830000000000009e+00 8.5251540748539991e+00 3.0031000000002702e+01 0 0 0
1333 2 8.6135000000000002e+00 1.2077301606043163e+01 3.0031000000002702e+01 0 0 0
1334 2 8.6134999999999984e+00 1.0656442593567498e+01 3.0031000000002702e+01 0 0 0
1335 2 9.8440000000000012e+00 9.9460130873296642e+00 3.0031000000002702e+01 0 0 0
1336 2 9.8440000000000012e+00 8.5251540748539956e+00 3.0031000000002702e+01 0 0 0
1356 2 1.1074500000000002e+01 1.2077301606043163e+01 3.0031000000002702e+01 0 0 0
1357 2 1.1074500000000002e+01 1.0656442593567498e+01 3.0031000000002702e+01 0 0 0
1268 2 0.0000000000000000e+00 1.4208590124756663e+01 3.0031000000002702e+01 0 0 0
1269 2 0.0000000000000000e+00 1.2787731112280996e+01 3.0031000000002702e+01 0 0 0
1285 2 1.2305000000000001e+00 1.4919019630994494e+01 3.0031000000002702e+01 0 0 0
1286 2 2.4610000000000003e+00 1.4208590124756663e+01 3.0031000000002702e+01 0 0 0
1287 2 2.4610000000000003e+00 1.2787731112280996e+01 3.0031000000002702e+01 0 0 0
1307 2 3.6915000000000004e+00 1.4919019630994494e+01 3.0031000000002702e+01 0 0 0
1308 2 4.9220000000000006e+00 1.4208590124756663e+01 3.0031000000002702e+01 0 0 0
1309 2 4.9220000000000006e+00 1.2787731112280996e+01 3.0031000000002702e+01 0 0 0
1330 2 6.1524999999999990e+00 1.4919019630994494e+01 3.0031000000002702e+01 0 0 0
1331 2 7.3830000000000009e+00 1.4208590124756663e+01 3.0031000000002702e+01 0 0 0
1332 2 7.3829999999999991e+00 1.2787731112280996e+01 3.0031000000002702e+01 0 0 0
1373 2 1.1074500000000002e+01 1.6339878643470161e+01 3.0031000000002702e+01 0 0 0
1375 2 1.2304999999999998e+01 1.4208590124756658e+01 3.0031000000002702e+01 0 0 0
1374 2 1.1074500000000002e+01 1.4919019630994494e+01 3.0031000000002702e+01 0 0 0
1355 2 9.8440000000000012e+00 1.2787731112280996e+01 3.0031000000002702e+01 0 0 0
1353 2 8.6135000000000002e+00 1.4919019630994494e+01 3.0031000000002702e+01 0 0 0
1354 2 9.8440000000000012e+00 1.4208590124756663e+01 3.0031000000002702e+01 0 0 0
1411 2 0.0000000000000000e+00 2.8417180249513345e+00 3.3279665372846878e+01 0 0 0
1412 2 0.0000000000000000e+00 0.0000000000000000e+00 3.3279665372846878e+01 0 0 0
1413 2 1.2305000000000001e+00 7.1042950623783474e-01 3.3279665372846878e+01 0 0 0
1417 2 1.2305000000000001e+00 2.1312885187134998e+00 3.3279665372846878e+01 0 0 0
1418 2 2.4610000000000003e+00 2.8417180249513345e+00 3.3279665372846878e+01 0 0 0
1419 2 2.4610000000000003e+00 0.0000000000000000e+00 3.3279665372846878e+01 0 0 0
1420 2 3.6915000000000004e+00 7.1042950623783474e-01 3.3279665372846878e+01 0 0 0
1428 2 3.6914999999999996e+00 2.1312885187134998e+00 3.3279665372846878e+01 0 0 0
43 1 2.8190614384186614e+00 1.6137580037094397e+00 3.5614773553247531e+01 0 1 -1
1429 2 4.9220000000000006e+00 2.8417180249513332e+00 3.3279665372846878e+01 0 0 0
1430 2 4.9220000000000006e+00 0.0000000000000000e+00 3.3279665372846878e+01 0 0 0
1431 2 6.1524999999999999e+00 7.1042950623783407e-01 3.3279665372846878e+01 0 0 0
1443 2 6.1524999999999999e+00 2.1312885187134989e+00 3.3279665372846878e+01 0 0 0
1444 2 7.3829999999999991e+00 2.8417180249513345e+00 3.3279665372846878e+01 0 0 0
1445 2 7.3829999999999991e+00 0.0000000000000000e+00 3.3279665372846878e+01 0 0 0
1446 2 8.6134999999999984e+00 7.1042950623783407e-01 3.3279665372846878e+01 0 0 0
1462 2 8.6134999999999984e+00 2.1312885187135002e+00 3.3279665372846878e+01 0 0 0
1463 2 9.8440000000000012e+00 2.8417180249513332e+00 3.3279665372846878e+01 0 0 0
1464 2 9.8440000000000012e+00 0.0000000000000000e+00 3.3279665372846878e+01 0 0 0
1465 2 1.1074500000000002e+01 7.1042950623783330e-01 3.3279665372846878e+01 0 0 0
1485 2 1.1074500000000002e+01 2.1312885187135002e+00 3.3279665372846878e+01 0 0 0
5388 1 1.0458438316003559e+01 1.7802000927447368e+00 3.5599961139258255e+01 3 0 -1
1414 2 0.0000000000000000e+00 7.1042950623783341e+00 3.3279665372846878e+01 0 0 0
1415 2 0.0000000000000000e+00 4.2625770374269996e+00 3.3279665372846878e+01 0 0 0
1416 2 1.2305000000000001e+00 4.9730065436648339e+00 3.3279665372846878e+01 0 0 0
1424 2 1.2305000000000001e+00 6.3938655561404980e+00 3.3279665372846878e+01 0 0 0
1425 2 2.4610000000000003e+00 7.1042950623783341e+00 3.3279665372846878e+01 0 0 0
1426 2 2.4610000000000003e+00 4.2625770374269996e+00 3.3279665372846878e+01 0 0 0
1427 2 3.6914999999999996e+00 4.9730065436648339e+00 3.3279665372846878e+01 0 0 0
1439 2 3.6914999999999996e+00 6.3938655561404980e+00 3.3279665372846878e+01 0 0 0
4252 1 2.8440983015179104e+00 6.2737250004750855e+00 3.5856467459068881e+01 0 -1 0
1440 2 4.9220000000000006e+00 7.1042950623783341e+00 3.3279665372846878e+01 0 0 0
1441 2 4.9220000000000006e+00 4.2625770374269978e+00 3.3279665372846878e+01 0 0 0
1442 2 6.1524999999999999e+00 4.9730065436648339e+00 3.3279665372846878e+01 0 0 0