LAMMPS data file via write_data, version 16 Mar 2018, timestep = 100000

6736 atoms
2 atom types

0.0000000000000000e+00 4.9219999999999999e+01 xlo xhi
0.0000000000000000e+00 4.9019635930410494e+01 ylo yhi
8.3567079938176292e-01 5.9226329200616917e+01 zlo zhi

Masses

1 18.015
2 12.01

Atoms # atomic

4162 1 3.1742453485913553e+00 1.4933085721487918e+00 4.2932422933848802e+00 1 0 1
3846 1 9.0720179275538926e-01 2.7222666856001130e+00 3.4448601050113150e+00 0 1 1
5853 1 9.3999515175841335e+00 3.2625258523813181e+00 2.1230436253966847e+00 0 1 0
454 1 9.5590028421403854e+00 1.5621938933906545e+01 1.1872395834820439e+01 0 1 0
5506 1 2.0536665685364479e+00 1.0446388297025512e+01 4.0672840196134459e+00 1 1 0
918 1 1.0618637577041389e+01 9.7343920379436675e+00 1.0148082113609126e+01 0 1 1
5389 1 1.1001032825359042e+01 3.4186174432947447e+00 1.2289209992043764e+01 1 1 0
6156 1 3.5459664414124834e+00 1.5264997453791533e+01 9.6941938059215769e+00 0 0 1
5479 1 5.0501776026188772e+00 8.6182400643206952e-02 7.5751757501382269e+00 1 0 0
230 1 5.4184195361226557e+00 7.6787884940331725e+00 4.2233133149743551e+00 0 0 0
2570 1 6.9350054535500449e+00 4.0009839768999385e+00 3.2245526642068811e+00 0 1 1
84 1 2.2139355902518467e+00 4.7126422594876134e+00 2.0422097936774408e+00 0 1 0
94 1 9.0299875701995322e+00 1.0282505237143949e+01 5.1541209890103925e+00 -1 1 1
6234 1 1.0427312282106250e+01 5.9261791244723021e+00 3.0691178436588098e+00 0 1 1
2852 1 9.0162051325851298e+00 8.9779172108231287e-01 9.0652282215501163e+00 -1 1 1
2731 1 2.9958114758255920e+00 1.0062440956199710e+01 6.4240275431187319e+00 1 2 0
3494 1 1.1766579471193161e+00 1.3048036944649761e+01 4.2871222503440913e+00 1 0 0
408 1 6.8456251678145179e+00 1.2422166576574467e+01 5.7083985390698722e+00 0 1 1
125 1 6.1414862462969619e+00 1.2026655636647835e+01 3.1139175178521032e+00 0 0 1
982 1 4.4316067556376684e+00 1.4141126688049340e+01 2.1519759303150687e+00 1 0 0
6246 1 1.1653199692068481e+01 9.9812425249012389e+00 3.3011406905672658e+00 -1 -1 0
3539 1 7.2537813384122298e+00 1.3433705931113053e+01 9.7609564375158051e+00 0 -1 0
2653 1 5.5906514736500035e-01 3.2563404291821993e+00 6.0432036828980307e+00 0 1 1
5451 1 7.9687462848623856e+00 1.1553542661115436e+01 1.2149558383462309e+00 0 0 0
3565 1 4.5732340235063376e+00 2.8327822404988678e-01 1.0064271797947692e+01 -1 1 0
5896 1 4.3983991083285039e+00 1.0365438783914436e+00 2.0222025103890569e+00 1 1 1
2667 1 7.4286788281653644e+00 1.7799664154067169e-01 2.5867859413182730e+00 -1 0 1
882 1 1.1038133013354907e+01 1.2435190244099273e+01 7.9324435777803712e+00 0 1 1
4391 1 4.3099004153990590e+00 3.8894817362824106e+00 9.1662675373991842e+00 0 0 1
1749 1 7.2856959266221306e+00 2.0562130283219582e+00 5.1173320601666807e+00 0 2 1
2454 1 1.9590458841257619e+00 1.4275377623535267e+01 1.3230753391846677e+00 -1 1 1
1076 1 1.1584857613517846e+01 2.6617474558867649e+00 6.1883395988191383e+00 0 1 1
3417 1 8.9472888033942422e+00 2.5969850200543987e+00 7.1274146461785861e+00 1 0 0
1912 1 2.5602555534374951e+00 5.4495359465869102e+00 6.5013034537423930e+00 0 1 0
29 1 3.9261551378240451e+00 5.3169670725906988e+00 3.9265365586616920e+00 0 1 0
1911 1 5.0310273691055118e-01 7.0626029171685527e+00 8.1944145202790146e+00 0 0 0
2033 1 4.7221778559458789e+00 2.8595349591237902e+00 6.3721906172549216e+00 1 0 0
6167 1 6.6901835806001255e+00 5.2442201752275892e+00 6.3568778568439290e+00 1 0 1
6183 1 4.3082619226104191e+00 8.4229101092073009e+00 9.7777947282307949e+00 0 1 1
4594 1 2.3662256619222872e+00 5.5476718531297458e+00 9.9303516880184937e+00 0 0 0
2658 1 8.8351644496555366e+00 7.3952250032036417e+00 6.9087580694448194e+00 0 0 1
2547 1 4.6597796242766396e+00 7.7731566510339984e+00 7.1855727506590625e+00 1 1 1
2483 1 1.6351656774909566e+00 9.6639813215404118e+00 8.8431116589305176e+00 0 0 1
4123 1 4.5793071003996361e-01 6.9631187004169037e+00 2.2326285355759063e+00 0 0 1
5970 1 7.3886113792797801e+00 9.0522226032653599e+00 8.4507937978195358e+00 0 1 1
5257 1 8.7407758366953967e+00 1.5449828730477725e+01 9.5184860324771243e+00 -1 1 0
4253 1 1.0548235956507202e+01 1.5050512309571468e+01 7.8382921613458283e+00 0 0 1
1015 1 1.0219588740398295e+01 1.3044277035491380e+01 3.5617347798214256e+00 -1 1 1
5100 1 8.4824934018997311e+00 1.1321750410223105e+01 1.1607994327294753e+01 -1 0 1
5568 1 1.2113119362528790e+01 2.1361255515871114e+00 1.0277272714864312e+01 0 0 0
503 1 3.4307882276165649e+00 1.4432397809739774e+01 5.4999951228066095e+00 -1 0 0
5875 1 1.0349574441673347e+01 9.9634759641554116e-01 3.4538341959096659e+00 1 2 1
5532 1 4.3699907816511994e+00 1.2356376636097641e+01 6.7114904944166929e+00 0 0 0
302 1 5.2132026024375406e+00 1.0864379285348051e+01 1.1119664738019875e+01 2 0 1
1118 1 7.0846539738629586e+00 1.5043962215126051e+01 5.7552055380635041e+00 1 0 1
2866 1 9.4529119081275397e+00 1.5597982697236615e+01 4.9619970710158556e+00 0 0 1
5219 1 9.1904567042529770e+00 9.6535531737556646e+00 2.2173991260788002e+00 0 -1 0
196 1 2.4873840915225212e+00 1.8041949373436355e+00 1.0468042943287635e+01 1 -1 0
6008 1 6.9265534840921923e+00 4.0713345447780380e+00 1.0728880017081559e+01 1 1 1
1072 1 7.1488744115805263e+00 1.2848255192091842e+00 1.0808982941658574e+01 1 1 1
2843 1 8.4808825234356178e+00 4.8047306259611213e+00 8.6284890808288139e+00 0 1 1
842 1 5.5910774665750553e+00 6.3839757589825545e+00 1.1346316026345942e+01 1 0 0
1211 1 4.3887035859178987e+00 1.0033826761288227e+01 2.6337175781608728e+00 -1 1 1
5180 1 1.1364165852236820e+01 6.0353616603885110e+00 1.0657511042027608e+01 0 0 0
2798 1 5.2010705082591349e+00 1.6312328596914099e+01 4.0171163158875682e+00 0 0 0
365 1 8.6748815642191879e+00 7.4092246723873627e+00 1.0524509394371421e+01 0 1 0
5884 1 2.8322397839495567e-01 1.4881389139231802e+01 8.6100628895144240e+00 1 0 1
27 1 1.1318366126632323e+01 6.2483708084953760e+00 7.7579870395207609e+00 0 0 0
1162 1 7.9944189565027290e+00 6.9953994974456757e+00 3.2162703422866166e+00 0 0 1
3544 1 1.4218204099814513e+00 1.2369197410691624e+01 9.8839912852598637e+00 0 1 0
3718 1 2.2242008346717017e+00 7.8630911375592696e+00 1.1808119605792196e+01 0 1 0
6071 1 7.4430204193750915e-01 4.5519768183458581e-01 7.1244040405392610e+00 0 1 1
4397 1 4.1721088937377653e+00 1.2530611694882317e+01 9.4026215946718388e+00 -1 0 1
2177 1 8.4221235415631437e+00 1.1532996380774460e+01 7.9967675035020180e+00 0 0 0
1902 1 7.4730381376573274e-01 2.5244487381129943e-02 9.6990000735826278e+00 -1 2 1
6171 1 1.1844226417735955e+01 8.5001580070507803e+00 1.2482536254173919e+01 1 -1 1
2470 1 1.6329697506707233e+00 4.4367717821731727e+00 1.2558096122656867e+01 0 1 1
5385 1 9.0607186926235421e+00 1.0563054453860534e+00 1.8293620791304740e+01 1 1 0
4570 1 3.5492341271380217e+00 1.2012042493071455e+00 1.3236298645829502e+01 0 0 1
144 1 5.4127149623769970e+00 1.5405416585162119e+01 2.3463551388624037e+01 0 0 0
5531 1 3.6835734360876793e+00 3.7918184708512332e+00 1.4588759077296791e+01 1 1 0
5208 1 5.4040260547699370e+00 5.9211104413098274e+00 1.4078962792784397e+01 1 1 1
6176 1 7.8402955302423800e+00 8.8634787139008147e+00 1.2648501419065859e+01 0 1 1
2609 1 2.6646599391841863e+00 4.8734385004177625e+00 1.7093241424670786e+01 0 2 1
4354 1 8.7930939156030909e+00 5.1388681548103357e+00 1.2934862562161786e+01 1 0 1
236 1 7.8696469197174030e+00 1.3833787002467686e+01 2.3320816651275177e+01 -1 1 1
182 1 4.3765604575617692e-02 4.7828281227639540e+00 2.3048010742051847e+01 1 0 0
5246 1 4.0793879366682981e+00 1.2500236897681113e+01 1.3164911123463510e+01 2 0 0
2738 1 5.1917560201395485e+00 4.2323549413081507e-01 2.1760694636252726e+01 1 0 0
2655 1 2.9118446916319773e-01 1.0463806154450886e+01 1.4612141429588471e+01 -1 0 1
2456 1 3.9719138260489015e+00 2.9641387348033374e+00 2.2633929172056551e+01 0 -1 0
2142 1 9.0345330163189042e-01 8.0504769370260885e+00 1.5612482963291775e+01 1 0 0
3367 1 4.9425418854429681e+00 1.4175174598859194e+01 1.5503901879237821e+01 1 1 1
2831 1 2.1416898078799345e+00 1.5569432378102134e+01 1.4040189191032113e+01 0 0 1
3602 1 3.9080349205725682e+00 7.1350229435934072e+00 2.3731729669178677e+01 1 1 0
5515 1 6.2570303565934564e+00 7.6858672547636819e-01 1.4213248291650237e+01 -1 -1 0
3541 1 7.3886824012007857e+00 3.2306418915910262e+00 1.4437398685638644e+01 0 0 0
2811 1 6.0556566155944029e+00 5.0834007530968304e+00 1.9393279657025136e+01 0 0 0
5089 1 3.7804396236117244e+00 2.5037424652625226e+00 1.7792808589076955e+01 1 2 1
5547 1 8.4665119333949370e+00 5.0960663303421994e+00 2.1012432259884189e+01 1 0 0
363 1 1.0450016592576979e+01 1.3485717253258751e+00 1.4019290392968408e+01 -1 1 0
3865 1 3.6075219163060037e+00 7.4826894628894545e+00 1.7887199538013252e+01 1 0 1
58 1 1.1408700439218249e+01 1.6051982748828213e+01 1.5444008178955411e+01 -1 0 1
3671 1 7.3850153192601296e+00 5.0842804282570304e+00 1.6873313822076142e+01 0 0 0
4326 1 9.8395882260580514e+00 7.1107777618162658e+00 1.9699237153299439e+01 2 0 1
3753 1 1.0551529745723519e+01 6.0792322879594742e+00 1.5520505798043208e+01 2 0 0
20 1 3.3516157216935780e+00 8.0923540138870624e+00 1.4588925013410687e+01 -1 0 0
3850 1 3.9417499721762694e+00 1.0674944625030705e+01 1.5054735857694213e+01 -1 0 0
5483 1 6.3302937776502741e+00 9.6909079489797527e+00 1.5162797733480421e+01 0 0 1
283 1 1.0826626388271647e+01 1.3613281980937977e+01 2.1442009818054476e+01 0 0 0
6212 1 8.2813156718796765e+00 1.0753672441824126e+01 1.6829820025175032e+01 -1 0 1
1025 1 1.1474432973410366e+01 1.2478086273869694e+01 1.7640350516749823e+01 1 0 1
780 1 1.0180926491940376e+01 8.8101512406936262e+00 1.4739677308172935e+01 0 0 1
2430 1 1.0346102626462619e+01 1.1268932366542728e+01 1.9812499275583836e+01 0 1 1
253 1 9.6566621627805915e+00 1.3985294397609721e+01 1.5910475874579152e+01 0 0 0
5543 1 1.2004037341211932e+01 1.5715533218449469e+01 2.4125559452240061e+01 0 2 0
2538 1 2.0140428971436588e+00 1.1883330535180239e+01 1.6619813088025126e+01 0 -2 1
4609 1 2.5442284327366602e+00 1.4645360880318520e+01 1.6924648337770510e+01 0 0 1
973 1 2.3352070758938108e+00 1.0457200269542806e+01 1.9298804414538900e+01 0 0 1
3705 1 7.2785750019451836e+00 1.3387428351101978e+01 1.6966672345861245e+01 2 1 0
4360 1 1.2080369521941281e+00 1.4829370869934571e+01 2.3890544510675667e+01 0 0 1
2897 1 7.3029337154744480e+00 1.4537356695200453e+01 1.9566063574061925e+01 0 2 1
370 1 3.5057763710358838e+00 4.2928834987315474e+00 2.0557618410924402e+01 -1 0 1
4459 1 1.1019764587954917e+01 9.2489833138260042e+00 2.1604155768229898e+01 0 1 1
4288 1 4.7316347769155938e+00 1.4843043213290425e+01 2.0666174045807868e+01 2 0 1
1723 1 1.1731450668948394e+01 6.0037884944290543e+00 1.8354330543764622e+01 1 0 0
5316 1 4.2518051503503962e+00 7.3043309090221653e+00 2.0692915276631119e+01 1 0 0
5540 1 3.7780315307880541e-01 8.2250240681608240e+00 1.8458494076424561e+01 2 2 0
4395 1 9.3033388121724165e+00 2.3523824108923468e+00 2.0487531764755087e+01 0 1 0
372 1 1.2582117386111993e+00 9.8254595220184449e+00 2.3385472022902995e+01 0 -1 0
947 1 8.5195584055188789e+00 8.7086724680869096e+00 2.2579356972225906e+01 1 0 1
3543 1 5.9784760973376212e+00 7.3185914927277951e+00 1.6813847191956242e+01 0 1 1
2767 1 9.7578552951575037e-01 5.0244740078014987e+00 2.0560185735446421e+01 0 1 1
5434 1 9.7446619368625687e+00 2.7809534580133035e+00 1.6323011253000814e+01 0 0 0
6202 1 5.6169543143259268e+00 5.0391379538658070e+00 2.3860785624876918e+01 1 0 1
2122 1 6.4754981971954919e+00 9.3703586166806705e+00 2.1085271307474002e+01 1 2 0
1142 1 1.1775706839779009e+01 1.0725197435142134e+01 2.3807094012542894e+01 -1 0 1
5188 1 9.5611118408901454e+00 1.3096290233918573e+01 1.3281203817017559e+01 1 0 0
5553 1 7.9252273401993927e+00 8.9213024643040093e+00 1.8681907659782123e+01 0 -1 0
49 1 8.0931624216690423e+00 6.0802139067499636e+00 2.3536314587096197e+01 1 1 1
4304 1 1.1022544446215146e+00 2.1271410243335187e+00 2.2943415272693812e+01 1 -1 0
5987 1 9.2359798585819117e+00 1.6206617581323695e+01 2.4050825411459872e+01 0 0 1
265 1 1.1733810895676918e+01 7.5530029632348061e-02 1.8678415500850125e+01 0 0 0
3389 1 1.5941359949927363e+00 7.7701237450036826e+00 2.1181116354877016e+01 3 0 0
138 1 4.2237845067176281e+00 1.1977819183522476e+01 2.0718964070552794e+01 0 0 1
234 1 5.7575672372587521e+00 1.8262475862482355e+00 1.9234957833415656e+01 -2 0 1
275 1 7.4832752761021775e+00 1.2373577676430946e+01 2.0771618784186870e+01 0 1 0
6211 1 1.5528881018448206e+00 1.4617668755111335e+01 2.1376860509822816e+01 1 1 1
4403 1 1.1901658284187988e+01 1.9994044292837814e+00 2.0759033734645723e+01 -2 0 1
3716 1 1.1492169632253173e+01 1.4927493496509848e+01 1.8981637114022988e+01 -1 0 0
5189 1 3.1386342634556921e+00 1.1761627748282899e+01 2.3349466404052475e+01 0 0 0
1154 1 7.7286613992302193e+00 4.0869272970694259e-01 2.2018726655583762e+01 0 1 1
5877 1 1.3947764669810454e+00 1.2549022842542970e+01 1.2791087087845181e+01 0 -1 1
3669 1 6.4908004388833138e+00 1.4453086479836411e+01 1.2612031316439994e+01 2 0 0
2146 1 3.6715195853536631e-01 1.6822856640098907e+00 1.7385490259417494e+01 0 1 0
6232 1 9.6637319679403753e+00 1.8778683180736970e+00 2.3887657977543714e+01 2 0 1
4529 1 5.0842478119985959e+00 9.7090682098728660e+00 2.3915463833260620e+01 -1 1 1
3553 1 1.2076653029050892e+01 1.2598761628039412e+01 1.3343883864577730e+01 0 0 0
795 1 5.9138961106965304e-01 1.2358527270234401e+01 2.0726027178651158e+01 0 -1 0
2624 1 2.3281731930410388e-02 4.6449447575456126e+00 1.6672603632388860e+01 1 -2 1
2593 1 1.2264158580098368e+01 2.0090818687359295e+00 2.4063209670894651e+01 1 1 1
511 2 0.0000000000000000e+00 2.8417180249513345e+00 2.6813020280486612e+01 0 0 0
512 2 0.0000000000000000e+00 0.0000000000000000e+00 2.6813020280486612e+01 0 0 0
513 2 1.2305000000000001e+00 7.1042950623783474e-01 2.6813020280486612e+01 0 0 0
517 2 1.2305000000000001e+00 2.1312885187134998e+00 2.6813020280486612e+01 0 0 0
518 2 2.4610000000000003e+00 2.8417180249513345e+00 2.6813020280486612e+01 0 0 0
519 2 2.4610000000000003e+00 0.0000000000000000e+00 2.6813020280486612e+01 0 0 0
520 2 3.6915000000000004e+00 7.1042950623783474e-01 2.6813020280486612e+01 0 0 0
528 2 3.6914999999999996e+00 2.1312885187134998e+00 2.6813020280486612e+01 0 0 0
529 2 4.9220000000000006e+00 2.8417180249513332e+00 2.6813020280486612e+01 0 0 0
530 2 4.9220000000000006e+00 0.0000000000000000e+00 2.6813020280486612e+01 0 0 0
531 2 6.1524999999999999e+00 7.1042950623783407e-01 2.6813020280486612e+01 0 0 0
543 2 6.1524999999999999e+00 2.1312885187134989e+00 2.6813020280486612e+01 0 0 0
544 2 7.3829999999999991e+00 2.8417180249513345e+00 2.6813020280486612e+01 0 0 0
545 2 7.3829999999999991e+00 0.0000000000000000e+00 2.6813020280486612e+01 0 0 0
546 2 8.6134999999999984e+00 7.1042950623783407e-01 2.6813020280486612e+01 0 0 0
562 2 8.6134999999999984e+00 2.1312885187135002e+00 2.6813020280486612e+01 0 0 0
563 2 9.8440000000000012e+00 2.8417180249513332e+00 2.6813020280486612e+01 0 0 0
564 2 9.8440000000000012e+00 0.0000000000000000e+00 2.6813020280486612e+01 0 0 0
565 2 1.1074500000000002e+01 7.1042950623783330e-01 2.6813020280486612e+01 0 0 0
585 2 1.1074500000000002e+01 2.1312885187135002e+00 2.6813020280486612e+01 0 0 0
514 2 0.0000000000000000e+00 7.1042950623783341e+00 2.6813020280486612e+01 0 0 0
515 2 0.0000000000000000e+00 4.2625770374269996e+00 2.6813020280486612e+01 0 0 0
516 2 1.2305000000000001e+00 4.9730065436648339e+00 2.6813020280486612e+01 0 0 0
524 2 1.2305000000000001e+00 6.3938655561404980e+00 2.6813020280486612e+01 0 0 0
525 2 2.4610000000000003e+00 7.1042950623783341e+00 2.6813020280486612e+01 0 0 0
526 2 2.4610000000000003e+00 4.2625770374269996e+00 2.6813020280486612e+01 0 0 0
527 2 3.6914999999999996e+00 4.9730065436648339e+00 2.6813020280486612e+01 0 0 0
539 2 3.6914999999999996e+00 6.3938655561404980e+00 2.6813020280486612e+01 0 0 0
540 2 4.9220000000000006e+00 7.1042950623783341e+00 2.6813020280486612e+01 0 0 0
541 2 4.9220000000000006e+00 4.2625770374269978e+00 2.6813020280486612e+01 0 0 0
542 2 6.1524999999999999e+00 4.9730065436648339e+00 2.6813020280486612e+01 0 0 0
558 2 6.1524999999999999e+00 6.3938655561404980e+00 2.6813020280486612e+01 0 0 0
559 2 7.3830000000000009e+00 7.1042950623783341e+00 2.6813020280486612e+01 0 0 0
560 2 7.3829999999999991e+00 4.2625770374269996e+00 2.6813020280486612e+01 0 0 0
561 2 8.6135000000000002e+00 4.9730065436648339e+00 2.6813020280486612e+01 0 0 0
581 2 8.6135000000000002e+00 6.3938655561404980e+00 2.6813020280486612e+01 0 0 0
582 2 9.8440000000000012e+00 7.1042950623783341e+00 2.6813020280486612e+01 0 0 0
583 2 9.8440000000000012e+00 4.2625770374270004e+00 2.6813020280486612e+01 0 0 0
584 2 1.1074500000000002e+01 4.9730065436648339e+00 2.6813020280486612e+01 0 0 0
605 2 1.1074500000000002e+01 6.3938655561404980e+00 2.6813020280486612e+01 0 0 0
1522 2 9.8440000000000012e+00 1.5629449137232328e+01 3.3248979719515617e+01 0 0 0
521 2 0.0000000000000000e+00 1.1366872099805333e+01 2.6813020280486612e+01 0 0 0
522 2 0.0000000000000000e+00 8.5251540748539991e+00 2.6813020280486612e+01 0 0 0
523 2 1.2305000000000001e+00 9.2355835810918343e+00 2.6813020280486612e+01 0 0 0
535 2 1.2305000000000001e+00 1.0656442593567498e+01 2.6813020280486612e+01 0 0 0
536 2 2.4610000000000003e+00 1.1366872099805333e+01 2.6813020280486612e+01 0 0 0
537 2 2.4610000000000003e+00 8.5251540748539991e+00 2.6813020280486612e+01 0 0 0
538 2 3.6915000000000004e+00 9.2355835810918343e+00 2.6813020280486612e+01 0 0 0
554 2 3.6914999999999996e+00 1.0656442593567499e+01 2.6813020280486612e+01 0 0 0
555 2 4.9220000000000006e+00 1.1366872099805333e+01 2.6813020280486612e+01 0 0 0
556 2 4.9220000000000006e+00 8.5251540748539991e+00 2.6813020280486612e+01 0 0 0
557 2 6.1524999999999999e+00 9.2355835810918343e+00 2.6813020280486612e+01 0 0 0
577 2 6.1524999999999999e+00 1.0656442593567499e+01 2.6813020280486612e+01 0 0 0
578 2 7.3829999999999991e+00 1.1366872099805333e+01 2.6813020280486612e+01 0 0 0
579 2 7.3830000000000009e+00 8.5251540748539991e+00 2.6813020280486612e+01 0 0 0
580 2 8.6134999999999984e+00 9.2355835810918343e+00 2.6813020280486612e+01 0 0 0
601 2 8.6134999999999984e+00 1.0656442593567498e+01 2.6813020280486612e+01 0 0 0
602 2 9.8440000000000012e+00 1.1366872099805333e+01 2.6813020280486612e+01 0 0 0
603 2 9.8440000000000012e+00 8.5251540748539956e+00 2.6813020280486612e+01 0 0 0
604 2 1.1074500000000002e+01 9.2355835810918343e+00 2.6813020280486612e+01 0 0 0
625 2 1.1074500000000002e+01 1.0656442593567498e+01 2.6813020280486612e+01 0 0 0
626 2 1.2304999999999998e+01 1.1366872099805333e+01 2.6813020280486612e+01 0 0 0
1863 1 2.5587439091026800e+00 1.4701380247727116e+01 3.5703519213133148e+01 3 1 -1
532 2 0.0000000000000000e+00 1.5629449137232333e+01 2.6813020280486612e+01 0 0 0
533 2 0.0000000000000000e+00 1.2787731112280996e+01 2.6813020280486612e+01 0 0 0
534 2 1.2305000000000001e+00 1.3498160618518829e+01 2.6813020280486612e+01 0 0 0
550 2 1.2305000000000001e+00 1.4919019630994494e+01 2.6813020280486612e+01 0 0 0
551 2 2.4610000000000003e+00 1.5629449137232328e+01 2.6813020280486612e+01 0 0 0
552 2 2.4610000000000003e+00 1.2787731112280996e+01 2.6813020280486612e+01 0 0 0
553 2 3.6915000000000004e+00 1.3498160618518829e+01 2.6813020280486612e+01 0 0 0
573 2 3.6915000000000004e+00 1.4919019630994494e+01 2.6813020280486612e+01 0 0 0
574 2 4.9220000000000006e+00 1.5629449137232333e+01 2.6813020280486612e+01 0 0 0
575 2 4.9220000000000006e+00 1.2787731112280996e+01 2.6813020280486612e+01 0 0 0
576 2 6.1524999999999990e+00 1.3498160618518829e+01 2.6813020280486612e+01 0 0 0
597 2 6.1524999999999990e+00 1.4919019630994494e+01 2.6813020280486612e+01 0 0 0
598 2 7.3829999999999991e+00 1.5629449137232333e+01 2.6813020280486612e+01 0 0 0
599 2 7.3829999999999991e+00 1.2787731112280996e+01 2.6813020280486612e+01 0 0 0
2888 1 5.7557089510480850e+00 1.1972250054185208e+01 3.5865552112639179e+01 0 1 0
600 2 8.6135000000000002e+00 1.3498160618518835e+01 2.6813020280486612e+01 0 0 0
621 2 8.6135000000000002e+00 1.4919019630994494e+01 2.6813020280486612e+01 0 0 0
622 2 9.8440000000000012e+00 1.5629449137232328e+01 2.6813020280486612e+01 0 0 0
623 2 9.8440000000000012e+00 1.2787731112280996e+01 2.6813020280486612e+01 0 0 0
624 2 1.1074500000000002e+01 1.3498160618518829e+01 2.6813020280486612e+01 0 0 0
642 2 1.1074500000000002e+01 1.4919019630994494e+01 2.6813020280486612e+01 0 0 0
226 1 8.3045187137682728e+00 1.0937802378030288e+01 2.4359813054486025e+01 0 -1 1
1250 2 0.0000000000000000e+00 1.4208590124756650e+00 3.0030999999999505e+01 0 0 0
1251 2 0.0000000000000000e+00 0.0000000000000000e+00 3.0030999999999505e+01 0 0 0
1254 2 1.2305000000000001e+00 3.5521475311891644e+00 3.0030999999999505e+01 0 0 0
1255 2 1.2305000000000001e+00 2.1312885187134998e+00 3.0030999999999505e+01 0 0 0
1256 2 2.4610000000000003e+00 1.4208590124756650e+00 3.0030999999999505e+01 0 0 0
1257 2 2.4610000000000003e+00 0.0000000000000000e+00 3.0030999999999505e+01 0 0 0
1264 2 3.6914999999999996e+00 3.5521475311891644e+00 3.0030999999999505e+01 0 0 0
1265 2 3.6914999999999996e+00 2.1312885187134998e+00 3.0030999999999505e+01 0 0 0
1266 2 4.9220000000000006e+00 1.4208590124756650e+00 3.0030999999999505e+01 0 0 0
1267 2 4.9220000000000006e+00 0.0000000000000000e+00 3.0030999999999505e+01 0 0 0
1278 2 6.1524999999999999e+00 3.5521475311891644e+00 3.0030999999999505e+01 0 0 0
1279 2 6.1524999999999999e+00 2.1312885187134989e+00 3.0030999999999505e+01 0 0 0
1280 2 7.3829999999999991e+00 1.4208590124756659e+00 3.0030999999999505e+01 0 0 0
1281 2 7.3829999999999991e+00 0.0000000000000000e+00 3.0030999999999505e+01 0 0 0
1296 2 8.6134999999999984e+00 3.5521475311891657e+00 3.0030999999999505e+01 0 0 0
1297 2 8.6134999999999984e+00 2.1312885187135002e+00 3.0030999999999505e+01 0 0 0
1298 2 9.8440000000000012e+00 1.4208590124756659e+00 3.0030999999999505e+01 0 0 0
1299 2 9.8440000000000012e+00 0.0000000000000000e+00 3.0030999999999505e+01 0 0 0
1318 2 1.1074500000000002e+01 3.5521475311891644e+00 3.0030999999999505e+01 0 0 0
1319 2 1.1074500000000002e+01 2.1312885187135002e+00 3.0030999999999505e+01 0 0 0
1252 2 0.0000000000000000e+00 5.6834360499026637e+00 3.0030999999999505e+01 0 0 0
1253 2 0.0000000000000000e+00 4.2625770374269996e+00 3.0030999999999505e+01 0 0 0
1260 2 1.2305000000000001e+00 7.8147245686161639e+00 3.0030999999999505e+01 0 0 0
1261 2 1.2305000000000001e+00 6.3938655561404980e+00 3.0030999999999505e+01 0 0 0
1262 2 2.4610000000000003e+00 5.6834360499026637e+00 3.0030999999999505e+01 0 0 0
1263 2 2.4610000000000003e+00 4.2625770374269996e+00 3.0030999999999505e+01 0 0 0
1274 2 3.6914999999999996e+00 7.8147245686161639e+00 3.0030999999999505e+01 0 0 0
1275 2 3.6914999999999996e+00 6.3938655561404980e+00 3.0030999999999505e+01 0 0 0
1276 2 4.9220000000000006e+00 5.6834360499026637e+00 3.0030999999999505e+01 0 0 0
1277 2 4.9220000000000006e+00 4.2625770374269978e+00 3.0030999999999505e+01 0 0 0
1292 2 6.1524999999999999e+00 7.8147245686161639e+00 3.0030999999999505e+01 0 0 0
1293 2 6.1524999999999999e+00 6.3938655561404980e+00 3.0030999999999505e+01 0 0 0
1294 2 7.3829999999999991e+00 5.6834360499026637e+00 3.0030999999999505e+01 0 0 0
1295 2 7.3829999999999991e+00 4.2625770374269996e+00 3.0030999999999505e+01 0 0 0
1314 2 8.6135000000000002e+00 7.8147245686161639e+00 3.0030999999999505e+01 0 0 0
1315 2 8.6135000000000002e+00 6.3938655561404980e+00 3.0030999999999505e+01 0 0 0
1316 2 9.8440000000000012e+00 5.6834360499026637e+00 3.0030999999999505e+01 0 0 0
1317 2 9.8440000000000012e+00 4.2625770374270004e+00 3.0030999999999505e+01 0 0 0
1337 2 1.1074500000000002e+01 7.8147245686161639e+00 3.0030999999999505e+01 0 0 0
1338 2 1.1074500000000002e+01 6.3938655561404980e+00 3.0030999999999505e+01 0 0 0
1258 2 0.0000000000000000e+00 9.9460130873296642e+00 3.0030999999999505e+01 0 0 0
1259 2 0.0000000000000000e+00 8.5251540748539991e+00 3.0030999999999505e+01 0 0 0
1270 2 1.2305000000000001e+00 1.2077301606043163e+01 3.0030999999999505e+01 0 0 0
1271 2 1.2305000000000001e+00 1.0656442593567498e+01 3.0030999999999505e+01 0 0 0
1272 2 2.4610000000000003e+00 9.9460130873296642e+00 3.0030999999999505e+01 0 0 0
1273 2 2.4610000000000003e+00 8.5251540748539991e+00 3.0030999999999505e+01 0 0 0
1288 2 3.6914999999999996e+00 1.2077301606043163e+01 3.0030999999999505e+01 0 0 0
1289 2 3.6914999999999996e+00 1.0656442593567499e+01 3.0030999999999505e+01 0 0 0
1290 2 4.9220000000000006e+00 9.9460130873296642e+00 3.0030999999999505e+01 0 0 0
1291 2 4.9220000000000006e+00 8.5251540748539991e+00 3.0030999999999505e+01 0 0 0
1310 2 6.1524999999999999e+00 1.2077301606043163e+01 3.0030999999999505e+01 0 0 0
1311 2 6.1524999999999999e+00 1.0656442593567499e+01 3.0030999999999505e+01 0 0 0
1312 2 7.3830000000000009e+00 9.9460130873296642e+00 3.0030999999999505e+01 0 0 0
1313 2 7.3830000000000009e+00 8.5251540748539991e+00 3.0030999999999505e+01 0 0 0
1333 2 8.6135000000000002e+00 1.2077301606043163e+01 3.0030999999999505e+01 0 0 0
1334 2 8.6134999999999984e+00 1.0656442593567498e+01 3.0030999999999505e+01 0 0 0
1335 2 9.8440000000000012e+00 9.9460130873296642e+00 3.0030999999999505e+01 0 0 0
1336 2 9.8440000000000012e+00 8.5251540748539956e+00 3.0030999999999505e+01 0 0 0
1356 2 1.1074500000000002e+01 1.2077301606043163e+01 3.0030999999999505e+01 0 0 0
1357 2 1.1074500000000002e+01 1.0656442593567498e+01 3.0030999999999505e+01 0 0 0
1268 2 0.0000000000000000e+00 1.4208590124756663e+01 3.0030999999999505e+01 0 0 0
1269 2 0.0000000000000000e+00 1.2787731112280996e+01 3.0030999999999505e+01 0 0 0
1285 2 1.2305000000000001e+00 1.4919019630994494e+01 3.0030999999999505e+01 0 0 0
1286 2 2.4610000000000003e+00 1.4208590124756663e+01 3.0030999999999505e+01 0 0 0
1287 2 2.4610000000000003e+00 1.2787731112280996e+01 3.0030999999999505e+01 0 0 0
1307 2 3.6915000000000004e+00 1.4919019630994494e+01 3.0030999999999505e+01 0 0 0
1308 2 4.9220000000000006e+00 1.4208590124756663e+01 3.0030999999999505e+01 0 0 0
1309 2 4.9220000000000006e+00 1.2787731112280996e+01 3.0030999999999505e+01 0 0 0
1330 2 6.1524999999999990e+00 1.4919019630994494e+01 3.0030999999999505e+01 0 0 0
1331 2 7.3830000000000009e+00 1.4208590124756663e+01 3.0030999999999505e+01 0 0 0
1332 2 7.3829999999999991e+00 1.2787731112280996e+01 3.0030999999999505e+01 0 0 0
1375 2 1.2304999999999998e+01 1.4208590124756658e+01 3.0030999999999505e+01 0 0 0
1373 2 1.1074500000000002e+01 1.6339878643470161e+01 3.0030999999999505e+01 0 0 0
1353 2 8.6135000000000002e+00 1.4919019630994494e+01 3.0030999999999505e+01 0 0 0
1354 2 9.8440000000000012e+00 1.4208590124756663e+01 3.0030999999999505e+01 0 0 0
1355 2 9.8440000000000012e+00 1.2787731112280996e+01 3.0030999999999505e+01 0 0 0
1374 2 1.1074500000000002e+01 1.4919019630994494e+01 3.0030999999999505e+01 0 0 0
1411 2 0.0000000000000000e+00 2.8417180249513345e+00 3.3248979719515617e+01 0 0 0
1412 2 0.0000000000000000e+00 0.0000000000000000e+00 3.3248979719515617e+01 0 0 0
1413 2 1.2305000000000001e+00 7.1042950623783474e-01 3.3248979719515617e+01 0 0 0
1417 2 1.2305000000000001e+00 2.1312885187134998e+00 3.3248979719515617e+01 0 0 0
1418 2 2.4610000000000003e+00 2.8417180249513345e+00 3.3248979719515617e+01 0 0 0
1419 2 2.4610000000000003e+00 0.0000000000000000e+00 3.3248979719515617e+01 0 0 0
1420 2 3.6915000000000004e+00 7.1042950623783474e-01 3.3248979719515617e+01 0 0 0
1428 2 3.6914999999999996e+00 2.1312885187134998e+00 3.3248979719515617e+01 0 0 0
1542 2 1.1074500000000002e+01 1.4919019630994494e+01 3.3248979719515617e+01 0 0 0
1429 2 4.9220000000000006e+00 2.8417180249513332e+00 3.3248979719515617e+01 0 0 0
1430 2 4.9220000000000006e+00 0.0000000000000000e+00 3.3248979719515617e+01 0 0 0
1431 2 6.1524999999999999e+00 7.1042950623783407e-01 3.3248979719515617e+01 0 0 0
1443 2 6.1524999999999999e+00 2.1312885187134989e+00 3.3248979719515617e+01 0 0 0
1444 2 7.3829999999999991e+00 2.8417180249513345e+00 3.3248979719515617e+01 0 0 0
1445 2 7.3829999999999991e+00 0.0000000000000000e+00 3.3248979719515617e+01 0 0 0
1446 2 8.6134999999999984e+00 7.1042950623783407e-01 3.3248979719515617e+01 0 0 0
1462 2 8.6134999999999984e+00 2.1312885187135002e+00 3.3248979719515617e+01 0 0 0
1463 2 9.8440000000000012e+00 2.8417180249513332e+00 3.3248979719515617e+01 0 0 0
1464 2 9.8440000000000012e+00 0.0000000000000000e+00 3.3248979719515617e+01 0 0 0
1465 2 1.1074500000000002e+01 7.1042950623783330e-01 3.3248979719515617e+01 0 0 0
1485 2 1.1074500000000002e+01 2.1312885187135002e+00 3.3248979719515617e+01 0 0 0
1523 2 9.8440000000000012e+00 1.2787731112280996e+01 3.3248979719515617e+01 0 0 0
1414 2 0.0000000000000000e+00 7.1042950623783341e+00 3.3248979719515617e+01 0 0 0
1415 2 0.0000000000000000e+00 4.2625770374269996e+00 3.3248979719515617e+01 0 0 0
1416 2 1.2305000000000001e+00 4.9730065436648339e+00 3.3248979719515617e+01 0 0 0
1424 2 1.2305000000000001e+00 6.3938655561404980e+00 3.3248979719515617e+01 0 0 0
1425 2 2.4610000000000003e+00 7.1042950623783341e+00 3.3248979719515617e+01 0 0 0
1426 2 2.4610000000000003e+00 4.2625770374269996e+00 3.3248979719515617e+01 0 0 0
1427 2 3.6914999999999996e+00 4.9730065436648339e+00 3.3248979719515617e+01 0 0 0
1439 2 3.6914999999999996e+00 6.3938655561404980e+00 3.3248979719515617e+01 0 0 0
1440 2 4.9220000000000006e+00 7.1042950623783341e+00 3.3248979719515617e+01 0 0 0
1441 2 4.9220000000000006e+00 4.2625770374269978e+00 3.3248979719515617e+01 0 0 0
1442 2 6.1524999999999999e+00 4.9730065436648339e+00 3.3248979719515617e+01 0 0 0
1458 2 6.1524999999999999e+00 6.3938655561404980e+00 3.3248979719515617e+01 0 0 0
1459 2 7.3830000000000009e+00 7.1042950623783341e+00 3.3248979719515617e+01 0 0 0
1460 2 7.3829999999999991e+00 4.2625770374269996e+00 3.3248979719515617e+01 0 0 0
1461 2 8.6135000000000002e+00 4.9730065436648339e+00 3.3248979719515617e+01 0 0 0
1481 2 8.6135000000000002e+00 6.3938655561404980e+00 3.3248979719515617e+01 0 0 0
1482 2 9.8440000000000012e+00 7.1042950623783341e+00 3.3248979719515617e+01 0 0 0
1483 2 9.8440000000000012e+00 4.2625770374270004e+00 3.3248979719515617e+01 0 0 0