LAMMPS data file via write_data, version 29 Oct 2020, timestep = 300623

2204 atoms
1 atom types

0.0 49.22 xlo xhi
0.0 49.019635930410494 ylo yhi
-0.30163406989442265 28.241634069894246 zlo zhi

Masses

1 18.015

Atoms # atomic

1500 1 1.125140974147642 15.421992680242374 -0.050680858405979044 1 0 0
2047 1 0.2675225522422326 22.245981659411306 11.887617164820767 1 1 1
2165 1 6.367416921544594 2.4872620846248332 1.9502826163642784 1 1 1
2097 1 15.402047498814861 15.29280876042936 1.2955466818626782 1 0 1
959 1 14.628522162483279 1.3218714587659814 -0.13764128458987235 0 0 1
531 1 0.8915912298486374 6.654638408450317 2.1180866308076007 0 1 0
504 1 15.229025711366594 6.243103780761987 12.855524881687618 0 0 0
128 1 2.8933186547256193 5.048257161377486 1.3353320524140833 0 0 0
372 1 4.914306661489721 4.515414766451225 3.1011121642027373 0 1 0
1031 1 11.279581268740433 4.763517967907186 1.2518919281492156 0 1 1
464 1 10.715071672779956 2.3019346023544656 2.87784349205612 0 1 0
33 1 15.405991128819732 3.981607698821589 1.6120618069323902 -1 0 0
865 1 2.760694029731534 8.142291477125502 3.89867662550665 0 0 0
130 1 5.200220255017943 8.611899380527603 2.728348992623588 0 0 0
757 1 7.061149811136351 6.282917413951783 3.1405628836420587 0 0 1
1446 1 9.424930304272795 6.728201044751672 1.73267115766652 1 0 0
485 1 5.912439108386545 10.828337871443212 4.5067798983778005 0 0 0
926 1 11.099892117746858 8.929510062693275 2.1589767437123597 0 0 0
156 1 14.0839991641783 9.356381904567087 2.840489721743189 0 0 0
521 1 14.134611445872935 17.69207678238116 -0.09836155830552437 0 0 1
282 1 12.499765335180705 0.49220078934376177 1.7015933097971363 0 1 1
1693 1 5.787685814830047 13.250445055693287 2.874099244535318 1 0 1
1068 1 10.648035023572014 11.588327428623108 0.6914995147810817 0 0 1
929 1 16.385838573999685 21.733566647069246 7.806786673727162 0 0 -1
1259 1 9.412719732985497 13.095474009996225 3.1660118166108484 0 0 0
264 1 11.123101929593188 15.095377037359764 2.4501195862962586 0 0 0
1968 1 14.127217150056287 12.174438895956913 3.359118195841201 1 1 1
112 1 3.0266472825568096 16.530180545300443 1.7433917908400702 0 0 0
345 1 5.2609414300539195 14.885929145546221 0.29632531502285936 0 0 0
173 1 5.180274668943667 18.08937770789163 0.9235124459978384 0 0 0
748 1 9.683976240779302 16.846639422846884 3.841604392434479 1 0 0
1493 1 9.318768365896679 18.42403801845341 12.887503402818453 0 0 0
876 1 11.195439014614879 16.937272785946607 0.46135094944126426 0 0 0
2064 1 1.3661324450204635 18.968861740358747 1.845084564491031 1 0 0
938 1 8.112925346838614 20.130052390648707 -0.030666876354366695 0 0 1
1662 1 9.943882731789362 18.986321581539833 2.1166471266072024 0 0 1
731 1 11.71689747083261 20.804313581063603 2.9154751610300376 0 0 -1
920 1 1.5164676622341924 2.503809990803601 1.1483086401039548 1 1 0
752 1 13.993109251553559 20.08803080138218 1.2356280305730454 0 0 0
2104 1 15.606888866686758 24.101599543721065 2.4313728257046066 0 1 1
1436 1 0.7337904775873487 0.36649713870328104 9.71899593629483 0 1 1
1854 1 11.248037820672696 23.210640672443386 1.6604683133627989 1 0 0
1862 1 1.8231013656364785 2.2602537328388665 4.19276115582096 1 1 0
581 1 3.8835303488054387 2.6607270648015175 6.215083886147282 0 1 0
906 1 2.736643354053268 23.35078580489295 8.184514750524071 0 0 1
1913 1 7.844367962060275 0.6059975696998987 6.203742448440332 1 0 0
1358 1 8.335758915803 0.807084914115889 3.406380609870751 0 1 1
904 1 16.364843525605863 6.213795827447641 5.7577619356905565 0 0 1
945 1 9.422511870192944 0.6273820669555011 13.128813811686324 1 0 0
1123 1 5.282165444960056 5.195095071699602 5.899765121887919 0 0 0
2096 1 11.915797293533206 3.4846446109004874 5.056351684756104 0 1 1
723 1 2.9543935086501074 6.73421472961059 6.301932142799956 0 0 0
1171 1 3.8328552322925598 10.582671882616019 6.272656693446538 0 1 -1
2010 1 7.772427000264112 6.712748378425827 5.92814760636238 1 1 0
985 1 10.089543467788033 5.2529666616741615 6.461172825734038 0 0 0
1370 1 12.051277551028729 7.6865309740448815 6.116078834132299 0 0 0
1727 1 13.471383531396848 4.887931813490047 3.036171074176995 1 0 1
548 1 14.160033383867466 7.154031457308093 4.444887178234386 0 1 1
28 1 0.34122427400745636 13.779601402498962 4.804435053213056 0 0 0
210 1 7.554265007606676 12.928879080032166 0.6641994083954881 0 0 0
1969 1 1.4083086808432854 10.648818420053365 4.621634260357538 1 1 1
24 1 7.547670497113709 9.392362175383916 6.316042890105205 0 0 -2
1078 1 10.325033400924863 9.367254833587399 5.002564567340224 0 0 0
705 1 2.643731310018194 12.522823531711301 2.636806612595037 0 1 1
761 1 15.710724909615033 5.468016824179565 8.550181111801239 0 0 -1
800 1 10.617749084797298 12.075635339144627 5.5303854797785466 0 0 0
937 1 13.164457064383694 13.649800571649074 6.0270624762054785 0 0 0
652 1 3.677040798094283 14.984324708349039 4.266685256240948 0 0 0
1767 1 1.4134750323088683 16.51463532105062 5.30134352096103 1 0 1
877 1 7.284800494484147 15.495358553353228 4.214876082879379 0 0 1
998 1 11.181952328909503 18.072119534206735 5.910620693514198 0 0 1
352 1 11.789388350484158 15.969465445056517 7.581031898474867 0 0 1
1846 1 13.520760287571921 15.319539984088452 3.4671890476976506 1 1 1
803 1 11.843478832290925 22.095574195482417 13.02034675627115 0 0 0
879 1 13.053774393558822 13.2380718846996 0.634484013385455 0 0 0
1313 1 5.6550105905692565 17.568913080873877 3.798698271759716 0 0 0
433 1 7.132617807410181 19.870355182590536 3.2738726374324414 0 1 0
1231 1 9.721031427489812 20.787569512272555 5.930458575922322 0 0 1
1215 1 13.471766225061106 18.237273758680004 4.259900512692955 0 0 0
590 1 2.9962314201904143 20.924125335481747 3.6429097896793468 0 0 1
1749 1 5.14984421642135 21.116632620848968 1.4555210761749948 1 0 1
2159 1 12.828974834797418 23.157288440827827 9.777475256343953 0 0 1
1547 1 7.665885445070359 22.457916862158 4.790567653377601 1 0 1
1970 1 12.387615119385073 21.680616346813615 5.518567922944341 1 0 0
1898 1 3.3646598835500074 22.014153514886402 11.902289258650173 1 0 0
1416 1 4.452211602261964 20.40114174652288 13.896924853239879 0 0 1
639 1 15.90959034273099 14.508705841809807 13.825548432860284 0 0 0
565 1 2.366052206354751 2.428413370128984 8.50848376118848 0 1 0
824 1 5.838187748902413 4.866948370950408 10.252348205960576 0 0 0
2031 1 3.1576220590867723 4.404983741180403 10.638721045624465 1 1 0
880 1 7.094861817946656 2.3645571800471887 9.285762867914638 1 0 0
783 1 7.270291281637877 3.1571026482737463 6.54996674220494 0 0 -1
455 1 12.900643345522958 1.6558712638341497 7.128523541045442 0 1 1
969 1 13.438559892986163 3.9421794452158103 8.661967479463167 0 0 0
750 1 0.44114738740171444 6.04584543024298 6.786373971886005 1 0 0
2041 1 1.724566440362985 6.574532827351343 9.309945215529966 1 1 -1
662 1 3.9550129907620764 8.655931694921103 8.448697715520492 0 0 0
296 1 6.378802764576436 7.339703865120437 8.517897767917447 0 0 1
1895 1 10.823849988462955 5.118549011713002 9.158716800268685 1 1 0
1819 1 11.480908306489797 7.385685674024707 10.492548357370067 1 0 0
437 1 2.8553917157689757 13.083152765098555 6.911230076142915 0 1 0
594 1 7.5686423910399006 10.413065059730366 8.846030383669591 0 0 1
526 1 11.95304478745288 10.924881455635749 9.45233124814951 0 1 0
1330 1 12.893298624798282 8.46969344486902 8.515802984765521 0 0 0
66 1 14.988683331851144 11.953908002300897 7.471395399423057 0 0 0
379 1 1.0976222421928588 12.82733863189751 9.16456787004804 1 0 0
20 1 5.758540762192706 12.041658580662357 10.399046921922553 0 0 -1
1167 1 9.769487670141395 12.049747152468305 8.049739423708623 0 1 -1
1285 1 13.973775075313856 12.41443455878425 10.305288786569877 1 0 1
2009 1 0.753384167556781 16.537998539386326 8.091341373259972 1 0 0
742 1 2.0542214417526465 8.17651823918092 13.718157354461793 1 0 -1
988 1 4.599476113221807 14.447388886562866 8.676648737311316 0 -1 0
188 1 6.770330658326918 15.689847776842004 7.381133864854723 0 0 0
439 1 9.202032181551147 14.5582150433541 8.265372600104602 0 0 1
1826 1 13.083654323251887 17.58309977817617 9.324960617517206 0 0 -1
353 1 15.663927295118716 16.466500333366113 9.563378418370554 0 0 -1
206 1 1.4115080941701286 20.17382784248605 7.932407971422442 0 0 0
2049 1 14.587450354869405 18.769650826882074 12.989595090683055 0 1 0
49 1 3.528071463605833 18.867316655530527 5.266434133916141 0 0 0
1294 1 4.215349461020256 19.16986634185001 8.057847177768924 0 0 0
840 1 7.08801821159101 18.107901371141082 8.797997503537532 0 0 0
1514 1 8.8485957339504 20.486374371846047 8.75645860286592 1 0 1
1874 1 14.004127792676783 19.82298274748631 7.217813454134899 1 0 1
13 1 15.456773315806366 22.75497776008039 10.439945434992536 0 0 0
1915 1 4.729351297651885 21.94826906471468 9.404479125252557 0 1 0
1041 1 2.8661481366094774 23.24441980047557 5.455162085195726 0 0 0
1195 1 7.752198295033879 22.746701641432317 9.938984849226808 0 0 0
612 1 0.7697492470377121 1.1728910235873142 12.988962113295592 0 1 0
124 1 12.586901571587664 24.13257489400082 7.106373852827637 0 0 0
147 1 5.440931492605855 24.295820139165475 5.358455640626694 0 0 0
427 1 2.7492727780384643 24.381290502329897 1.6812287752208068 0 0 -1
711 1 4.446428576035834 0.81149356049535 9.936236979828891 1 0 0
2057 1 14.923045709030198 16.212235510164852 6.631887728160946 0 0 1
1700 1 10.449965797689641 0.6532035498358594 10.66687194860325 1 0 1
1917 1 14.329289170943495 1.2737920410322194 12.874782739833575 0 1 0
1353 1 11.66132183537031 6.831814284242147 13.70214313676299 0 0 1
2199 1 2.7611802119380804 3.867640374899865 13.302847960721472 1 1 0
61 1 9.590901052407313 3.3731707462350182 10.802237880662922 0 0 -1
806 1 13.743795933466759 3.904992039806541 11.57230066952785 0 0 -1
1532 1 0.37837464093018325 7.596745408464507 11.511387187687077 1 0 0
1687 1 16.179494789196024 8.528982434890402 0.8749641378811559 1 0 1
541 1 7.255941422742115 4.698973744531331 12.407437244142676 0 1 1
226 1 0.9637728298111765 22.204125973592184 2.053699727107677 0 0 0
789 1 11.268732800395286 3.9587168438745177 12.898527581448613 0 0 -1
1537 1 4.528677302431694 8.72559815684317 0.19228923767977213 1 0 0
255 1 15.1386283216765 0.4813475382380163 5.9708694845692225 0 0 1
109 1 10.228374432595391 23.78126002849528 11.212177389334403 0 -1 0
397 1 3.9640419505125113 10.102443924520161 11.153464166871835 0 1 1
1751 1 8.622684819524938 8.19360765971814 10.37459283949723 0 0 0
961 1 7.758523063735179 7.45923166931385 13.028168037270676 1 0 0
1152 1 10.291365235959029 10.362480795377088 11.402923826274368 0 0 -1
129 1 5.285526065886749 18.093027635017837 12.648517733641814 0 0 -1
2139 1 14.67157791891938 10.619814965589844 12.322633977246898 0 0 0
211 1 0.11474890437386279 13.053337996575403 1.5714280848263487 0 0 1
644 1 1.614462682580399 11.699613739322396 11.586639485071217 0 1 1
601 1 4.179040564618241 15.265038261161871 12.457740551526618 0 0 0
114 1 6.477294023166185 13.77446484937922 12.488192005147454 0 0 -1
543 1 9.269127964000578 12.702715911969737 12.840301973196123 0 0 0
307 1 14.571062735845318 14.76213190234551 11.435596178328382 0 0 1
1128 1 2.4715883617767314 15.386366075619401 10.387112251357266 0 0 -1
1833 1 7.409736771949869 16.944718855053914 11.286674228818184 1 0 0
120 1 9.356907467089817 14.721058504811584 10.960429678880937 0 0 0
349 1 11.973633425874768 15.872637312226608 11.703649298604413 0 1 0
380 1 0.7289292122269095 19.62174144445571 10.90174942773582 0 0 0
311 1 3.415390307852619 18.095590567344413 10.734027982871403 0 0 0
354 1 4.784660006851512 8.426539690027548 13.331135263497384 0 0 -1
1766 1 12.114748619045608 19.37976410902088 11.790370372037447 1 0 0
494 1 11.836759406775734 20.69093177703943 9.195183241540603 0 0 0
714 1 5.3920070180743895 23.793104233992448 2.42016304770897 0 0 1
512 1 15.487942363503972 8.154292573772612 9.044385475275117 0 1 -1
251 1 4.908939741063258 0.22881137122508013 5.999806626931959 0 0 1
392 1 12.038936054728934 9.765581131419706 13.151395807797376 0 1 0
778 1 7.4743427146313115 24.322697783996585 7.610365249845131 0 -1 0
1467 1 8.661327834579824 22.756648299384878 0.009859094625040714 1 0 0
1015 1 15.890743722624359 24.491146092904422 7.525977657458398 0 0 0
1594 1 0.6084076936069469 2.830805778904708 16.85443569654406 1 1 0
1844 1 2.95630221336511 1.2589417854311284 17.069802204559178 1 0 -1
1973 1 0.4539179362837314 23.147203192556415 17.781196248447586 1 0 -2
677 1 1.2337569405311675 16.203251228487204 18.356292541204294 0 1 0
369 1 15.84582366430785 22.5352690625917 27.77559725970957 -1 0 -1
1558 1 12.960547101408043 1.8981623240814653 17.480995978265167 0 0 0
59 1 6.126856107405276 2.898951711933212 15.672961016330982 0 0 0
223 1 5.87924840422445 1.0507871046923034 17.84546051044862 0 0 0
2022 1 11.730547192251267 4.090375347787359 16.23436193101895 1 1 0
435 1 11.980375615705798 1.458223466416022 14.538109177925252 0 1 -1
1831 1 14.876894009688572 4.602499297272536 17.850770530980476 1 0 1
1957 1 5.484097073572621 5.807793212630651 17.13304815059887 1 1 -1
141 1 9.444811863417389 7.394482096419309 15.320889995424336 0 0 0
1757 1 13.781165720249392 6.20343644365056 15.488071231916413 0 0 1
1087 1 1.6717440815997338 9.939065298096901 15.737645041224281 1 0 0
136 1 3.8387524830592876 9.721734063211391 17.054474138236376 0 1 -1
422 1 5.732585375328786 10.161227419818724 15.43220268520744 0 0 0
627 1 3.9523278533015826 1.3648071561349204 14.51619756730163 0 1 0
574 1 9.218340531719683 20.78769927717468 14.128666417654612 0 0 0
2016 1 11.232479294406259 12.727668805388756 16.86382600866973 1 1 -1
142 1 12.69941289102359 10.626257843308784 15.774125767857791 0 0 0
148 1 3.799268317711352 14.3215312103503 15.186621108303887 0 0 -1
277 1 5.983291778238488 12.924905967591087 14.954409947282905 0 0 0
977 1 7.805762132988495 14.070216902684097 16.532950662048 1 0 0
327 1 9.987887528787171 14.246185067241802 15.101699330652966 0 0 0
492 1 0.8381216339983194 5.1635932409077805 25.081200914819657 0 1 0
878 1 2.8512138249509316 18.50916921797283 17.30505375313098 0 0 -1
1648 1 0.16144116250214166 18.294854662521978 25.74071358321019 1 0 0
1498 1 4.379403659134386 17.224254093704584 15.453783810290677 1 0 0
227 1 12.192937778570563 17.472735272107062 16.53134732971368 0 0 1
356 1 7.394529337073206 3.6989549626416762 28.19163336062273 0 1 0
1945 1 15.534445078003541 0.31957098262766503 17.907147930940038 0 0 -1
2179 1 14.682967199108303 18.27819002572337 15.743315975760257 1 0 0
1243 1 2.3605138234511234 20.896844041965384 15.668207867372454 1 0 -1
1000 1 10.955602776162582 16.832642575976724 14.223708660677245 0 0 1
1406 1 15.321584731116841 20.633298082397452 16.739782540728203 0 0 1
209 1 6.790869347134038 21.611639333080095 14.804901650531544 0 0 1
2033 1 9.335881350017164 14.75913265308108 27.992576681765225 0 0 0
1485 1 1.7604908645007988 6.0576207210952795 15.085684459159637 1 1 -1
708 1 0.16600407848246768 20.34796289291599 17.910640502719943 0 0 0
1405 1 0.4447942514899787 11.606444801153469 27.429982329251064 0 1 -1
302 1 2.138202819547688 15.36261209686016 22.896741225241026 0 0 0
1413 1 4.277961089094693 2.8988529773690295 20.85858668164668 0 1 0
542 1 15.349915244173397 18.69737017294125 25.856109738162196 0 0 -1
2145 1 11.301831010884268 1.5214314527276471 19.652785320558415 1 1 -2
563 1 13.578367906730142 20.066228510603214 24.49839988665102 0 1 1
625 1 4.946086212096771 5.306208720780468 14.237329079488644 0 1 1
784 1 3.896290117325827 3.826866564419627 18.12944433385059 0 0 -2
1820 1 15.004933235725728 22.92496302166796 24.980293169459266 0 0 1
2054 1 7.048235701294565 2.3190023943406954 20.204440745033498 1 2 -1
108 1 7.689128032030232 4.826322755313559 19.08281562962811 0 0 -1
88 1 14.880808153487953 16.122958624182125 24.644734868478587 0 0 -1
1610 1 3.6227743616369685 7.297036332233693 18.28508137044229 1 1 0
488 1 3.8319093470558476 8.438411222964572 20.762396480826016 0 0 -1
1758 1 7.231026951600403 8.291237046665334 16.829949909041268 1 0 0
1392 1 9.947023456917142 7.328449374936542 21.90244816516427 1 0 -1
681 1 10.858868662301928 7.309082844228116 18.80543213241362 0 1 1
765 1 9.714680141023088 5.484498842227769 17.40926831751599 0 0 -1
1249 1 0.4008166019132579 23.939425314616035 15.070192162171214 1 0 0
506 1 1.4549156210656449 5.293853120478918 18.07281305590923 0 1 -1
1721 1 3.154990916419058 11.692873605924984 19.06041451628779 1 0 0
1509 1 8.998902248516458 9.183797777507502 19.321424932490995 1 0 0
1944 1 6.565974008078962 9.496100029190327 20.77369998685346 1 0 0
1245 1 10.118174803364813 11.708420264954656 19.28284900821674 0 1 -1
1791 1 12.061871723386826 11.906864790031063 21.146254385272364 1 0 0
100 1 15.218865885194804 11.841805552550664 16.38444131425492 0 0 0
771 1 3.222028985399745 14.169910584521618 18.131727787009975 1 0 -1
1892 1 5.606785791647486 12.170049107412474 20.239113671858433 1 1 1
1138 1 5.684814077983293 15.359167986157363 19.1882225682032 0 0 0
1463 1 8.248338279365447 13.777695379991307 19.34581658930836 1 0 -1
831 1 12.582657980817457 14.946551404223007 17.811022258259328 0 0 -1
1011 1 12.49830467933047 14.572248367712767 20.663319402856423 1 0 0
1595 1 6.624821417964989 16.500578358167825 16.881585537236777 1 0 0
342 1 5.619566731656626 17.548201791488626 20.40760620977285 0 0 -1
19 1 8.181176842156258 18.404685336292708 18.175294057242006 0 0 -1
2110 1 11.063310883750354 18.774505795253518 21.510717161294185 1 0 0
927 1 10.422875805736755 19.766229743241098 16.69391111241121 0 0 0
934 1 3.876204796791157 19.445543771671726 19.57681429025078 1 0 1
952 1 4.721519229180139 22.592105993008882 27.152998173840125 1 0 1
199 1 6.874946316375348 21.081056759671704 17.610902671883693 0 0 0
704 1 11.368304077060126 22.859988517386174 16.01225572259142 0 0 1
1277 1 12.149291795665409 19.568654441007613 19.238092309504182 1 0 0
663 1 3.338983256442309 23.474218266939864 17.01458278587223 0 1 0
79 1 4.83283743293657 22.18310525269453 18.93601708145585 0 0 -2
571 1 9.230048118272782 22.820585259946682 17.733401694204492 0 0 0
1502 1 11.383744111333845 23.278820752324037 21.99449432797557 0 0 0
1450 1 13.405345867902765 22.037185872962986 18.229237301311063 1 0 0
403 1 13.841127642271429 22.725964449803474 21.053221646951496 0 0 0
86 1 1.3143491245142411 23.31699320843026 23.372591668479718 0 0 0
69 1 8.057402490990505 1.576691146676946 22.745182936382268 0 0 0
483 1 10.305075488723645 3.422917781109753 23.40918953237425 0 1 0
528 1 0.963127288436037 17.793213101324785 22.876816346243437 0 0 -1
1669 1 14.761749072042772 2.66124520087062 21.941350280699098 1 0 -1
640 1 1.4273322768094914 5.7248618036323995 22.32244308654506 0 1 0
1626 1 3.736195505939384 4.7217475531307205 23.07016022619628 0 0 -1
500 1 8.274756591211673 5.48977556362464 24.145137265845992 0 0 1
684 1 12.172210860770294 3.6221671108517826 21.257299682022875 0 1 0
98 1 2.0564144627507916 22.59627057476203 27.13637359738766 0 0 -2
1207 1 1.5739774982577988 8.547173311768056 22.784189282483947 1 0 0
360 1 5.344831092482969 6.861448852350712 22.82256679900193 0 1 0
699 1 5.76179096795375 8.885951169376334 24.66181591335677 0 0 0
610 1 7.529274928238367 6.549279466717525 21.239603107800473 0 1 -1
860 1 12.532774141351807 6.590267049599123 21.1536698743307 0 0 -1
489 1 12.730254203492306 8.242568154875002 25.726230087393485 0 0 0
622 1 14.090328030275154 7.4509939434832315 23.377541049474363 -1 0 0
1847 1 3.221931720693422 9.572176695213987 24.950607424105208 1 1 -1
2021 1 7.573526590551032 10.376563871749246 23.287647710707663 1 1 0
2162 1 10.326814324190602 9.224326718687992 24.276115033584084 1 0 0
192 1 14.138936491277489 9.905197247723855 21.865803776889425 -1 0 0
1933 1 1.8781101263829472 11.235518043609344 21.66994510081452 1 1 -1
759 1 3.332185032670584 11.988941023653668 23.745399958711314 0 0 -1
1647 1 5.432025641519792 13.405786382693368 22.623011217325818 0 -1 0
301 1 10.951954733364706 12.028691746441394 23.590424004541646 0 0 0
1986 1 9.704084138920228 14.455432865040754 23.84206335222937 1 1 0
607 1 14.696200928868475 14.780633449332832 22.251303851993676 0 0 0
1468 1 15.263786737514122 12.081735277262895 23.155675550800265 0 0 -1
1040 1 13.278462379817057 12.572620512872824 25.089551266926346 0 0 0
717 1 0.9843361124093111 14.265472667851558 20.666464281659664 0 0 -1
917 1 4.89267234883702 16.092448144199455 22.921697579016605 1 0 0
247 1 8.541848245928193 17.869046349976923 21.064364353615584 0 1 0
1630 1 9.731511409800415 15.333933217694954 21.15051736456693 1 0 0
1474 1 11.01502314408757 16.328983787683804 25.489048210544478 1 0 -1
2128 1 1.4679551948838256 20.034730382523172 27.822440038247066 1 0 0
1452 1 5.334130933349858 21.15420980897006 22.043466485957854 1 0 -1
309 1 7.614765719962966 19.86598536755181 23.13544263479721 0 0 1
1573 1 12.545431482618717 17.752471118601154 23.78745905137696 0 0 1
31 1 10.268989316435924 21.049900137217065 23.132373416275748 0 0 -1
1213 1 14.198239181545398 19.87271894474845 21.69244890820814 0 0 -1
1188 1 15.19532688610313 14.42788251047168 17.00120801473774 1 0 0
887 1 14.012688584965735 0.6554633608840624 20.52630201570088 0 0 0
1261 1 5.379108718245552 24.130010916548805 21.041004167848396 1 0 0
2063 1 3.6391892389836658 21.980159172286836 24.051715852644925 1 0 0
1976 1 6.836299786569791 21.78799990262991 25.33100848103372 1 0 -1
946 1 9.705885412595544 24.223191212024275 19.976680114832718 0 -1 0
623 1 11.423766265558125 20.735303026532332 25.83398248544967 0 1 0
1518 1 5.897329667116386 2.358282996808705 23.87840741165911 1 0 -1
1576 1 2.5469587151096795 1.3059009571502458 27.127286081159667 0 0 0
693 1 6.633969487567214 1.7790771862497001 26.50019932707096 0 1 0
1486 1 5.725502226204141 19.34570514123199 27.01526549951126 1 0 -1
292 1 10.444178863387382 1.4497705199838986 25.639681608422503 0 0 1
1753 1 3.4159562078779406 18.99827830424501 22.938466694730852 1 0 1
1278 1 14.056267114118878 3.590033576409203 26.810972194250215 0 1 1
84 1 14.821610164657937 1.9938941426589338 24.397366170859176 0 0 -1
2142 1 13.39961938565682 8.437342003232786 17.377635548187477 0 1 0
1365 1 3.0325765974444425 3.9095089111993913 26.02083060025571 0 1 -1
2190 1 3.0123569214351527 6.389349372088725 27.533275579437372 1 1 -1
153 1 5.919702075406877 4.876260351749474 25.667778729401054 0 0 -1
1677 1 11.333937409605303 3.9523297603009144 27.188352598537474 0 1 -1
1114 1 12.87467743743197 21.90693943686895 28.09816407776441 0 0 -1
207 1 16.37803101952535 5.467108800110654 26.59356881373748 0 0 -1
465 1 14.615768102317467 21.66909634651252 14.110109792269048 0 0 0
979 1 6.057870942510409 7.3580480570999764 26.79581002137883 0 0 -1
1932 1 8.834480580400887 7.811046957561915 27.9009276651289 0 0 -1
870 1 10.112396612358122 6.161605918423299 26.04360767127673 0 0 -1
669 1 1.2428635659428253 19.73061011169041 20.376032792963453 0 0 0
470 1 1.8708063422267633 9.262140444341831 27.34635390324235 0 0 -2
888 1 14.936851324134045 7.133417859095917 19.40045701316086 0 0 0
105 1 10.000671586898696 10.2524268644978 26.955625491597164 0 0 0
126 1 9.352132414720797 22.66877686101273 26.022218054024453 0 0 0
885 1 13.000406720252693 10.830183863311667 27.025443355115048 0 0 -1
1688 1 1.4717261058353137 13.60877789033016 24.692387205198592 1 0 0
1800 1 3.1963353512850077 18.213886452498617 25.96161200309758 1 0 0
591 1 7.39154357947118 11.474339888936248 26.695846695452698 0 1 0
1039 1 7.414291473810502 13.189947406033216 24.594105674288784 0 0 -1
971 1 8.829561994213277 3.005016131929389 14.718584418280065 0 0 0
333 1 12.980663155295634 14.888933770450201 26.912991432689502 0 0 0
2075 1 4.145684400219069 15.488281879080663 25.751549911837042 1 1 0
1 1 6.902163305731551 15.481154432035627 26.223388635299425 0 0 -1
1834 1 7.698209972048813 18.08486733363356 25.63355546518353 1 0 0
1703 1 9.95640621274493 18.570969047145017 27.0358873698379 0 0 -1
1491 1 2.9756429050876703 13.17501765034643 27.206631950812632 1 0 -1
1666 1 12.532659668857274 0.36967017923503986 23.72747458358913 0 0 0
1155 1 6.022633393744571 24.201302404823977 24.080909983720048 1 0 0
239 1 4.764325583083173 10.887657733142271 27.05653038994303 0 0 1
486 1 15.94594034972854 9.863286058671166 27.18560989430613 0 0 -1
163 1 0.0964408521997622 4.153699185155488 20.412737564599365 0 0 0
304 1 1.6371266613323088 12.438734642112301 14.396756763663593 0 0 0
2105 1 3.367091096231286 0.09685022191635925 20.9308924396313 0 1 0
1488 1 0.2453431767492979 24.421961298770437 25.729704584160643 0 -1 0
656 1 15.554065107428816 24.383448909543173 13.9920286639157 0 0 0
457 1 6.909516182165433 45.951548233050396 8.310675322899296 0 0 0
376 1 9.734561319270254 42.44322433089305 -0.12674300992127255 0 0 0
689 1 15.838138033882114 30.730155785055224 12.369349747879646 0 0 1
1145 1 1.7655083609877453 48.632939529045615 1.836421121551544 0 0 0
1982 1 7.917435303810523 26.943673792663578 2.268418631181581 1 0 0
2101 1 0.33179694407101135 40.35474695009447 12.23354408817631 1 0 1
426 1 15.790321182968011 45.833437141961554 0.7523229821499188 0 1 1
168 1 4.568090106450721 45.77434582379443 13.028852831813538 0 0 1
1289 1 6.178042628981941 28.87117562234635 0.8042199782416274 0 0 1
287 1 0.8031948114144883 40.29861996124244 4.369993051490007 0 -1 1
1373 1 12.678075620346164 27.11444681920191 1.3421391417988013 1 0 1
825 1 10.557760315799275 28.671830244300608 2.119881964857979 0 0 -1
665 1 13.407260263035043 24.748437016595208 12.362655774224338 0 0 0
1993 1 3.1351010368253154 48.57907255941357 12.228888651709658 1 0 0
361 1 8.815024964379809 26.148095938367828 13.275241282127695 0 0 -1
170 1 16.11676085359115 44.70513456995315 9.33907168295132 1 -1 0
947 1 10.152199568624438 31.00723340030123 0.8779484152382064 0 -1 0
744 1 7.362305124309595 31.190682189188575 0.584964898484016 0 0 0
1394 1 14.5835622843455 30.767457763643247 1.430253610767655 0 0 0
1691 1 10.505931063371957 32.97528670965462 2.4383744447820037 1 -1 2
1843 1 12.223604258107667 35.14766833584784 1.5571098410071467 0 0 0
1716 1 15.883085544879863 36.82898668834196 12.630971162411031 1 -1 1
1200 1 2.500047891579684 36.752029292392834 0.441752056465859 0 0 0
1569 1 5.933937587877648 38.06350345681435 3.118100700105287 0 -1 -1
145 1 3.8198768237599356 39.138493473016126 1.4106950422204296 0 0 1
1036 1 8.065104555595084 36.51308193216192 2.044486261487445 0 0 1
196 1 6.791546024803653 24.927778045408285 0.4150813001481317 0 0 1
1875 1 10.71763534195665 37.520870582658546 2.028991434268975 0 0 0
2090 1 13.110421738504723 39.16855522327164 1.9125081650335978 1 0 1
187 1 3.738867983122795 30.06657536349516 12.49855996720415 0 0 2
1459 1 13.295857861654172 41.93097198072706 2.753819115377701 0 -1 0
1160 1 4.056974915261996 42.76991570312296 2.872321061541989 1 0 0
973 1 8.53423165691702 46.719458561670365 -0.26478549969581255 0 -1 2
1622 1 6.236563937936309 44.22932898091431 3.2871319095035587 1 -1 0
1906 1 7.622179003373586 42.14620939627617 1.8994559887137399 0 0 1
1579 1 0.8802196682324942 46.8168947252219 8.427807018304957 1 -1 0
447 1 7.118530969927152 48.95713654973512 11.595671392730079 0 0 0
507 1 12.239280081014542 45.06101943098534 2.6935342862530933 0 0 0
587 1 0.12706140190513063 42.816959986449035 5.174732261813089 0 0 0
510 1 2.031219625747059 35.83367395550571 13.867590009128742 0 0 0
1708 1 1.5809937065171842 45.7369038641041 2.93773358644579 1 -1 2
1120 1 9.257787868697033 44.47539138363286 3.093189836836218 0 0 0
423 1 12.536882318123586 43.122621980996676 0.10262528785605793 0 0 0
1006 1 11.402161623740344 47.13081178818892 0.7665751406333275 0 0 0
1187 1 9.127123767305333 45.12957424948751 12.92545279272338 1 0 -1
671 1 1.3796994585991467 27.354014135295774 3.369995962948555 0 0 0
777 1 1.6652620934109226 25.936088899893814 6.074257665156816 1 0 0
1821 1 5.956861184627199 26.734935091960196 4.168915971041514 1 0 2
15 1 16.08042442348842 29.177485373110045 7.068225124901514 0 0 0
1567 1 10.156259394490753 25.53846145410713 7.717814696856227 1 0 1
2048 1 10.450469993990401 26.73723488593303 5.160873902770546 0 0 2
182 1 15.913129148981458 40.25182231822595 10.015983559926193 0 -1 0
743 1 3.8111374347697504 27.378537860179037 1.9543705771332123 0 0 0
2132 1 4.831449677515117 47.6443153601578 8.346446968511156 1 0 1
561 1 3.935656160237646 28.86409360148343 4.842295181987936 0 0 1
1121 1 8.805445296724285 29.119313293474473 4.6951104027416495 0 0 0
1960 1 10.739947726120699 40.616096574688285 13.868674671613482 0 0 -1
335 1 3.4855945243925865 33.504682021819406 5.835344577120085 0 0 0
1254 1 3.787776861238735 34.08868150896984 1.0957082147105792 0 0 1
1143 1 5.313034303816469 31.449397449670535 4.757646791259022 0 0 1
1714 1 6.170841686364021 32.86010924712522 2.437958910521087 1 0 0
1487 1 12.757230689709624 29.80325790741643 3.5367074126704208 1 0 0
1998 1 11.091771236596276 31.478076823905614 4.7664948004776 1 0 1
503 1 2.3137999671170295 36.822828003213274 3.438187462542201 0 0 0
570 1 8.34388611149535 34.301986030844645 3.5830019662829873 0 0 1
1975 1 13.543932264920825 34.466109296252576 3.878606801407318 1 0 -1
382 1 12.85395428680773 32.9567723494168 6.051873041122365 0 0 -1
1911 1 16.03258408359162 47.00646098145324 7.3141786774977 0 0 0
240 1 4.544664587052562 36.18764004247561 4.574925196357206 0 -1 0
221 1 10.174765544274958 39.169816074890434 3.904373181894102 0 -1 1
706 1 11.105131838212145 37.82342115543423 6.202908702662317 0 0 0
1853 1 14.695788181321777 37.455638360342626 3.739817890994586 0 0 0
458 1 4.629880254123415 47.396169177521024 4.0746686998419985 0 0 1
1583 1 4.147049413371273 39.58800240453797 6.6955949925234775 0 -1 -1
1334 1 13.553670142090727 47.20698299208608 12.763209709326022 0 0 0
2122 1 3.502283174402498 40.546662393203164 3.9631242094661006 1 0 0
462 1 6.214705889579714 43.78158621994848 6.24207944388866 0 0 -1
1319 1 7.601075081899033 40.27262602956088 4.205284161691029 0 0 1
1417 1 11.820949842477134 41.227899000166424 4.608561118252368 0 0 1
1964 1 12.82215950252483 42.140134382868524 7.124597210512582 1 0 0
1695 1 13.777242877347955 25.713089823562402 5.444228967892607 1 0 1