
# read in water data
read_data data.ML_m1000atm_255K group water extra/atom/types 1
Reading data file ...
  orthogonal box = (0.0000000 0.0000000 -0.30163407) to (49.220000 49.019636 28.241634)
  3 by 2 by 2 MPI processor grid
  reading atoms ...
  2204 atoms
  reading velocities ...
  2204 velocities
  read_data CPU = 0.006 seconds

# remove area for graphite
region substrate block 0 ${XDIM} 0 ${YDIM} 0 ${Z_G}
region substrate block 0 49.22 0 ${YDIM} 0 ${Z_G}
region substrate block 0 49.22 0 49.019635930410494 0 ${Z_G}
region substrate block 0 49.22 0 49.019635930410494 0 10.062
delete_atoms region substrate
Deleted 766 atoms, new total = 1438

# Insert substrate
read_data data.graphite add append shift 0.0 0.0 0.0 group graphite offset 1 0 0 0 0
Reading data file ...
  orthogonal box = (0.0000000 0.0000000 -0.30163407) to (49.220000 49.019636 28.241634)
  3 by 2 by 2 MPI processor grid
  reading atoms ...
  2760 atoms
  reading velocities ...
  2760 velocities
  read_data CPU = 0.009 seconds


# Define potential
# CHECK ON THIS %%%%%%%%%%%%
#
pair_style sw
pair_coeff * * MLC_e.sw mW C


# Delete water and ice atoms that are overlapping
#
delete_atoms overlap 2.5 water graphite
System init for delete_atoms ...
Neighbor list info ...
  update every 1 steps, delay 10 steps, check yes
  max neighbors/atom: 2000, page size: 100000
  master list distance cutoff = 6.6747184
  ghost atom cutoff = 6.6747184
  binsize = 3.3373592, bins = 15 15 9
  2 neighbor lists, perpetual/occasional/extra = 1 1 0
  (1) command delete_atoms, occasional, copy from (2)
      attributes: full, newton on
      pair build: copy
      stencil: none
      bin: none
  (2) pair sw, perpetual
      attributes: full, newton on
      pair build: full/bin/atomonly
      stencil: full/bin/3d
      bin: standard
Deleted 120 atoms, new total = 4078

# set timestep
#
timestep 10.0

# Define output
#

compute 1 all msd
compute 2 water temp
compute        peratom water stress/atom NULL
compute        p water reduce sum c_peratom[1] c_peratom[2] c_peratom[3]
variable       water_press equal -(c_p[1]+c_p[2]+c_p[3])/(3*(vol-24277.055086535))

thermo 50
thermo_style custom step c_2 v_water_press vol etotal ke pe c_1[4]

# Neighbor lists
#
neigh_modify delay 0 every 1 check yes


# Fix graphite atoms in place
#
fix 1 graphite setforce 0.0 0.0 0.0
velocity graphite set 0.0 0.0 0.0


### Set fixes ###
#

# Run 0.25 ns equilibration of water in NPH ensemble
#
fix 2 water momentum 10 linear 1 1 1 rescale
fix 3 water nph z ${PRES} ${PRES} ${PCOUPL}
fix 3 water nph z -1000 ${PRES} ${PCOUPL}
fix 3 water nph z -1000 -1000 ${PCOUPL}
fix 3 water nph z -1000 -1000 10000.0
fix 4 water temp/csvr ${TEMP} ${TEMP} ${TCOUPL} 837492
fix 4 water temp/csvr 255 ${TEMP} ${TCOUPL} 837492
fix 4 water temp/csvr 255 255 ${TCOUPL} 837492
fix 4 water temp/csvr 255 255 5000.0 837492

dump 	1 all atom 2000 nph.${NAME}.dump
dump 	1 all atom 2000 nph.ML_graphite_m1000atm_255K.dump
run 	25000
Neighbor list info ...
  update every 1 steps, delay 0 steps, check yes
  max neighbors/atom: 2000, page size: 100000
  master list distance cutoff = 6.6747184
  ghost atom cutoff = 6.6747184
  binsize = 3.3373592, bins = 15 15 9
  1 neighbor lists, perpetual/occasional/extra = 1 0 0
  (1) pair sw, perpetual
      attributes: full, newton on
      pair build: full/bin/atomonly
      stencil: full/bin/3d
      bin: standard
Per MPI rank memory allocation (min/avg/max) = 5.323 | 5.326 | 5.330 Mbytes
Step c_2 v_water_press Volume TotEng KinEng PotEng c_1[4] 
       0    254.98872    -2219.316     68867.67    -11729.82    1001.0161   -12730.836            0 
      50    284.73577   -3049.0667    68639.502   -11737.975    1117.7949    -12855.77   0.44269519 
     100    294.05907   -3911.8022    67992.576   -11783.551    1154.3956   -12937.947   0.80322348 
     150    283.55823   -2527.8198     67312.13   -11808.241    1113.1721   -12921.413    1.1700657 
     200    294.45087   -2524.9279    66794.715   -11836.251    1155.9337   -12992.185    1.4326581 
     250    284.32293   -2650.8172    66336.091   -11862.501    1116.1741   -12978.675    1.7286196 
     300    285.38878   -1894.8259    65884.104   -11876.603    1120.3584   -12996.961    2.0598368 
     350    288.92559   -2539.5105    65467.559   -11886.159    1134.2429   -13020.402     2.436237 
     400    286.61427   -3323.3851     65076.85   -11930.638    1125.1693   -13055.807    2.8356398 
     450    280.06902   -2349.9937    64679.845   -11961.307    1099.4745   -13060.782    3.2234405 
     500    288.96371   -2643.7784    64365.683   -11987.407    1134.3926   -13121.799    3.4580312 
     550     294.8493   -2109.0351    64105.302    -12010.28    1157.4978   -13167.777    3.7308448 
     600    285.94647   -2733.0992    63879.835   -12029.063    1122.5477   -13151.611    4.1159913 
     650    281.19536   -2596.6103    63644.277   -12059.927    1103.8962   -13163.823      4.51114 
     700    294.00098   -2538.9464      63404.1   -12066.989    1154.1676   -13221.157    4.8494929 
     750    282.80588   -2961.1246     63224.31   -12090.007    1110.2186   -13200.226    5.1170816 
     800    280.48221    -2520.041     63067.39   -12107.304    1101.0965   -13208.401    5.4635256 
     850    274.32858   -2596.0793    62944.933   -12134.057    1076.9391   -13210.996      5.82132 
     900    278.98933   -2643.3884    62807.218   -12153.808    1095.2359   -13249.043     6.068219 
     950    276.75676    -2114.309    62631.105    -12179.14    1086.4714   -13265.612    6.3172641 
    1000    277.62046    -2259.845    62458.266   -12179.024    1089.8621   -13268.886    6.5899097 
    1050    276.82487    -2200.837    62320.955   -12200.711    1086.7388    -13287.45    6.7126635 
    1100    272.67814   -2325.1664    62223.824   -12206.805    1070.4599   -13277.265    6.8701325 
    1150    281.30895   -2408.7007    62089.631   -12207.003    1104.3421   -13311.345    7.1493006 
    1200    276.44955   -1957.5528     61908.12   -12235.759    1085.2654   -13321.024    7.4427199 
    1250    275.48192   -1770.7087    61726.072   -12252.091    1081.4668   -13333.558    7.7959615 
    1300    276.65066   -2663.0834     61568.27   -12281.111    1086.0549   -13367.166    8.0439814 
    1350    271.70924   -1625.9217    61421.567   -12275.046    1066.6563   -13341.703    8.3035149 
    1400    274.73866    -2170.265    61314.373   -12279.488    1078.5489   -13358.037    8.5179892 
    1450    281.62961   -1765.3163    61263.403   -12281.279    1105.6009    -13386.88    8.8537892 
    1500    262.35725    -1598.313    61240.674   -12312.238    1029.9429   -13342.181    9.0509894 
    1550    271.51625   -1394.3563    61226.811   -12310.794    1065.8986   -13376.692    9.4140587 
    1600    270.37549   -1585.1737    61211.295   -12327.822    1061.4203   -13389.242    9.7318576 
    1650    265.73646   -2424.1764    61175.896   -12336.977    1043.2087   -13380.186    9.8538832 
    1700    261.75094   -2470.8308    61090.351    -12346.25    1027.5627   -13373.813    10.244236 
    1750    270.97287   -1851.4027    60941.605   -12344.026    1063.7655   -13407.791    10.655992 
    1800     272.5858   -2885.8744     60792.56   -12354.479    1070.0974   -13424.576    11.110076 
    1850    268.84165   -1576.0879    60620.765   -12354.567    1055.3989   -13409.965    11.427728 
    1900     274.4881   -738.15093    60451.978   -12364.748    1077.5653   -13442.313    11.645525 
    1950    274.72283   -1885.9189    60317.816   -12379.235    1078.4868   -13457.722    11.915015 
    2000    271.85967   -1675.0032    60162.324   -12370.645    1067.2468   -13437.892     12.29864 
    2050    266.31873   -1586.2528     60031.33   -12384.677    1045.4946   -13430.171    12.571308 
    2100    272.82915   -1025.1315    59937.787   -12387.288    1071.0527   -13458.341    12.956212 
    2150    272.91936   -1817.6536    59891.638   -12381.392    1071.4069   -13452.799    13.213994 
    2200    279.12884   -1349.6106     59864.25   -12386.972    1095.7836   -13482.756    13.301845 
    2250    273.24962   -995.39431    59895.774   -12392.313    1072.7034   -13465.016    13.478684 
    2300    278.48837   -1812.3088    59967.292   -12402.666    1093.2693   -13495.935    13.731098 
    2350     278.7907   -1419.9689    59999.181   -12406.995    1094.4561   -13501.451    13.955167 
    2400    269.34485   -1517.2074    60031.751   -12428.409    1057.3743   -13485.784    14.125567 
    2450    273.47925   -1600.0497    60082.792   -12453.889    1073.6048   -13527.494    14.265352 
    2500    266.32843     -903.726    60191.465   -12469.069    1045.5327   -13514.601    14.524657 
    2550    264.98756   -1141.6508    60320.461   -12449.052    1040.2688    -13489.32    14.770506 
    2600    266.01659   -500.11163    60429.393   -12453.105    1044.3085   -13497.414    15.001369 
    2650    264.37205    -1255.831    60518.009   -12477.259    1037.8525   -13515.111    15.123111 
    2700    263.77787   -1628.4845    60570.654    -12458.59    1035.5198    -13494.11    15.162645 
    2750    258.41918   -1485.5268    60605.045   -12465.294    1014.4831   -13479.777    15.569014 
    2800    263.64532   -2548.7327    60618.431   -12472.571    1034.9995   -13507.571    15.762304 
    2850    256.56601   -1680.9705    60570.614   -12478.776    1007.2081   -13485.984    15.932433 
    2900    270.42712   -1435.8871     60515.45   -12491.311     1061.623   -13552.934    15.945744 
    2950    266.84927   -2257.4057    60449.329   -12505.657    1047.5773   -13553.234    16.081707 
    3000     261.5203   -1732.7765    60378.248   -12510.819    1026.6573   -13537.476    16.377599 
    3050    260.27194   -1749.2941    60276.425   -12500.695    1021.7565   -13522.452    16.507679 
    3100    263.32269    -1587.618    60133.284   -12495.072     1033.733   -13528.805    16.882729 
    3150    254.30995   -1257.6398    59981.414   -12485.092    998.35138   -13483.443    17.132191 
    3200    272.29058   -943.57618    59902.896    -12477.78    1068.9384   -13546.719    17.282094 
    3250    262.90626   -1718.9841    59909.444   -12490.101    1032.0982   -13522.199    17.491109 
    3300    272.09952   -1409.6415    59978.208     -12491.2    1068.1884   -13559.388     17.55828 
    3350    264.46274   -2173.5987    60054.863   -12521.022    1038.2085   -13559.231    17.581221 
    3400    267.55611   -1676.7341     60104.52    -12534.85    1050.3522   -13585.202     17.57621 
    3450    260.71728   -2283.4465    60129.347   -12558.848    1023.5048   -13582.353    18.113703 
    3500    259.59863   -1896.6698    60119.404   -12567.912    1019.1133   -13587.026    18.233684 
    3550    265.10377   -1618.1791    60110.454   -12576.082     1040.725   -13616.807    18.422868 
    3600    265.53923   -1036.3911    60109.862   -12580.371    1042.4345   -13622.806    18.627247 
    3650    261.54207    -1638.154    60134.183   -12574.501    1026.7427   -13601.244       18.569 
    3700    273.46391   -1507.9244    60156.214   -12563.112    1073.5446   -13636.656    18.728344 
    3750     259.1152   -1841.3463    60196.486   -12547.396    1017.2155   -13564.611    18.807723 
    3800    265.31047   -1016.5408     60235.31   -12545.989    1041.5364   -13587.525    18.780132 
    3850    266.62095   -1463.0717    60223.757   -12532.178     1046.681   -13578.859    18.998456 
    3900    263.00615   -2314.6544    60209.996   -12533.232    1032.4903   -13565.722     19.12519 
    3950    270.55247   -1820.2448    60174.552   -12549.621    1062.1151   -13611.736    19.296311 
    4000    261.05827   -1666.1658    60091.485   -12556.841    1024.8435   -13581.685    19.594474 
    4050    256.86125   -1548.3726    59987.218   -12564.789    1008.3671   -13573.156    19.902822 
    4100    254.40224   -1665.5238    59906.826   -12563.906     998.7137    -13562.62    20.141146 
    4150    258.60395   -1224.1003    59858.323   -12583.836    1015.2085   -13599.044     20.39735 
    4200    258.73636     -1239.65    59826.323   -12581.591    1015.7283   -13597.319    20.543042 
    4250    266.44894   -767.59821    59833.034   -12569.961    1046.0058   -13615.967    20.534321 
    4300    264.24353   -1700.3124    59902.371   -12577.805    1037.3479   -13615.153    20.919621 
    4350    266.42491   -1783.9223    59997.363   -12576.024    1045.9114   -13621.935    21.072153 
    4400    260.34697   -1512.2988    60094.032   -12577.549    1022.0511     -13599.6    21.117861 
    4450    255.14128   -2030.8383    60156.659   -12570.386     1001.615   -13572.001    21.260602 
    4500    259.99795   -2382.4575    60183.488   -12570.375    1020.6809   -13591.056    21.219799 
    4550    265.37437   -1822.3203    60190.638   -12560.068    1041.7873   -13601.856    21.219893 
    4600    251.68877   -2194.9687    60176.906    -12563.09    988.06137   -13551.151    21.611187 
    4650    256.82988   -1993.6859    60113.089    -12558.31     1008.244   -13566.554    21.804296 
    4700    268.82629   -1286.5171      60056.9   -12567.812    1055.3386    -13623.15    22.086113 
    4750    255.59487   -979.36413    60028.518   -12578.691    1003.3956   -13582.087    22.167967 
    4800     264.7597   -1672.4626    60029.168   -12565.118    1039.3743   -13604.492     22.18649 
    4850    266.09117   -1635.4911    60020.042   -12560.323    1044.6012   -13604.924    22.343277 
    4900    261.05543   -1566.6803    60027.785   -12561.828    1024.8323   -13586.661    22.547803 
    4950    269.62227   -1594.7329    60030.875    -12564.72    1058.4634   -13623.184    22.635986 
    5000     266.0261   -1840.6922    60003.791    -12569.46    1044.3458   -13613.806    22.880552 
    5050    258.06948   -1664.1579    59972.163   -12580.077    1013.1103   -13593.187    23.045075 
    5100    256.24066   -1822.4746    59957.696    -12581.06    1005.9308   -13586.991    23.301739 
    5150    257.45395   -1116.3991    59956.509   -12578.952    1010.6939   -13589.646    23.433858 
    5200    258.25364   -975.33691    59961.035   -12572.151    1013.8332   -13585.985    23.614451 
    5250    264.44697   -1061.7943    59940.674   -12564.574    1038.1465   -13602.721    23.592578 
    5300    262.66104   -1236.8626    59904.741   -12550.052    1031.1355   -13581.187    23.599921 
    5350    269.30991    -1020.189    59914.839   -12549.636    1057.2371   -13606.873    23.563983 
    5400    270.07633   -1365.2149     59976.36   -12557.285    1060.2459   -13617.531     23.60437 
    5450    258.79739   -2140.3263    60018.924   -12541.465    1015.9678   -13557.433     23.66804 
    5500    254.02389   -1463.4995    60030.255   -12552.159    997.22841   -13549.388    24.124622 
    5550     257.3273    -1800.747    60032.625    -12557.05    1010.1967   -13567.247    24.264664 
    5600    254.49987   -1777.2896    59999.075   -12552.973    999.09696    -13552.07    24.503407 
    5650    261.25923   -1778.4989    59952.866   -12555.638    1025.6324    -13581.27    24.887114 
    5700    260.61255   -2075.6977    59857.559   -12546.324    1023.0937   -13569.418    25.086093 
    5750    264.24944   -1606.1825    59713.309   -12552.698    1037.3711   -13590.069    25.358646 
    5800    266.76921   -553.76235    59565.656   -12567.441    1047.2631   -13614.704    25.559557 
    5850    266.79141   -848.41506    59513.981   -12581.987    1047.3502   -13629.338    25.791199 
    5900    262.78989   -672.26886    59583.616   -12567.865    1031.6413   -13599.506    25.765351 
    5950    268.11671   -471.59488    59697.276   -12565.396     1052.553   -13617.949    25.975696 
    6000     262.2372   -1886.8081    59849.427   -12572.034    1029.4716   -13601.506    25.945204 
    6050    264.59071    -2215.585    59956.639   -12594.657    1038.7108   -13633.368    26.066599 
    6100     264.4464   -2519.7055     60002.12   -12587.871    1038.1443   -13626.015    25.894745 
    6150     257.5023   -1647.5292    60013.186   -12576.056    1010.8837    -13586.94    26.037228 
    6200    264.56128   -994.29986    60045.888   -12578.332    1038.5953   -13616.927    26.014036 
    6250    261.24695   -1245.1334    60121.727    -12562.99    1025.5842   -13588.574    25.959002 
    6300    255.71374   -1284.8422    60221.292   -12570.538    1003.8623     -13574.4    25.940983 
    6350    261.31892   -1131.9017    60351.458   -12582.193    1025.8667    -13608.06    26.078266 
    6400    255.36393   -1753.1521    60517.956   -12568.123     1002.489   -13570.612    26.015348 
    6450    265.25339   -1755.3271    60643.409   -12562.522    1041.3123   -13603.835    25.954903 
    6500    251.12759   -1850.8753    60680.155   -12561.179    985.85833   -13547.038    26.251322 
    6550    251.76842   -1622.3425    60639.339   -12563.208    988.37404   -13551.582     26.53308 
    6600     254.3854   -1497.1853    60570.831   -12592.554     998.6476   -13591.201     26.70695 
    6650    254.38182   -1054.7104    60525.017   -12603.986    998.63355    -13602.62    26.997253 
    6700    252.10826   -1709.1281    60503.049    -12610.58    989.70818   -13600.289    27.384192 
    6750     248.7237   -1802.6844    60491.087   -12620.878     976.4213     -13597.3    27.367913 
    6800    249.36365   -2166.3838      60450.7   -12624.853    978.93358   -13603.786    27.277523 
    6850    258.85746   -1676.6542    60360.694   -12623.864    1016.2037   -13640.067    27.380009 
    6900    258.63692   -1594.4593    60257.521   -12624.297    1015.3379   -13639.635    27.431578 
    6950    262.52603   -1762.9611    60166.478   -12622.583    1030.6055   -13653.188    27.616903 
    7000    263.81092   -1666.0132    60108.595   -12622.898    1035.6496   -13658.548    27.911181 
    7050    262.39307   -1642.9693    60090.743   -12617.788    1030.0835   -13647.872    28.028864 
    7100    266.83562   -1387.2415    60124.645    -12603.19    1047.5238   -13650.714    28.204853 
    7150    266.50079   -1459.5312    60202.828   -12594.536    1046.2093   -13640.745    28.474739 
    7200    266.58033   -1362.3068    60304.609   -12586.014    1046.5216   -13632.535    28.375836 
    7250    266.11126    -1337.498    60423.609   -12557.428    1044.6801   -13602.108    28.550755 
    7300    259.20806   -1058.2662    60577.476   -12559.408    1017.5801   -13576.988    28.885457 
    7350    266.08244   -1554.4323    60720.618   -12566.036     1044.567   -13610.603    29.168259 
    7400     266.8622   -1977.5144    60836.792   -12566.083    1047.6281   -13613.711    29.095939 
    7450     259.5101   -2056.5176    60910.896    -12554.27    1018.7658   -13573.036    29.089973 
    7500    258.05733   -1460.4137    60908.476   -12558.047    1013.0626   -13571.109    29.225238 
    7550    253.23973   -1718.2637    60890.634   -12579.714    994.15002   -13573.864    29.369041 
    7600    258.97199   -1998.0131    60852.143   -12578.946    1016.6533   -13595.599    29.354813 
    7650    248.04574   -1837.7064    60765.174   -12568.005     973.7598   -13541.765    29.689816 
    7700    260.54731   -2780.9331    60655.557   -12569.604    1022.8375   -13592.441     29.87512 
    7750    257.27176   -1999.8047    60533.188   -12580.164    1009.9787   -13590.143    30.003962 
    7800    251.70679   -1716.0765    60349.468   -12603.848    988.13211    -13591.98    30.310936 
    7850    259.49271   -1846.1876    60177.467   -12595.846    1018.6975   -13614.543    30.489188 
    7900    254.49452   -1410.3254    60058.033   -12580.648    999.07598   -13579.724    30.780829 
    7950    254.40508   -838.34032    59971.669   -12587.275    998.72484   -13585.999    31.209482 
    8000    257.81564   -907.63458    59922.521   -12583.671    1012.1138   -13595.785    31.656311 
    8050    258.82031    -1422.028    59918.239   -12592.079    1016.0578   -13608.137    31.702655 
    8100    251.34944   -2132.4894    59940.579   -12609.037    986.72922   -13595.767    31.682008 
    8150    255.46206   -1445.0137    59913.401   -12626.777    1002.8743   -13629.652    31.924349 
    8200    260.18447   -1952.2751    59865.708   -12616.105    1021.4132   -13637.518    32.050378 
    8250    260.74562   -1521.9244    59800.333   -12615.218    1023.6161   -13638.834    32.343518 
    8300    256.54896   -1313.8969    59742.877   -12609.395    1007.1412   -13616.536    32.431198 
    8350    260.74177   -1442.3164    59716.348    -12627.26     1023.601   -13650.861    32.633595 
    8400    252.84795   -380.36973     59730.17   -12637.879    992.61198   -13630.491    32.791065 
    8450     265.6459   -1455.9192    59829.643   -12633.487    1042.8532   -13676.341    32.780225 
    8500    267.09368   -1063.5431    59913.959   -12620.597    1048.5368   -13669.134    32.948105 
    8550    257.93665   -1912.2792    59962.338   -12612.116    1012.5888   -13624.704    33.086508 
    8600    254.52944   -1345.5833    60004.652   -12612.207    999.21307    -13611.42    33.062142 
    8650    262.27029   -1926.8896     60026.79   -12602.736    1029.6015   -13632.338    33.001227 
    8700    259.87806   -2046.9921    60037.271   -12588.433    1020.2103   -13608.643    33.054537 
    8750    256.72624   -1839.0999    60037.327   -12583.067    1007.8371   -13590.904     33.06502 
    8800    257.74358   -2206.6501    60051.628    -12573.28    1011.8309   -13585.111    33.324594 
    8850    257.85944   -1427.2482    60052.836   -12566.937    1012.2857   -13579.223    33.476512 
    8900    268.74109   -1796.8714      60114.5   -12569.402    1055.0041   -13624.407    33.374263 
    8950    257.39498   -1941.3633    60187.199   -12563.823    1010.4624   -13574.285    33.518328 
    9000    259.55246   -2075.4993    60268.848   -12566.224    1018.9321   -13585.156    33.715422 
    9050    260.09382   -1915.3592    60326.403   -12561.989    1021.0573   -13583.046    33.838556 
    9100     250.7298   -1925.2917    60340.399   -12565.178     984.2967   -13549.475    34.013576 
    9150    257.73418   -1677.2821    60336.285   -12565.963     1011.794   -13577.757    34.153379 
    9200     265.5308   -1707.5411    60356.786   -12553.134    1042.4014   -13595.536    34.161711 
    9250    261.73465    -1680.634    60393.703   -12551.747    1027.4987   -13579.246    34.333854 
    9300    261.72174   -1999.0715    60457.664   -12572.929    1027.4481   -13600.377    34.198186 
    9350    254.17957   -2169.1998    60491.728   -12570.795    997.83955   -13568.635    34.331447 
    9400    255.29173   -1496.5987    60476.264   -12571.003    1002.2056   -13573.209     34.65397 
    9450    266.96579   -1075.9587    60428.282   -12575.512    1048.0348   -13623.547    34.883805 
    9500    260.46291   -1384.7843    60386.026   -12564.321    1022.5062   -13586.828    34.923543 
    9550    261.14077    -1707.908    60313.591   -12578.269    1025.1673   -13603.436    35.250208 
    9600    267.31898   -1687.7263     60233.01   -12570.998    1049.4213   -13620.419    35.416835 
    9650     265.4449   -1668.8474    60161.289   -12564.672    1042.0642   -13606.736    35.639699 
    9700    260.15336   -1894.5872     60107.74   -12572.315     1021.291   -13593.606    35.602533 
    9750    263.47438   -931.03167    60049.006    -12575.78    1034.3284   -13610.109    35.566155 
    9800     256.6253   -1572.0601    59995.931   -12577.676    1007.4408   -13585.117    35.904514 
    9850    261.39005   -1628.1327     59931.52   -12569.251     1026.146   -13595.397    36.181991 
    9900     262.7057   -1078.4574    59871.846   -12570.693    1031.3108   -13602.003    36.261992 
    9950    261.79737   -933.17621    59824.557   -12577.674     1027.745   -13605.419    36.376946 
   10000    253.04337   -811.42065    59778.205   -12586.414    993.37914   -13579.793    36.445625 
   10050    256.25939   -751.94573    59746.594   -12578.702    1006.0044   -13584.706    36.563694 
   10100    255.55026   -1469.3389    59742.272   -12586.936    1003.2205   -13590.157    36.768002 
   10150     258.8629    -1511.205    59714.974   -12580.448     1016.225   -13596.673    36.625769 
   10200    259.63749   -1137.0801    59714.229   -12588.477    1019.2659   -13607.743    36.790088 
   10250    262.85098   -1371.7056    59771.157    -12570.44    1031.8811   -13602.321    37.218012 
   10300    262.91823   -1050.7361    59868.164   -12551.748    1032.1451   -13583.893    37.381544 
   10350    265.42698   -2140.6204    59983.405   -12560.084    1041.9938   -13602.078    37.400407 
   10400    264.33449   -1145.7171    60046.863   -12565.151     1037.705   -13602.856    37.301211 
   10450    259.90164   -1041.2853    60098.167   -12552.653    1020.3029   -13572.955     37.38107 
   10500    271.23656    -1663.163     60151.92   -12547.065    1064.8006   -13611.866    37.453289 
   10550    264.59982   -1841.5354     60207.61   -12556.241    1038.7466   -13594.988    37.315255 
   10600    264.92594   -1730.5185      60227.4   -12567.464    1040.0269    -13607.49    37.689041 
   10650     261.7433   -1627.8349    60189.465   -12588.134    1027.5327   -13615.666     37.68992 
   10700    271.34679   -1741.1651    60109.443   -12607.377    1065.2334   -13672.611    37.876034 
   10750    254.67223   -1194.6512    60010.988   -12611.567     999.7736   -13611.341    37.808825 
   10800    267.50947   -987.56359    59984.162   -12608.535    1050.1691   -13658.704    37.919012 
   10850    266.35085   -1263.8838    60054.807   -12612.687    1045.6207   -13658.308    38.018417 
   10900     258.5828   -1517.9489    60181.692   -12606.349    1015.1254   -13621.475    38.104468 
   10950    257.79343   -2493.9878    60292.959   -12621.207    1012.0266   -13633.234    38.281514 
   11000    254.10524   -2156.2499    60334.182    -12625.08    997.54777   -13622.628    38.327874 
   11050    261.82233   -1663.1415    60318.564   -12624.568     1027.843   -13652.411    38.541313 
   11100    261.26013   -1968.0811    60302.255   -12638.758    1025.6359   -13664.394    38.771085 
   11150    256.74201   -1462.2212    60282.484   -12634.904     1007.899   -13642.803    38.853004 
   11200    249.18753   -1533.2677    60262.396   -12640.717    978.24216   -13618.959    38.954014 
   11250    258.99263   -2781.1799    60214.339   -12646.953    1016.7343   -13663.687    39.181403 
   11300     250.5287   -1482.9102    60098.624   -12659.066    983.50723   -13642.573    39.309458 
   11350    257.85694   -1409.9467    59963.224   -12663.029    1012.2759   -13675.305    39.451643 
   11400    252.70613    -977.1706    59877.188   -12665.394    992.05524    -13657.45    39.593755 
   11450    252.18202   -1127.9415    59872.473   -12648.309    989.99774   -13638.306    39.646236 
   11500    262.43062   -1962.5481    59922.203    -12629.33    1030.2309   -13659.561    39.726106 
   11550    258.35477   -1528.9229    59983.091   -12629.667    1014.2303   -13643.897    39.945807 
   11600    251.69801   -1842.1527    60007.026   -12650.588    988.09764   -13638.685    39.953676 
   11650    249.40719   -1510.9119    60001.603   -12666.622    979.10451   -13645.726     40.32879 
   11700    250.23664   -1116.4581    60010.726   -12658.015    982.36069   -13640.376     40.42525 
   11750    253.21569   -1907.3582    60077.862   -12678.319    994.05565   -13672.375     40.44761 
   11800    261.02828   -1539.4025    60190.582   -12685.654    1024.7257   -13710.379    40.365989 
   11850    255.95836   -1815.7291    60336.239   -12688.714    1004.8226   -13693.537     40.32138 
   11900    247.35535   -1849.7713    60434.027   -12675.324    971.04953   -13646.374    40.259714 
   11950    254.62255   -2039.9214    60454.004   -12683.435    999.57859   -13683.014    40.317047 
   12000    251.72308   -2332.9519    60416.938   -12683.044    988.19604    -13671.24    40.430031 
   12050    248.49688   -1979.3145    60363.045   -12691.333    975.53087   -13666.864    40.987107 
   12100    250.03584   -482.79781    60354.816   -12670.691    981.57241   -13652.264      41.1167 
   12150    251.59878     -1537.03     60398.03    -12665.76    987.70806   -13653.468    41.276605 
   12200    262.18118   -1411.5646    60428.888   -12650.133    1029.2517   -13679.385    41.525567 
   12250    262.35384   -2195.2301    60441.162   -12660.161    1029.9295   -13690.091    41.580234 
   12300     249.5802   -1897.6912    60423.296   -12641.558    979.78369   -13621.342    41.517112 
   12350    255.64682    -1735.106    60390.383   -12648.315    1003.5996   -13651.915    41.681305 
   12400    258.16818   -665.02783    60373.184   -12638.714    1013.4978   -13652.212    41.738077 
   12450    256.43046   -1571.8092    60414.996   -12637.281    1006.6759   -13643.957     41.96246 
   12500    257.92809   -1504.0773    60511.612   -12638.865    1012.5552   -13651.421    42.117517 
   12550     257.0945   -1686.6781    60613.515   -12629.057    1009.2828    -13638.34    42.062443 
   12600    257.39001   -2170.1467    60677.952   -12634.876    1010.4429   -13645.319    41.976247 
   12650    261.26655   -2624.4412    60678.007   -12631.888    1025.6611   -13657.549     42.20418 
   12700    263.93674   -2604.5087    60593.685    -12635.43    1036.1436   -13671.574    42.180675 
   12750    258.26044   -2115.3188    60514.231   -12633.357    1013.8599   -13647.217    42.282172 
   12800    264.27199   -1895.6645    60476.779   -12642.537    1037.4597   -13679.997    42.534464 
   12850    257.51436   -1670.2512    60462.887   -12647.986     1010.931   -13658.917    42.750398 
   12900    259.15394   -1422.7589    60481.608   -12651.539    1017.3676   -13668.907    42.675795 
   12950    259.36093   -1667.2133     60558.13   -12652.547    1018.1802   -13670.727     42.68134 
   13000    261.67633   -676.24491    60629.603   -12632.141    1027.2698   -13659.411    42.546781 
   13050    262.89294   -1209.2845    60716.373   -12628.808    1032.0459   -13660.854    42.427615 
   13100    258.18523   -2227.0291    60775.299   -12627.789    1013.5647   -13641.354    42.595869 
   13150    255.79513   -2126.0797    60758.691   -12641.581    1004.1818   -13645.763    42.596717 
   13200    260.37185   -1562.9121     60692.73   -12631.371    1022.1488   -13653.519     42.68243 
   13250    256.24625   -1308.1312    60599.493    -12635.28    1005.9528   -13641.233    42.589039 
   13300    260.89584   -1037.6363    60519.885   -12647.057    1024.2058   -13671.263    42.591984 
   13350     251.3039   -1009.9223     60490.93   -12644.842    986.55045   -13631.392    42.738695 
   13400    252.36138   -1094.4256    60476.295   -12654.154    990.70186   -13644.856    42.855148 
   13450    248.79651   -1368.5831    60489.555    -12644.73    976.70715   -13621.437    43.045265 
   13500    258.30796   -2448.2388    60481.779   -12648.038    1014.0465   -13662.084    43.273981 
   13550    253.34354   -1615.6431    60395.928   -12649.679    994.55755   -13644.236    43.305232 
   13600     252.9573   -1233.2893    60273.745   -12651.804    993.04126   -13644.845    43.320094 
   13650    256.72041   -1437.6432    60182.078   -12660.469    1007.8142   -13668.283    43.472491 
   13700    255.73566   -1567.8754     60106.31   -12655.763    1003.9483   -13659.712    43.938386 
   13750    253.69652   -659.05736    60019.784   -12644.155    995.94324   -13640.098    44.223939 
   13800    258.67574   -106.54036    59992.148   -12631.328    1015.4903   -13646.818    44.387489 
   13850     252.4672   -1810.2861    60058.755   -12628.216    991.11727   -13619.333    44.650743 
   13900    257.05467   -1824.1499     60099.01   -12632.688    1009.1264   -13641.815    44.899521 
   13950     253.7821   -1451.5937    60102.254   -12629.746    996.27919   -13626.025    45.096999 
   14000    253.00131   -1858.4457    60093.845   -12635.612    993.21405   -13628.826    45.402074 
   14050    249.90665   -989.11436    60063.688   -12640.255    981.06525    -13621.32    45.307215 
   14100    255.13146   -1547.6331    60027.104   -12610.888    1001.5764   -13612.464    45.448985 
   14150    248.69806   -2403.5273    59936.611   -12622.835    976.32065   -13599.155    45.412511 
   14200    255.56881   -1634.2926    59786.773   -12642.693    1003.2933   -13645.987     45.63098 
   14250    251.51274   -1600.5265    59624.678   -12659.386    987.37032   -13646.757    46.089954 
   14300    260.85793    -732.9239    59512.439   -12654.095     1024.057   -13678.152    46.515139 
   14350    256.25494   -652.83421    59491.693   -12662.793    1005.9869    -13668.78    46.640892 
   14400    251.77079   -1231.9074    59515.927   -12664.444    988.38336   -13652.828    46.703247 
   14450    261.93334   -863.00714    59538.096   -12660.423    1028.2787   -13688.702    46.913639 
   14500    255.96179   -878.03912    59602.321   -12648.852    1004.8361   -13653.688    47.198322 
   14550     255.4193   -1041.3662    59708.337   -12665.244    1002.7064   -13667.951    47.189649 
   14600    251.49906   -1918.4621    59822.696    -12657.79     987.3166   -13645.106    47.443205 
   14650    251.04805   -1151.2095    59900.797   -12645.788    985.54608   -13631.334    47.675266 
   14700     252.5138   -1604.6217    59992.463   -12626.721    991.30019   -13618.021    47.730015 
   14750    243.35235   -1786.0452    60084.443   -12632.406    955.33484   -13587.741    47.725297 
   14800    254.51479    -1096.867    60155.293   -12621.247    999.15556   -13620.403    47.805374 
   14850    255.51564   -1592.3854    60195.443   -12622.264    1003.0846   -13625.349    48.140467 
   14900    252.08042   -1537.7697    60209.424   -12628.796    989.59888   -13618.395    48.352633 
   14950     252.6507    -1877.019    60216.521   -12635.386    991.83763   -13627.223    48.783249 
   15000    251.27758   -2156.3723     60229.18   -12649.907    986.44714   -13636.354    48.925704 
   15050    246.56462   -1574.1528    60256.221   -12655.321    967.94536   -13623.266    48.878448 
   15100    248.61312   -1534.0595    60326.416   -12663.604    975.98718   -13639.592    48.709502 
   15150    249.55688   -1471.4155    60426.021   -12664.825    979.69216   -13644.517    48.831783 
   15200    256.49505    -1471.012    60523.769   -12681.304    1006.9295   -13688.234    48.840776 
   15250    252.06889   -1592.6119     60592.07   -12676.866    989.55362    -13666.42    48.897472 
   15300    258.72719    -2058.011    60617.599   -12668.751    1015.6923   -13684.444    49.010645 
   15350    251.64726   -2277.3536    60600.302   -12666.871    987.89838    -13654.77    49.221215 
   15400    252.39558   -2466.8078    60548.639   -12682.768    990.83612   -13673.604     49.38786 
   15450    242.33793    -1597.192    60475.727   -12711.514    951.35252   -13662.866    49.496565 
   15500    255.91438   -1852.9545    60406.065   -12725.049      1004.65   -13729.699    49.528042 
   15550    243.71113   -2122.2718    60334.749   -12711.656    956.74332   -13668.399    49.908831 
   15600    245.12805   -1380.2381    60294.067   -12706.578    962.30577   -13668.883    50.145879 
   15650    245.04816   -1579.6839    60267.927   -12690.104    961.99213   -13652.096    50.180256 
   15700    241.42532   -1432.5105    60236.325   -12675.072    947.76988   -13622.841    50.015249 
   15750     250.4924   -1890.1843    60211.626   -12670.235    983.36474   -13653.599    50.051816 
   15800    250.57836   -2100.5888    60171.471   -12674.205    983.70221   -13657.907    50.541608 
   15850    248.52488   -1368.1535    60146.897   -12673.106     975.6408   -13648.747    50.662569 
   15900    247.90609   -1424.1869    60180.651   -12669.866     973.2116   -13643.078    50.746417 
   15950    246.35831   -1047.4298    60238.215   -12666.298    967.13544   -13633.433    50.955279 
   16000     262.5744   -2625.1851    60286.564   -12660.906    1030.7954   -13691.701    51.101011 
   16050    254.55753   -2054.6771     60263.36   -12663.385    999.32331   -13662.708    51.072021 
   16100    257.55178   -1513.1034    60229.635   -12674.685    1011.0779   -13685.763    51.040237 
   16150    247.82415   -1024.9437    60211.026   -12663.615     972.8899   -13636.505      51.0311 
   16200    257.03044   -1781.7519    60226.268   -12650.551    1009.0313   -13659.582    51.171195 
   16250     261.1509   -1758.2211    60291.855   -12651.103    1025.2071    -13676.31    51.413177 
   16300    262.95236    -1885.406    60380.487   -12642.106    1032.2791   -13674.385    51.379681 
   16350    259.02261   -1821.2424    60495.457   -12640.198     1016.852    -13657.05     51.38029 
   16400    260.22414   -1306.4863    60610.309   -12652.366    1021.5689   -13673.935    51.250393 
   16450    249.13297   -1662.7177    60717.554   -12644.373      978.028   -13622.401     51.28214 
   16500    268.04388   -1471.0735    60762.291   -12659.902    1052.2671   -13712.169    51.559146 
   16550    266.82904   -2150.3305    60787.175   -12677.887    1047.4979   -13725.385    51.783445 
   16600    249.95996   -1538.1034    60763.329    -12685.42    981.27452   -13666.694     51.74013 
   16650     270.0689   -1338.7107    60740.493   -12692.402    1060.2167   -13752.619    52.000842 
   16700    262.44486   -1543.8241    60730.663   -12676.419    1030.2868   -13706.706    52.103641 
   16750    257.62543   -2128.0482    60682.484   -12676.479    1011.3671   -13687.846    52.509698 
   16800    267.95423   -1955.2376    60611.679   -12662.179    1051.9151   -13714.094    53.091555 
   16850    256.32568   -1732.6765    60533.989   -12661.483    1006.2646   -13667.747    53.433836 
   16900    247.89514   -2517.3243    60509.135   -12675.712    973.16861    -13648.88    53.459177 
   16950    254.25387   -2037.7793     60507.13   -12668.378    998.13124   -13666.509    53.491237 
   17000    248.73996    -2097.729    60512.771   -12677.592    976.48512   -13654.077    53.535431 
   17050    256.37685   -2273.9093    60497.169   -12665.436    1006.4655   -13671.902    53.509109 
   17100    252.57482   -1414.9717    60483.401   -12660.444    991.53976   -13651.984    53.934106 
   17150    259.72537   -1438.1735     60462.71   -12658.093    1019.6109   -13677.704    53.894347 
   17200    243.88437   -1987.8506    60484.897   -12657.033    957.42343   -13614.456    53.877891 
   17250    250.40437   -2010.0619    60512.717   -12668.855    983.01915   -13651.874    53.870636 
   17300    253.58008   -1990.6668    60493.512   -12673.128    995.48614   -13668.614    54.005915 
   17350    254.49283   -2089.2596    60409.698   -12685.226    999.06933   -13684.295    54.174243 
   17400    258.97001   -957.94618    60317.447   -12686.191    1016.6455   -13702.836    54.509522 
   17450    250.87809   -792.14805    60286.007   -12696.326    984.87886   -13681.205    54.948009 
   17500    244.95926   -2141.7656    60321.486   -12706.443    961.64313   -13668.086    55.141031 
   17550    250.23366   -1946.2464    60381.215   -12701.275    982.34901   -13683.625    55.499187 
   17600    253.39226   -2553.1867     60462.14   -12702.294    994.74879   -13697.043    55.491355 
   17650    252.87686   -1814.6536    60508.887   -12695.076    992.72546   -13687.802    55.375882 
   17700    257.15943   -2192.6353    60550.402   -12699.096    1009.5377   -13708.634    55.320148 
   17750    253.73093   -1455.2009    60581.599   -12712.657    996.07833   -13708.735    55.133515 
   17800    242.71861   -1495.9011    60615.974   -12707.172    952.84698   -13660.019    55.073357 
   17850    248.72196   -1956.7171    60625.299   -12716.297    976.41446   -13692.711    55.339287 
   17900    247.74966   -1153.7575    60562.053   -12721.605     972.5975   -13694.202    55.453671 
   17950    248.57379   -1161.3962    60510.285   -12721.232    975.83279   -13697.065     55.42369 
   18000    250.45989   -1732.3292    60475.721   -12731.324    983.23713   -13714.561    55.571954 
   18050    244.20671   -1523.6808     60439.04   -12742.776    958.68884   -13701.465    55.340512 
   18100    244.75568   -1406.8135    60445.544   -12737.314    960.84395   -13698.158     55.16443 
   18150    247.34823   -1381.5247     60477.36   -12746.522    971.02158   -13717.544    55.300253 
   18200    240.40759   -1617.6211    60510.769   -12755.558    943.77451   -13699.333    55.420788 
   18250    255.92333   -1009.3174    60527.533    -12765.35    1004.6851   -13770.035    55.099103 
   18300    248.70437   -1729.4909    60541.775   -12752.801    976.34541   -13729.146    55.267943 
   18350    241.21132    -1405.665    60535.215   -12739.073    946.92973   -13686.003    55.419547 
   18400    245.58402   -1350.6124    60502.271   -12757.262    964.09579   -13721.358    55.441071 
   18450    246.25841   -1013.8586    60462.321   -12748.149    966.74324   -13714.892     55.84373 
   18500    250.85055   -1879.9175    60463.394   -12731.775    984.77072   -13716.546    55.931247 
   18550    249.31329   -1348.5508    60488.815   -12730.348    978.73588   -13709.083    56.064741 
   18600    243.12153   -1301.1366    60502.193   -12726.589     954.4287   -13681.017    56.061097 
   18650    251.90793   -1741.8337    60533.537   -12714.562    988.92171   -13703.484    56.012949 
   18700    249.72121   -2125.7044      60591.8   -12704.603    980.33724    -13684.94    55.906806 
   18750    258.48759   -1851.6764    60663.651   -12680.544    1014.7517   -13695.296    56.213003 
   18800    248.96581   -1433.0257    60735.342    -12673.33    977.37176   -13650.702    56.231149 
   18850    248.45977   -2020.8185    60794.713   -12683.923    975.38518   -13659.308      56.2806 
   18900    253.79516   -1749.6106    60820.474   -12696.724    996.33049   -13693.054    56.419039 
   18950    256.32929   -1664.7417    60778.653   -12705.678    1006.2788   -13711.956    56.816035 
   19000    256.93606   -1986.4018    60689.602   -12698.359    1008.6608    -13707.02    57.041368 
   19050    252.53232   -1642.4659    60596.053   -12715.436    991.37292   -13706.809    57.116377 
   19100    253.25732   -1367.0576    60481.436   -12709.064    994.21907   -13703.283     57.24434 
   19150    251.56748   -1780.5933    60346.356   -12716.975    987.58521    -13704.56    57.315303 
   19200    247.41321   -1157.4031    60217.264   -12706.867    971.27669   -13678.144    57.321104 
   19250    243.86101   -1485.8267    60122.888   -12713.769     957.3317   -13671.101    57.195373 
   19300    248.75909   -2151.5834    60064.648   -12704.259    976.56025    -13680.82    57.183994 
   19350    247.51507   -1101.1561    60019.419   -12701.363    971.67656    -13673.04    57.079208 
   19400    252.69603   -1030.9759    59986.917   -12687.838    992.01558   -13679.854    57.203467 
   19450    251.17615   -1625.5556    59973.915   -12684.329    986.04894   -13670.378    57.533911 
   19500    251.49188   -1978.1964    59988.777   -12703.365    987.28843   -13690.653    57.529158 
   19550    253.56397   -1823.9203    59967.566   -12708.086    995.42288   -13703.509    57.636898 
   19600    249.98809   -1549.8414    59968.599   -12702.983    981.38496   -13684.368    57.744037 
   19650    258.79464   -1566.4706    60008.314   -12699.984    1015.9571   -13715.941     57.80877 
   19700    248.95592   -1629.4001    60047.877   -12702.193    977.33294   -13679.526    57.692827 
   19750    252.02055    -1078.556    60046.411   -12698.234    989.36384   -13687.597    57.698386 
   19800    244.44233    -1548.635    60041.305   -12701.549    959.61381   -13661.162    57.849075 
   19850     249.5628   -1858.8816    60045.362   -12695.539     979.7154   -13675.255    57.848685 
   19900    240.47988   -1368.2537    60055.206   -12684.132    944.05832    -13628.19    57.954271 
   19950    244.48955   -1130.3117    60075.311   -12689.055     959.7992   -13648.854     58.08895 
   20000    250.80914   -1657.2229    60136.447    -12692.59    984.60818   -13677.198    57.743855 
   20050    247.93757   -1430.0012    60177.785   -12701.956    973.33519   -13675.291    57.829743 
   20100    254.82609   -2092.8359    60171.234   -12720.232    1000.3776    -13720.61    57.735556 
   20150    256.95017   -1915.1658     60075.09   -12705.293    1008.7162   -13714.009    57.821006 
   20200    256.73457   -1236.9035    59969.264   -12725.709    1007.8698   -13733.579    58.092274 
   20250    252.68648   -1146.4238    59902.544   -12723.431    991.97812   -13715.409    58.072884 
   20300    246.20098   -1824.0487      59890.1   -12706.779    966.51781   -13673.296    57.726766 
   20350    249.99631   -1124.3046    59898.971   -12700.907    981.41723   -13682.324    57.952942 
   20400    250.64087   -860.60222        59945   -12704.353    983.94759   -13688.301    58.128796 
   20450    258.08616   -1691.2449    60000.783    -12713.43    1013.1758   -13726.606    58.087511 
   20500    254.08537    -2247.718    60042.417   -12703.827    997.46977   -13701.296    58.036566 
   20550    249.80096   -1576.6717     60058.73    -12697.78    980.65034    -13678.43    58.195962 
   20600    254.29692    -1247.546    60089.174   -12698.555    998.30026   -13696.856     58.30616 
   20650    258.55841   -1909.0105    60137.553   -12700.823    1015.0297   -13715.853    58.524434 
   20700    261.58366   -2111.0454    60162.237   -12682.001     1026.906   -13708.907     58.46266 
   20750     257.2893   -1610.3738    60148.592   -12690.385    1010.0475   -13700.433     58.56572 
   20800    250.31932   -1549.7927    60105.116   -12682.661    982.68528   -13665.346    58.622681 
   20850    256.96069   -1415.4489    60080.123   -12682.487    1008.7575   -13691.244    58.925091 
   20900    249.40994   -1608.9199    60101.927   -12694.493    979.11529   -13673.608     59.08475 
   20950    251.48777    -1934.186    60107.096   -12699.613    987.27229   -13686.885    59.245203 
   21000    254.20863   -2142.0002    60092.602   -12702.984    997.95365   -13700.937    59.428644 
   21050     243.7451   -1479.6657    60082.009   -12699.819     956.8767   -13656.696    59.475768 
   21100    244.83098   -1677.0584    60100.744   -12698.305    961.13956   -13659.445    59.517893 
   21150    250.80508   -1548.0451    60171.001   -12685.249    984.59222   -13669.841    59.613482 
   21200    252.75124   -1015.0083    60269.863   -12691.623    992.23233   -13683.855    59.896173 
   21250    258.99132   -1966.0255    60368.868   -12688.801    1016.7292    -13705.53    59.965609 
   21300    257.01752   -2075.0555     60434.14   -12688.337    1008.9806   -13697.318    60.175064 
   21350    247.76857   -2056.1207     60470.24   -12685.766    972.67172   -13658.437    60.118489 
   21400    258.55967    -1365.321     60467.81   -12681.453    1015.0346   -13696.487    60.071665 
   21450    259.67448   -1698.3695    60459.343   -12682.575    1019.4111   -13701.987    60.003017 
   21500    251.01291   -1468.4498    60457.668   -12683.572    985.40811   -13668.981    60.227045 
   21550    254.56857    -1706.347    60461.297     -12680.1    999.36668   -13679.467    60.117769 
   21600    258.80581    -1357.423    60449.808   -12667.262    1016.0009   -13683.263     60.12247 
   21650    252.81663   -751.79535    60484.092   -12652.582    992.48904   -13645.071    59.996885 
   21700    253.80281   -1705.4723    60573.466    -12661.39    996.36049    -13657.75    59.903434 
   21750    251.13365   -1715.2791    60671.668   -12648.008    985.88212    -13633.89    59.936086 
   21800    257.24618   -2183.8173    60753.299   -12629.828    1009.8782   -13639.706    60.039019 
   21850    249.13512   -1734.4242    60781.685   -12644.574    978.03644   -13622.611    60.078179 
   21900      246.076   -2555.7228    60757.546   -12642.308    966.02717   -13608.336    60.301856 
   21950    251.93874   -2125.9883    60673.599   -12642.619    989.04266   -13631.662    60.325805 
   22000    253.30182    -1822.112    60571.785   -12633.691    994.39373   -13628.084    60.405219 
   22050    257.30439   -1061.9072    60460.472    -12628.16    1010.1068   -13638.267    60.488076 
   22100    241.86938   -2006.5414    60375.917   -12632.095    949.51312   -13581.608    60.773941 
   22150    252.08082   -1200.5508    60320.436   -12610.522    989.60043   -13600.122    60.926022 
   22200    257.78047   -1561.8545    60318.275   -12608.294    1011.9757   -13620.269    60.998079 
   22250    257.35943   -1477.7333    60292.415   -12591.089    1010.3228   -13601.412    61.254458 
   22300    262.76404   -1606.7902    60301.929    -12595.11    1031.5398    -13626.65    61.462279 
   22350    258.78208   -1931.9384    60403.305   -12604.914    1015.9078   -13620.821    61.337722 
   22400    257.73272    -1913.241    60527.028   -12596.894    1011.7883   -13608.682    61.149181 
   22450    262.63229   -1605.9734    60609.786   -12598.788    1031.0226    -13629.81     61.18986 
   22500    260.20421   -2000.1832    60662.533   -12601.391    1021.4906   -13622.882    61.363101 
   22550    250.87066   -2039.3718    60694.112    -12606.26     984.8497    -13591.11    61.137868 
   22600    255.19027   -1798.6146     60681.76   -12610.665    1001.8073   -13612.472    61.416148 
   22650    259.97011   -1799.2963    60636.146   -12609.519    1020.5716   -13630.091    61.644707 
   22700    262.48097   -1592.5342    60574.111   -12627.349    1030.4286   -13657.778    61.805088 
   22750    259.31679   -2017.2027    60495.865   -12639.308    1018.0069   -13657.315    61.977102 
   22800    255.10227   -1071.2004    60392.563   -12648.172    1001.4618   -13649.633    62.113499 
   22850    257.08161   -665.19249    60356.658   -12639.566    1009.2322   -13648.799    62.363158 
   22900    255.37548   -1162.0758    60384.042   -12648.827    1002.5344   -13651.362    62.566777 
   22950    247.66241   -2114.2854    60407.094    -12651.27    972.25498   -13623.525     62.64031 
   23000     258.4273   -2341.2012    60371.345   -12642.138     1014.515   -13656.653    62.916493 
   23050     250.2001   -2089.6256    60305.279   -12629.525    982.21725   -13611.742    63.030727 
   23100    251.95191    -1554.065    60228.917   -12631.041    989.09436   -13620.135    63.350759 
   23150    252.68282   -2237.6133    60129.864   -12642.515    991.96374   -13634.479    63.142291 
   23200    249.67398   -1319.4053    60000.175    -12637.73    980.15185   -13617.882    63.371836 
   23250      252.477   -1615.5463    59867.108   -12650.511    991.15573   -13641.667    63.146464 
   23300    250.72353   -1115.5696     59747.55    -12651.24    984.27208   -13635.512    62.943424 
   23350    248.73545   -1325.5492    59694.854    -12651.92    976.46744   -13628.387    63.122653 
   23400    249.05621   -931.07888    59706.905    -12656.27    977.72666   -13633.996    63.109896 
   23450    247.28412   -1631.8513    59732.488   -12676.268     970.7699   -13647.038    62.998804 
   23500    250.48527   -1936.6647    59760.177   -12669.269    983.33675   -13652.605    63.221153 
   23550    248.02231   -1353.3301     59777.87   -12663.801    973.66782   -13637.469    63.269542 
   23600    252.94354   -1565.9259    59833.728   -12651.756    992.98725   -13644.743    63.508506 
   23650    253.52873   -575.48097    59895.635   -12638.291    995.28452   -13633.575    63.719044 
   23700     257.4667   -834.03402    59988.052    -12627.02    1010.7439   -13637.764    63.419513 
   23750    254.71166   -1643.5498    60100.464   -12628.508     999.9284   -13628.436    63.609366 
   23800    254.68405   -1723.2127    60204.616   -12628.686    999.82001   -13628.506    63.735538 
   23850    261.15053   -2541.5104     60267.08   -12626.688    1025.2056   -13651.893    63.951988 
   23900    258.84223   -1544.4156    60278.866   -12630.419    1016.1439   -13646.563    64.165009 
   23950     255.9036   -1175.9021    60268.462   -12644.972    1004.6076    -13649.58    64.044118 
   24000    249.61086   -1985.7276    60244.941   -12652.082    979.90404   -13631.986     64.04821 
   24050    251.88674   -1372.7073    60208.542   -12640.868    988.83855   -13629.707    64.158932 
   24100    260.64798   -1675.2034    60179.605   -12633.167    1023.2328     -13656.4     63.98448 
   24150    260.28812   -1266.3603    60191.098   -12643.665    1021.8201   -13665.485    64.315619 
   24200    257.25127   -934.47697    60252.163   -12648.814    1009.8982   -13658.713     64.35074 
   24250    250.77808   -2031.8699    60301.538    -12657.18    984.48625   -13641.667    64.095923 
   24300    248.07604   -1494.5557    60281.947   -12665.829    973.87876   -13639.708    64.552759 
   24350    252.47544   -1089.3364    60230.346   -12660.444    991.14963   -13651.594     64.71284 
   24400    248.06176   -1833.2185    60205.481   -12671.642    973.82271   -13645.464    64.864815 
   24450    249.68095   -1602.9328    60160.874   -12669.285     980.1792   -13649.464    64.992493 
   24500    254.05049   -1664.1093    60068.193   -12668.309    997.33281   -13665.642    64.991046 
   24550    250.39874   -1756.6475    60033.418   -12656.465    982.99705   -13639.462    64.988892 
   24600    250.24486   -1677.5751    60072.785   -12648.272    982.39296   -13630.665    65.235386 
   24650    251.25813   -1729.0168    60121.802   -12641.103    986.37079   -13627.474    65.371406 
   24700    251.17549   -1524.8525    60148.166   -12623.639    986.04635   -13609.685    65.648375 
   24750    260.46365   -1396.4179    60119.557   -12616.356    1022.5091   -13638.865    66.021968 
   24800    254.05855   -1135.8085    60094.987   -12611.106    997.36447   -13608.471    66.062079 
   24850    256.95147   -879.46239    60105.214    -12595.63    1008.7213   -13604.351    66.367714 
   24900    251.23327   -2152.0059    60185.823   -12605.263     986.2732   -13591.536    66.736102 
   24950    261.35508   -1413.3797    60270.306   -12612.674    1026.0087   -13638.683    66.913458 
   25000    256.54359   -1270.0576    60337.812   -12619.398      1007.12   -13626.518    66.873492 
Loop time of 49.4504 on 12 procs for 25000 steps with 4078 atoms

Performance: 436.802 ns/day, 0.055 hours/ns, 505.557 timesteps/s
95.3% CPU use with 12 MPI tasks x no OpenMP threads

MPI task timing breakdown:
Section |  min time  |  avg time  |  max time  |%varavg| %total
---------------------------------------------------------------
Pair    | 19.756     | 24.263     | 29.207     |  79.7 | 49.07
Neigh   | 1.4397     | 3.3284     | 5.5284     | 102.2 |  6.73
Comm    | 9.8587     | 16.672     | 22.776     | 135.2 | 33.71
Output  | 0.16485    | 0.16824    | 0.20056    |   2.4 |  0.34
Modify  | 4.2974     | 4.5703     | 4.8197     |   9.7 |  9.24
Other   |            | 0.4489     |            |       |  0.91

Nlocal:        339.833 ave         540 max         170 min
Histogram: 6 0 0 0 0 0 0 0 2 4
Nghost:        1585.67 ave        1783 max        1388 min
Histogram: 3 1 2 0 0 0 0 0 4 2
Neighs:        0.00000 ave           0 max           0 min
Histogram: 12 0 0 0 0 0 0 0 0 0
FullNghs:      37020.2 ave       69424 max        9187 min
Histogram: 6 0 0 0 0 0 0 0 2 4

Total # of neighbors = 444242
Ave neighs/atom = 108.93624
Neighbor list builds = 2877
Dangerous builds = 0

unfix           3
unfix           4
undump          1


# Run 0.25 ns equilibration of water in NVE ensemble
#
fix            3 water nve
dump		1 all atom 2000 nve.${NAME}.dump
dump		1 all atom 2000 nve.ML_graphite_m1000atm_255K.dump
run	        25000
Per MPI rank memory allocation (min/avg/max) = 5.054 | 5.056 | 5.060 Mbytes
Step c_2 v_water_press Volume TotEng KinEng PotEng c_1[4] 
   25000    256.54359   -1270.0576    60337.812   -12619.398      1007.12   -13626.518    66.873492 
   25050    257.61689     -2131.41    60337.812   -12619.482    1011.3335   -13630.815    66.754078 
   25100    252.03715    -2077.476    60337.812   -12619.047    989.42898   -13608.476    66.669911 
   25150    256.15658   -1258.4675    60337.812   -12618.937    1005.6008   -13624.537    66.982885 
   25200     258.2099   -1180.3177    60337.812   -12619.293    1013.6615   -13632.954    67.227557 
   25250     260.5916   -1147.3823    60337.812    -12619.93    1023.0114   -13642.941    67.478142 
   25300    247.10618   -1990.1685    60337.812   -12618.878    970.07136   -13588.949    67.598729 
   25350    261.20727   -1793.0551    60337.812   -12619.394    1025.4284   -13644.823    67.619575 
   25400    257.75688   -1739.4064    60337.812   -12619.289    1011.8831   -13631.172    67.486476 
   25450     261.8165   -1321.7361    60337.812   -12619.687    1027.8201   -13647.508    67.824782 
   25500    257.41856   -2423.2772    60337.812   -12620.144     1010.555   -13630.699    67.854756 
   25550    257.46759   -1635.0764    60337.812   -12619.004    1010.7474   -13629.752    67.869438 
   25600    258.98154   -1778.8514    60337.812   -12619.011    1016.6908   -13635.702    68.094465 
   25650    258.44119   -1261.8641    60337.812   -12619.158    1014.5695   -13633.727    68.014719 
   25700    260.99236   -1862.2284    60337.812   -12619.332    1024.5847   -13643.917    68.242606 
   25750    262.69737   -1393.2057    60337.812   -12620.162    1031.2781    -13651.44    68.605859 
   25800    260.00142     -1061.86    60337.812   -12620.051    1020.6945   -13640.745     68.66861 
   25850    263.04404   -1658.3103    60337.812   -12620.069     1032.639   -13652.708    68.629095 
   25900     263.7109   -2490.5883    60337.812   -12619.059     1035.257   -13654.316    68.628812 
   25950    260.29676   -1675.0438    60337.812   -12619.594     1021.854   -13641.448     68.76464 
   26000     259.0511   -2053.6494    60337.812   -12618.787    1016.9638   -13635.751    68.691559 
   26050    266.03426   -1847.7401    60337.812    -12620.01    1044.3778   -13664.388    68.838617 
   26100     261.4837   -2007.1936    60337.812   -12619.421    1026.5136   -13645.934    68.849717 
   26150    252.80214   -1936.5637    60337.812   -12618.758    992.43216    -13611.19    68.933024 
   26200    253.49364   -2254.3784    60337.812     -12619.3    995.14679   -13614.446    69.051586 
   26250    257.03927   -1116.4467    60337.812   -12619.052     1009.066   -13628.118    69.254431 
   26300    257.91809    -1583.145    60337.812   -12619.312    1012.5159   -13631.828    69.068784 
   26350    258.51491   -1257.4314    60337.812   -12620.363    1014.8589   -13635.222    69.225817 
   26400     257.0894    -1366.545    60337.812   -12619.372    1009.2627   -13628.635    68.975701 
   26450    263.98914   -1426.4776    60337.812   -12620.437    1036.3493   -13656.786     69.24263 
   26500    249.42601   -2168.6315    60337.812    -12619.35    979.17838   -13598.528    69.487009 
   26550    259.53495   -1926.0111    60337.812   -12618.879    1018.8633   -13637.742    69.452038 
   26600    253.83286    -1277.688    60337.812   -12619.507    996.47848   -13615.985    69.741652 
   26650    257.46354   -999.00609    60337.812   -12619.408    1010.7315    -13630.14    70.033593 
   26700    258.52112   -1382.7896    60337.812   -12619.041    1014.8833   -13633.924    70.064237 
   26750    255.04206    -2547.396    60337.812    -12619.05    1001.2255   -13620.275    70.220838 
   26800    253.37848   -1950.4897    60337.812   -12619.085    994.69468   -13613.779    70.264826 
   26850    263.06244    -1904.679    60337.812   -12619.903    1032.7113   -13652.614    70.563932 
   26900    261.27159   -1886.6491    60337.812   -12619.728    1025.6809   -13645.409     70.88285 
   26950    260.16364   -2029.9722    60337.812   -12618.951    1021.3314   -13640.282     71.33563 
   27000    248.97536   -1659.4518    60337.812   -12618.368    977.40927   -13595.777    70.861349 
   27050    263.47793   -1943.6212    60337.812    -12620.51    1034.3424   -13654.853    71.178801 
   27100    253.51348   -1221.2038    60337.812   -12618.995    995.22468    -13614.22    71.330597 
   27150    256.97184    -1754.741    60337.812   -12618.625    1008.8013   -13627.426    71.282671 
   27200     256.8372   -1523.9684    60337.812   -12619.165    1008.2727   -13627.437    71.476017 
   27250    264.52558   -714.82438    60337.812    -12619.11    1038.4551   -13657.565    71.630397 
   27300    259.63105   -1632.5825    60337.812    -12619.18    1019.2406   -13638.421    72.199629 
   27350    255.42932   -1647.1783    60337.812   -12618.439    1002.7457   -13621.185    72.311212 
   27400    252.32896   -1217.6746    60337.812   -12618.426    990.57459       -13609    72.699382 
   27450    252.46704   -1759.9535    60337.812   -12618.895    991.11663   -13610.012     72.82605 
   27500    258.37797   -2207.7377    60337.812   -12619.101    1014.3213   -13633.423    73.239214 
   27550    260.56717    -1972.665    60337.812   -12619.404    1022.9155    -13642.32    73.267065 
   27600    264.40742   -1199.7811    60337.812   -12618.254    1037.9913   -13656.245    73.336454 
   27650     260.5723   -1417.6066    60337.812   -12618.928    1022.9357   -13641.864    73.531703 
   27700    267.57719   -1827.2579    60337.812   -12619.558     1050.435   -13669.993    73.577866 
   27750    266.41611   -1600.0993    60337.812   -12619.604    1045.8769   -13665.481    73.453125 
   27800    259.76356   -1855.1801    60337.812   -12619.587    1019.7608   -13639.348    73.577874 
   27850    259.24116   -1954.0565    60337.812    -12619.41      1017.71    -13637.12    73.573054 
   27900    262.61993   -1520.9149    60337.812   -12619.503    1030.9741   -13650.477    73.621611 
   27950    251.40416   -855.96391    60337.812   -12618.447    986.94407   -13605.391    73.410077 
   28000    259.62235   -1130.1027    60337.812   -12619.188    1019.2064   -13638.394    73.651909 
   28050    256.96906   -2443.9443    60337.812   -12619.216    1008.7903   -13628.007    73.727048 
   28100    256.71772   -1782.3127    60337.812   -12618.385    1007.8036   -13626.188    73.656567 
   28150    259.54705   -2000.7203    60337.812   -12618.521    1018.9108   -13637.432    73.763108 
   28200    262.22695   -671.10523    60337.812   -12618.743    1029.4314   -13648.174    73.531985 
   28250    262.93366    -1638.296    60337.812   -12619.705    1032.2057    -13651.91    73.929492 
   28300    262.94096   -1192.6224    60337.812   -12619.475    1032.2344   -13651.709    73.773185 
   28350    258.56294   -1056.7873    60337.812   -12619.372    1015.0475    -13634.42    74.191169 
   28400    264.30627   -1308.0045    60337.812   -12619.318    1037.5942   -13656.912    74.294523 
   28450    258.04292   -1455.1042    60337.812   -12619.273     1013.006   -13632.279    74.301042 
   28500    257.12135   -1162.0932    60337.812   -12619.294    1009.3882   -13628.683    74.604741 
   28550    260.50104   -978.08141    60337.812    -12618.95    1022.6559   -13641.606    74.853742 
   28600    259.40658   -1419.2706    60337.812   -12619.107    1018.3594   -13637.466    75.071078 
   28650    259.30247   -1718.6004    60337.812   -12619.223    1017.9507   -13637.173    75.318041 
   28700    255.71479   -1399.3161    60337.812   -12619.158    1003.8664   -13623.024    75.560177 
   28750    248.58258   -1649.1737    60337.812   -12617.958    975.86729   -13593.825     75.41768 
   28800    249.87265    -1457.988    60337.812   -12618.536    980.93177   -13599.468    75.559106 
   28850    260.45531   -2038.6455    60337.812   -12619.523    1022.4764   -13641.999    75.650008 
   28900    257.06344   -1273.1306    60337.812   -12618.975    1009.1608   -13628.136     76.09397 
   28950    263.45147   -1421.0687    60337.812   -12619.242    1034.2385   -13653.481    76.060209 
   29000    261.41976   -1664.2384    60337.812   -12619.052    1026.2626   -13645.315    76.422573 
   29050    261.56795   -1248.7954    60337.812    -12618.94    1026.8443   -13645.785    76.585186 
   29100    261.28058   -1518.6158    60337.812   -12618.949    1025.7162   -13644.665    76.621345 
   29150    263.42189   -1443.0577    60337.812   -12619.459    1034.1224   -13653.581     76.97604 
   29200    253.20213   -1087.9422    60337.812   -12618.809    994.00239   -13612.811     77.16483 
   29250    255.53178    -2048.457    60337.812   -12619.136     1003.148   -13622.284    77.433901 
   29300    265.66905   -1174.9803    60337.812    -12620.15    1042.9441   -13663.094    77.468725 
   29350    249.38104   -1745.6783    60337.812   -12618.027    979.00183   -13597.029    77.733092 
   29400    253.54958   -1928.7635    60337.812   -12619.211    995.36639   -13614.578    77.802507 
   29450    264.95047   -1446.7831    60337.812   -12619.541    1040.1232   -13659.664    77.893144 
   29500    269.22906   -2382.3912    60337.812   -12620.126    1056.9198   -13677.045    78.147617 
   29550    261.38086   -1658.1954    60337.812   -12618.863    1026.1098   -13644.973    78.046347 
   29600    259.62709   -1448.2162    60337.812   -12618.584     1019.225   -13637.809    78.323605 
   29650    253.78361   -1510.4656    60337.812   -12619.014    996.28514   -13615.299    78.250745 
   29700    262.80542   -1435.0394    60337.812   -12620.125    1031.7023   -13651.827    78.486501 
   29750    260.08008   -1366.7273    60337.812   -12620.034    1021.0033   -13641.037    78.709892 
   29800    248.96064   -1509.7113    60337.812   -12618.183    977.35145   -13595.534    78.995429 
   29850      257.829   -1366.3478    60337.812   -12618.866    1012.1662   -13631.032    78.715511 
   29900    258.66595   -2213.0673    60337.812   -12619.043    1015.4519   -13634.495    78.847129 
   29950    256.97979   -1703.5477    60337.812   -12618.995    1008.8325   -13627.827    78.909574 
   30000    273.21951   -1241.4275    60337.812   -12620.787    1072.5852   -13693.372    79.211108 
   30050    261.55783   -603.17643    60337.812   -12619.408    1026.8046   -13646.213    79.567289 
   30100    261.49574   -1575.1218    60337.812   -12619.651    1026.5609   -13646.212    79.701577 
   30150    258.22959   -1627.1364    60337.812   -12618.807    1013.7388   -13632.546    79.524517 
   30200    263.09218   -1520.1334    60337.812   -12619.394     1032.828   -13652.222    79.564795 
   30250    263.32293   -1538.9482    60337.812   -12619.024    1033.7339   -13652.758    79.581964 
   30300    257.65346   -858.73431    60337.812   -12618.326    1011.4771   -13629.804    79.370594 
   30350    264.76271   -1443.7703    60337.812   -12619.981    1039.3861   -13659.367    79.564361 
   30400    265.30351   -1788.4318    60337.812   -12618.965    1041.5091   -13660.474    79.477894 
   30450    253.48829   -2087.7711    60337.812   -12618.507    995.12576   -13613.633    79.631803 
   30500     258.2104   -766.04573    60337.812   -12620.017    1013.6635    -13633.68    79.626272 
   30550    269.62542   -1537.0684    60337.812   -12620.366    1058.4757   -13678.841    79.552094 
   30600    248.11495   -1404.3731    60337.812   -12618.491    974.03152   -13592.522    79.691268 
   30650    262.57793   -1638.6348    60337.812   -12620.134    1030.8092   -13650.944     79.88574 
   30700    255.96101   -1067.3345    60337.812   -12619.481     1004.833   -13624.314    80.016478 
   30750    259.53003   -1765.1051    60337.812   -12619.697     1018.844   -13638.541    80.029555 
   30800    263.10553   -1313.0093    60337.812   -12619.592    1032.8804   -13652.472    80.282208 
   30850    251.57856   -1489.7947    60337.812    -12618.68    987.62871   -13606.308    80.104056 
   30900    256.26777   -915.52975    60337.812    -12618.98    1006.0373   -13625.018    80.641709 
   30950    247.95037   -1826.5965    60337.812   -12618.466    973.38544   -13591.852     80.45651 
   31000    250.83516   -1745.3244    60337.812   -12618.588    984.71031   -13603.298    80.626857 
   31050    249.98487   -1412.7505    60337.812   -12618.708     981.3723    -13600.08    80.563391 
   31100    254.48656   -2141.1417    60337.812   -12618.433    999.04472   -13617.478    80.610875 
   31150     261.4423   -1370.5232    60337.812   -12619.273    1026.3511   -13645.624    80.992202 
   31200    251.35253   -1572.8622    60337.812   -12618.108    986.74139    -13604.85    80.787293 
   31250    255.34911   -1436.8037    60337.812   -12618.401    1002.4309   -13620.832    80.774367 
   31300    256.34587   -1682.8441    60337.812   -12618.495    1006.3439   -13624.839    80.736883 
   31350    242.85692     -2135.14    60337.812   -12618.079    953.38992   -13571.469    80.854162 
   31400    254.78134   -1807.6915    60337.812   -12619.166    1000.2019   -13619.367    81.147451 
   31450    253.41051   -1441.6261    60337.812   -12618.965    994.82044   -13613.786    81.446042 
   31500    251.72008   -1831.3366    60337.812   -12618.451    988.18426   -13606.635    81.829165 
   31550    243.29467   -1553.4529    60337.812   -12618.384     955.1084   -13573.493    82.155907 
   31600    246.85077   -1718.0574    60337.812   -12617.639    969.06871   -13586.708    82.222877 
   31650    254.68985   -1311.5126    60337.812   -12618.965    999.84276   -13618.808     82.41952 
   31700    261.29732   -1754.3983    60337.812   -12619.199    1025.7819   -13644.981    82.331316 
   31750    258.80368   -1809.9548    60337.812   -12618.963    1015.9926   -13634.956    82.257187 
   31800     255.7888   -2118.8216    60337.812   -12618.973     1004.157    -13623.13    82.145093 
   31850    268.50941   -2107.4874    60337.812   -12620.297    1054.0946   -13674.391    82.029603 
   31900    259.02479   -2044.1186    60337.812   -12619.955    1016.8606   -13636.816    82.623125 
   31950    251.75079   -2117.0669    60337.812   -12618.494    988.30485   -13606.799    82.837865 
   32000    263.92967   -1879.9904    60337.812   -12619.682    1036.1158   -13655.798    82.713064 
   32050    260.73593   -1046.7295    60337.812   -12619.535     1023.578   -13643.113    83.104203 
   32100     269.8631   -1391.9092    60337.812   -12619.655    1059.4088   -13679.064    83.254073 
   32150    257.73388   -2047.2361    60337.812   -12619.102    1011.7928   -13630.894    83.470244 
   32200    264.60065    -1683.502    60337.812   -12619.721    1038.7499    -13658.47     83.58782 
   32250    261.28521   -1406.6878    60337.812   -12619.968    1025.7344   -13645.702    84.067973 
   32300    271.23143   -1331.8525    60337.812   -12620.102    1064.7805   -13684.883    84.188681 
   32350    260.47143   -1434.3518    60337.812   -12618.693    1022.5397   -13641.233    84.463173 
   32400    265.13744    -869.9652    60337.812   -12619.485    1040.8572   -13660.343    84.054644 
   32450    259.55998   -1482.6682    60337.812   -12619.857    1018.9616   -13638.819    84.252243 
   32500    262.99183   -1048.7912    60337.812   -12619.448    1032.4341   -13651.882    84.564506 
   32550    249.63916   -1418.5172    60337.812   -12618.044    980.01516   -13598.059    84.758808 
   32600    260.41286   -1290.0396    60337.812   -12619.457    1022.3098   -13641.767    84.786479 
   32650    262.69995   -1060.0676    60337.812     -12619.8    1031.2882   -13651.088    85.022221 
   32700     254.2015   -1699.8152    60337.812   -12619.023    997.92566   -13616.948    85.210238 
   32750    257.39707   -1716.3041    60337.812   -12619.047    1010.4706   -13629.518    85.215009 
   32800    254.98737   -2269.2869    60337.812   -12619.255    1001.0107   -13620.266    85.432797 
   32850    255.42359   -1755.1052    60337.812   -12618.865    1002.7232   -13621.588    85.581306 
   32900    260.89254   -1232.9438    60337.812   -12619.403    1024.1928   -13643.596    85.389939 
   32950    258.71034   -1377.9164    60337.812   -12619.037    1015.6261   -13634.663    85.846554 
   33000    264.27053   -1779.7951    60337.812   -12620.055    1037.4539   -13657.509    86.028849 
   33050    262.04019   -1646.9498    60337.812   -12619.585    1028.6982   -13648.283     86.10693 
   33100    255.30642   -2015.9914    60337.812   -12618.784    1002.2633   -13621.048     86.38198 
   33150    258.23845   -1470.5625    60337.812   -12619.001    1013.7736   -13632.775    86.269926 
   33200    257.73932   -1454.4968    60337.812   -12618.949    1011.8142   -13630.763     85.99818 
   33250    255.78355   -1726.1632    60337.812   -12618.669    1004.1364   -13622.805     86.13215 
   33300     250.5645   -1847.8857    60337.812   -12618.155    983.64778   -13601.803    86.406213 
   33350    249.84864   -1244.3525    60337.812   -12618.273    980.83752    -13599.11        86.31 
   33400     250.4998   -1940.9229    60337.812    -12618.67    983.39379   -13602.064    86.243126 
   33450    252.16231   -1515.9198    60337.812    -12618.71    989.92034    -13608.63     86.20226 
   33500    261.30437   -1804.8722    60337.812   -12619.727    1025.8096   -13645.537    86.423129 
   33550    258.59267   -1235.8524    60337.812   -12618.633    1015.1642   -13633.797    86.644484 
   33600    258.68768   -1271.3063    60337.812   -12619.493    1015.5372    -13635.03    86.718901 
   33650    254.37368   -2004.8681    60337.812   -12618.846    998.60159   -13617.448    87.159198 
   33700    258.96685   -1558.8082    60337.812   -12618.794    1016.6331   -13635.427    87.435086 
   33750    254.43328   -2298.1584    60337.812   -12618.942    998.83555   -13617.778    87.852306 
   33800    254.28716   -817.76598    60337.812   -12618.377    998.26191   -13616.639    87.926757 
   33850    257.64359   -1504.2037    60337.812   -12618.923    1011.4384   -13630.362    88.105597 
   33900    255.04205   -1951.4249    60337.812   -12618.725    1001.2254    -13619.95    88.417859 
   33950    251.93051   -2111.0773    60337.812    -12618.61    989.01035    -13607.62    88.476242 
   34000    257.23528   -2084.6258    60337.812   -12619.533    1009.8354   -13629.369    88.586041 
   34050    251.19567   -1825.7375    60337.812   -12618.922    986.12557   -13605.048    88.664118 
   34100    261.46047   -1852.0516    60337.812   -12619.551    1026.4224   -13645.974    88.915325 
   34150    260.31513    -1070.564    60337.812   -12619.363    1021.9261   -13641.289    89.030356 
   34200    251.16203   -1350.2374    60337.812    -12618.11    985.99351   -13604.103    89.177947 
   34250    261.74602   -2044.2805    60337.812   -12619.544    1027.5434   -13647.087    89.726613 
   34300    252.06704   -1261.6115    60337.812   -12618.979    989.54635   -13608.525    89.526841 
   34350    252.23125   -1412.2234    60337.812   -12618.882    990.19101   -13609.073    89.573113 
   34400    259.03854   -1594.3846    60337.812   -12619.458    1016.9145   -13636.373    89.599753 
   34450    253.28167   -1946.0767    60337.812   -12618.676    994.31463    -13612.99    89.762686 
   34500     262.3704   -878.75424    60337.812   -12619.663    1029.9945   -13649.657    89.812536 
   34550     264.0539    -852.2457    60337.812   -12618.127    1036.6035   -13654.731    90.100859 
   34600    260.38263   -1300.5283    60337.812   -12619.168    1022.1911   -13641.359      90.1627 
   34650    260.19619   -889.57916    60337.812   -12618.977    1021.4592   -13640.436    90.329811 
   34700    261.50689   -1250.7101    60337.812   -12619.301    1026.6046   -13645.906    90.069989 
   34750    260.43076   -1777.7187    60337.812   -12619.314      1022.38   -13641.694      90.2638 
   34800     250.6662    -1347.396    60337.812   -12618.537    984.04705   -13602.584    90.290718 
   34850    260.80312   -1624.6418    60337.812   -12618.956    1023.8418   -13642.798     90.44834 
   34900    248.72878   -957.79009    60337.812   -12619.307    976.44126   -13595.749    90.237477 
   34950    259.43004   -1243.1413    60337.812   -12619.189    1018.4515    -13637.64    90.271268 
   35000    253.15648   -2430.8737    60337.812   -12619.035     993.8232   -13612.859     90.55988 
   35050    260.06187   -1555.5475    60337.812   -12618.721    1020.9319   -13639.653    90.428635 
   35100    257.54095   -975.64516    60337.812   -12619.041    1011.0354   -13630.077    90.423371 
   35150    262.98429   -2146.7843    60337.812   -12619.487    1032.4045   -13651.891    90.528638 
   35200    259.82775   -2020.7457    60337.812   -12619.495    1020.0128   -13639.507    90.547472 
   35250    259.16444   -1253.4435    60337.812   -12618.673    1017.4088   -13636.081    90.919035 
   35300    260.00029   -1398.4966    60337.812   -12619.565    1020.6901   -13640.255     91.21676 
   35350    254.53608   -1626.4738    60337.812    -12618.64    999.23913   -13617.879    90.954345 
   35400    255.56843    -1574.635    60337.812   -12619.146    1003.2919   -13622.438    91.228876 
   35450    256.13218   -1578.2559    60337.812   -12618.356     1005.505   -13623.861    91.147143 
   35500       264.13   -1468.7509    60337.812    -12619.78    1036.9022   -13656.682    91.192306 
   35550    257.47435   -520.86214    60337.812   -12618.862     1010.774   -13629.636     91.41618 
   35600    260.44928   -907.38867    60337.812   -12619.028    1022.4527   -13641.481    91.677044 
   35650    261.60806    -1444.001    60337.812   -12618.892    1027.0018   -13645.894    91.813787 
   35700    249.70519   -1656.5188    60337.812   -12618.222    980.27437   -13598.497    92.117187 
   35750     256.2807   -1711.3257    60337.812   -12618.896     1006.088   -13624.984    91.864462 
   35800    253.15127   -1464.8174    60337.812   -12618.513    993.80274   -13612.315    92.163821 
   35850     264.1639   -1210.7864    60337.812   -12618.786    1037.0353   -13655.821    92.135668 
   35900    255.36838   -1126.6859    60337.812   -12618.823    1002.5065    -13621.33    92.251095 
   35950    267.05333   -1591.5731    60337.812   -12619.748    1048.3784   -13668.126    92.540121 
   36000    259.59561   -971.79453    60337.812   -12619.221    1019.1015   -13638.322    92.589887 
   36050    260.19976   -1136.3312    60337.812    -12618.98    1021.4732   -13640.453    92.885261 
   36100    249.39706   -1976.9127    60337.812   -12617.843    979.06471   -13596.908    93.236018 
   36150    257.74528    -2064.832    60337.812   -12618.559    1011.8376   -13630.397    92.722879 
   36200    250.73625   -1546.0291    60337.812   -12617.974    984.32201   -13602.296    92.518101 
   36250    254.00836   -2033.7176    60337.812   -12618.591    997.16742   -13615.758    92.607999 
   36300    260.00285   -1807.8435    60337.812   -12619.619    1020.7002   -13640.319    92.791585 
   36350    255.39542    -2335.627    60337.812   -12618.788    1002.6126     -13621.4     92.62657 
   36400     252.3246   -1765.7046    60337.812    -12617.87    990.55745   -13608.427    92.835682 
   36450    258.50384   -1663.2471    60337.812   -12618.348    1014.8155   -13633.164    92.798259 
   36500    257.43377   -1559.4344    60337.812   -12617.926    1010.6147   -13628.541     92.91195 
   36550    257.69715   -2113.8573    60337.812   -12618.807    1011.6486   -13630.456     92.96973 
   36600    253.65962   -1540.1847    60337.812   -12618.427    995.79839   -13614.226    93.082917 
   36650    257.18853   -1704.4675    60337.812   -12618.167    1009.6519   -13627.819    93.483819 
   36700    251.13999   -2234.8015    60337.812   -12618.123      985.907    -13604.03    93.695971 
   36750    262.85202   -2162.2965    60337.812   -12619.229    1031.8852   -13651.114    93.650423 
   36800    259.67986   -2175.1772    60337.812   -12619.064    1019.4322   -13638.497    93.499308 
   36850    258.56713   -1906.4783    60337.812   -12618.108    1015.0639   -13633.172    93.625292 
   36900    264.98299   -1292.2737    60337.812   -12618.995    1040.2508   -13659.246    94.143541 
   36950    261.53234   -1673.8071    60337.812   -12618.831    1026.7045   -13645.535     93.71735 
[...]
  140850     248.2264   -2063.9764    60765.379   -12663.022    974.46902   -13637.491    323.39119 
  140900    258.44761   -1576.6356    60713.292   -12658.853    1014.5947   -13673.448    323.19973 
  140950    256.89926   -1724.0612    60652.776   -12658.034    1008.5163   -13666.551    323.50148 
  141000    250.96251   -1687.2724    60590.281   -12655.382    985.21025   -13640.592    323.96722 
  141050    245.44799   -1928.0997    60534.409   -12669.161    963.56176   -13632.723    324.46634 
  141100    248.64332    -1781.048    60472.795    -12651.76    976.10575   -13627.866    324.81844 
  141150    251.37757   -1626.8849     60385.92   -12646.626    986.83966   -13633.465    325.28789 
  141200     260.1988   -1983.7583     60313.35   -12655.934    1021.4694   -13677.404    325.30571 
  141250    251.98121   -2211.3322    60238.705   -12648.182    989.20939   -13637.391    324.65306 
  141300    249.28292   -1717.3792    60167.585    -12646.45    978.61666   -13625.066    325.02937 
  141350    255.17119   -1578.5085    60104.978   -12658.743    1001.7324   -13660.476    325.03867 
  141400    256.17061    -1071.785    60052.434   -12670.718    1005.6558   -13676.374    325.08036 
  141450    256.87329   -1727.9291    60051.722    -12653.46    1008.4144   -13661.874    324.55381 
  141500    244.20129   -1556.5273    60064.613   -12661.905    958.66756   -13620.573    324.68345 
  141550     247.3179   -1112.4574     60079.59   -12649.701    970.90251   -13620.603    324.71074 
  141600    254.15628   -1477.8673    60120.567   -12658.861    997.74814    -13656.61    324.72087 
  141650    254.02181   -1715.6472    60196.956   -12645.165    997.22025   -13642.385    324.55928 
  141700     248.2423   -2081.2183    60308.791   -12660.145    974.53145   -13634.676    324.61749 
  141750    243.52935   -2127.1128    60391.176   -12646.918    956.02969   -13602.947    324.92264 
  141800    242.44438   -2120.0398    60423.863   -12647.689     951.7704   -13599.459    324.53933 
  141850    247.78228   -1899.5752    60389.962   -12649.224    972.72556    -13621.95     324.6657 
  141900    259.68808   -2335.7975    60294.335   -12646.387    1019.4645   -13665.851    325.43098 
  141950    254.67138   -963.72138    60160.658   -12642.516    999.77028   -13642.286    325.41528 
  142000     250.8268   -1486.1161     60034.57   -12658.264    984.67749   -13642.941    325.14752 
  142050    247.16134   -1031.9776    59912.068   -12667.117    970.28792   -13637.405    324.97433 
  142100     251.0161   -517.83137    59829.221   -12662.602    985.42065   -13648.022    324.94741 
  142150    250.09337   -1247.0734    59792.257   -12671.741    981.79825   -13653.539    324.85837 
  142200    251.04477   -1042.6034    59795.595   -12671.823    985.53318   -13657.356    325.22285 
  142250    255.82533   -1446.8517    59858.873   -12647.678    1004.3004   -13651.979     325.4661 
  142300    255.88134   -954.69871    59950.848   -12642.854    1004.5203   -13647.375    325.14824 
  142350    260.57919   -1422.8249    60082.335    -12632.77    1022.9627   -13655.733    325.53836 
  142400    248.14637   -2348.0165    60216.694    -12633.59    974.15487   -13607.745     325.2232 
  142450    247.04339   -2213.8093    60307.493   -12626.951    969.82488   -13596.776    325.12587 
  142500    254.87944   -1389.0213    60334.312   -12636.064     1000.587   -13636.651    325.25195 
  142550    254.67053   -2086.5927    60352.063   -12645.604    999.76695   -13645.371    325.49721 
  142600    246.79998    -2291.354    60342.749   -12644.239    968.86931   -13613.108    325.70851 
  142650    243.63149   -1824.4856    60276.083   -12631.885    956.43069   -13588.316    325.80167 
  142700    256.21581   -1448.4378    60210.929   -12628.426    1005.8333   -13634.259    326.17204 
  142750    252.09472   -1378.4576    60188.872   -12619.919    989.65499   -13609.574    326.53466 
  142800    259.95502   -2085.9746    60194.576   -12616.398    1020.5124    -13636.91    326.27709 
  142850    255.03707    -1468.672    60246.417   -12601.456    1001.2059   -13602.662    326.49105 
  142900    256.73858   -1226.1508    60319.388   -12598.841    1007.8856   -13606.727    327.11174 
  142950    257.65447   -1326.1406    60378.972   -12580.314     1011.481   -13591.795    326.77236 
  143000     265.9848   -1046.2357    60437.315   -12561.979    1044.1837   -13606.162    326.45649 
  143050    264.10427   -1245.0878    60494.882   -12554.272    1036.8012   -13591.073    326.83659 
  143100    258.08844   -1891.0245    60554.994   -12565.031    1013.1847   -13578.216    326.73472 
  143150     255.1004   -1231.9018    60560.558   -12577.367    1001.4545   -13578.821     327.1389 
  143200    254.86009   -2482.1743    60580.396   -12587.977    1000.5111   -13588.488    326.74775 
  143250    255.40897   -1925.2443    60584.573   -12592.431    1002.6658   -13595.097    327.14092 
  143300    266.14337   -2023.9087    60571.857   -12585.483    1044.8062   -13630.289    327.39009 
  143350    258.88805   -1643.1741    60528.884   -12588.917    1016.3238   -13605.241    327.14344 
  143400     253.3401   -1839.0058    60453.169   -12581.642    994.54405   -13576.186    327.47287 
  143450    262.66579   -1525.2136    60350.648   -12585.468    1031.1541   -13616.622    327.74884 
  143500    252.87833   -1684.8627    60265.325   -12585.933    992.73125   -13578.664    327.85113 
  143550    258.83516   -950.21946    60208.234   -12582.762    1016.1162   -13598.878    327.87748 
  143600     259.2342   -1485.6036    60196.289   -12578.942    1017.6827   -13596.625    328.15254 
  143650    267.86303    -858.1326    60180.105   -12566.659    1051.5571   -13618.216    328.39101 
  143700    260.97647   -1269.1931    60200.657   -12554.396    1024.5223   -13578.918    327.87084 
  143750    257.27145   -1161.5851    60232.421   -12571.777    1009.9774   -13581.755    327.65626 
  143800    261.34335   -1629.5004    60258.017   -12578.127    1025.9626    -13604.09    328.23802 
  143850    264.38398   -1469.8025    60238.998   -12581.037    1037.8993   -13618.936    328.16837 
  143900    255.98096    -356.3674    60227.767   -12583.678    1004.9113   -13588.589    328.27211 
  143950    272.15597   -1857.8425    60233.833   -12584.384      1068.41   -13652.794    328.67015 
  144000     258.7273   -2107.1887    60206.696   -12593.132    1015.6927   -13608.825     328.4357 
  144050    255.27414   -2188.5805    60161.397   -12626.352    1002.1365   -13628.488    328.64897 
  144100     250.6223   -2249.8494    60097.368    -12641.26    983.87469   -13625.135    328.83288 
  144150    251.25106   -1091.4525    60007.718   -12648.186    986.34302   -13634.529    328.93709 
  144200    256.55402   -1043.3618    59952.227   -12642.601     1007.161   -13649.762    328.80788 
  144250    249.39277   -1447.7882    59959.402   -12622.835     979.0479   -13601.883    329.29278 
  144300    256.94438   -2602.6819    59993.585   -12631.682    1008.6935   -13640.376    329.42459 
  144350    252.73806   -2638.0738    60017.556   -12630.017     992.1806   -13622.197    329.20524 
  144400    256.82305   -1622.9534    60052.416   -12638.573    1008.2171    -13646.79    329.13664 
  144450    263.26326    -2159.022    60061.036   -12633.676    1033.4996   -13667.176    328.81015 
  144500    257.80302   -1659.5978     60090.27   -12642.042    1012.0642   -13654.106    328.71597 
  144550    260.94155   -1801.5711    60144.268   -12654.443    1024.3852   -13678.828    328.49279 
  144600    264.48139   -1579.3782    60198.997   -12658.372    1038.2817   -13696.654    328.58627 
  144650    256.02542   -2021.7386    60264.008   -12662.468    1005.0859   -13667.554    328.23118 
  144700    257.67392   -2127.4279    60304.958   -12663.045    1011.5574   -13674.603    328.49383 
  144750    245.49083   -2032.2536    60313.988   -12672.066    963.72992   -13635.796    328.69477 
  144800    258.47852   -2086.0525    60286.669   -12693.023    1014.7161   -13707.739    329.07015 
  144850    252.25924   -1692.3091    60230.104   -12697.714    990.30085   -13688.015    329.54071 
  144900    245.27303   -1117.9398    60161.018   -12691.476    962.87493   -13654.351    329.66683 
  144950    250.12488   -1025.5476     60125.67   -12680.805    981.92195   -13662.727    329.98949 
  145000    247.54467    -940.9858    60151.372   -12701.813    971.79277   -13673.606    330.19673 
  145050     252.3765   -1527.3813     60193.66   -12710.595    990.76121   -13701.356    330.12296 
  145100     251.0553   -1294.6696     60241.34       -12695    985.57452   -13680.574    331.27168 
  145150    255.44408   -1756.8815     60300.96   -12691.636    1002.8037    -13694.44    330.81809 
  145200    252.19955   -2014.3731     60355.46   -12695.312    990.06655   -13685.378    330.95413 
  145250    250.51897   -1227.1733    60408.098    -12698.62    983.46904   -13682.089    330.88342 
  145300    253.64428   -1584.1041    60416.039   -12705.547    995.73815   -13701.285    331.11724 
  145350     243.9876   -1981.8929    60407.406    -12715.41    957.82866   -13673.238    331.30857 
  145400    253.74069   -1621.8021    60382.269   -12696.255    996.11663   -13692.371     331.9465 
  145450    255.32436   -1466.0855     60341.94   -12695.172    1002.3337   -13697.505    332.10527 
  145500     254.3432   -1063.2729     60356.01   -12688.918    998.48191     -13687.4    331.82381 
  145550    256.16331   -977.50568    60395.797   -12673.972    1005.6272   -13679.599     332.1075 
  145600    253.14359   -1473.2359    60441.047    -12684.63    993.77259   -13678.403    332.06874 
  145650    263.76709    -1438.725    60447.415   -12684.722    1035.4775     -13720.2    332.06001 
  145700    262.85627   -1338.4869    60426.778   -12677.673    1031.9019   -13709.575    332.83302 
  145750    251.74711   -1084.5469    60400.735   -12679.506    988.29037   -13667.797    333.01579 
  145800    255.74242   -1214.6295    60378.011   -12657.266    1003.9749   -13661.241    333.63259 
  145850    270.10582   -1393.0862    60334.491   -12668.351    1060.3617   -13728.713    333.22715 
  145900    253.88405   -1278.4663    60270.362   -12672.798    996.67941   -13669.477    333.14989 
  145950    251.82953   -1345.8683    60188.979   -12665.838    988.61393   -13654.452    333.55491 
  146000    264.04135   -958.78424    60099.162   -12671.923    1036.5542   -13708.477     333.3559 
  146050    259.35779   -1218.4247    60001.206   -12660.292    1018.1678   -13678.459    333.05731 
  146100    257.33461   -975.71191    59947.378   -12666.734    1010.2254    -13676.96    333.27951 
  146150    254.03692   -1770.1568     59964.13   -12688.094    997.27956   -13685.373    333.06295 
  146200    255.81259    -2502.501    59952.997   -12686.625    1004.2504   -13690.875    332.73899 
  146250    256.96425    -1682.855    59897.612   -12690.491    1008.7715   -13699.263    333.23143 
  146300    260.24839   -1391.5361    59903.833   -12680.575    1021.6641   -13702.239    333.10881 
  146350     261.1458   -1624.8623    59950.296   -12687.556    1025.1871   -13712.743    333.39809 
  146400    261.79352   -1477.7305    59992.523   -12687.562    1027.7298   -13715.292    333.27483 
  146450    250.68518   -2085.3758    60013.504   -12688.522    984.12153   -13672.644    333.02521 
  146500    260.72906   -1879.1032    59993.299   -12678.501    1023.5511   -13702.052    333.24499 
  146550    255.53137   -1892.7646    59933.077   -12679.762    1003.1464   -13682.908    332.94771 
  146600    249.29383   -1953.1061    59867.265   -12694.567    978.65946   -13673.226    332.98635 
  146650    260.02859   -1747.9582    59809.772   -12711.455    1020.8012   -13732.256    332.62129 
  146700    258.29556   -624.20145     59778.05   -12721.446    1013.9978   -13735.444     332.7199 
  146750    256.60507   -611.61386    59780.399   -12720.912    1007.3614   -13728.274    333.26698 
  146800    249.76976   -1039.2555    59818.244   -12735.677    980.52785   -13716.205    333.90797 
  146850    245.70294   -932.32649    59898.046   -12741.136    964.56262   -13705.699    333.71052 
  146900    253.85942   -1300.7117    60025.301   -12730.706    996.58273   -13727.289    333.38226 
  146950    249.03715   -2179.6956    60150.109   -12721.903    977.65181   -13699.555    333.38924 
  147000    246.01764   -1925.1658    60238.145   -12708.629    965.79807   -13674.427     333.7956 
  147050    258.35547   -2361.9492    60293.265   -12704.998     1014.233   -13719.231    333.70067 
  147100    255.26743   -1804.8428    60313.218   -12701.397    1002.1102   -13703.507    333.52952 
  147150    246.53164   -1680.2754    60298.179   -12712.575    967.81588   -13680.391    333.44302 
  147200    253.58145   -1972.1656    60257.814   -12704.049    995.49151    -13699.54    333.76941 
  147250    255.76696   -1222.8147    60198.015   -12705.307    1004.0712   -13709.378    334.20714 
  147300    251.03203   -1031.0279    60173.769   -12691.659    985.48316   -13677.142    334.02476 
  147350    244.96546   -947.12344    60202.293   -12682.382    961.66747   -13644.049    334.35262 
  147400    258.76655    -1591.387    60290.197   -12679.352    1015.8468   -13695.198    334.15251 
  147450    249.28501   -2343.8826    60353.239   -12655.393    978.62486   -13634.017    333.91936 
  147500     253.1311   -1758.3793    60380.496   -12656.311    993.72355   -13650.035    334.66545 
  147550    254.78411   -2291.5794    60418.678   -12657.099    1000.2128   -13657.312    334.68386 
  147600    255.63363   -2024.0988    60415.507   -12656.559    1003.5478   -13660.107    335.26523 
  147650    256.38341   -1877.4967    60383.357   -12634.086    1006.4912   -13640.577    335.11558 
  147700    251.89898   -1195.5865    60317.197   -12641.383    988.88658    -13630.27    335.26925 
  147750    260.93002   -1895.9205    60258.891   -12645.397      1024.34   -13669.737    335.41769 
  147800    251.77446   -2174.1184    60186.364   -12656.547    988.39777   -13644.945    335.65292 
  147850    254.76439    -1406.115    60088.038   -12653.724    1000.1354   -13653.859    335.71395 
  147900    257.39618    -2067.317    60006.709   -12637.047    1010.4671   -13647.514    335.93992 
  147950    254.10226    -1146.117    59935.125   -12647.023    997.53604   -13644.559    336.87754 
  148000    263.92386    -1832.553    59881.074   -12629.306     1036.093   -13665.399    336.67819 
  148050    265.45245   -970.45238    59840.464   -12635.851    1042.0938   -13677.945    336.49073 
  148100    249.09784   -1779.1866    59843.646   -12640.293    977.89009   -13618.183    335.98004 
  148150    261.66847   -1154.4917    59845.631   -12658.443    1027.2389   -13685.682    335.44175 
  148200    261.74332   -1818.1548    59875.051   -12647.851    1027.5328   -13675.383    335.60762 
  148250    259.58241   -1365.9275    59898.051   -12628.724    1019.0496   -13647.774    335.10415 
  148300    264.10543   -2393.2941    59938.223   -12624.865    1036.8058   -13661.671    335.54673 
  148350    265.18801   -1951.4072    59985.559    -12612.55    1041.0557   -13653.606    335.95744 
  148400    254.67032    -1822.315    60049.072   -12612.599    999.76612   -13612.365    335.71599 
  148450    253.92053   -1029.8917    60096.579   -12632.815    996.82262   -13629.637     335.6856 
  148500    259.55146   -841.42693    60131.991   -12638.214    1018.9281   -13657.142    335.19145 
  148550    260.24992    -1006.308     60195.51   -12642.092    1021.6701   -13663.762    335.02366 
  148600    254.75682   -1132.6084    60289.444    -12644.81    1000.1057   -13644.916    335.10156 
  148650    267.29457    -1611.372    60390.828   -12627.424    1049.3255   -13676.749    335.30968 
  148700    258.99075   -1347.2228    60465.424   -12618.685    1016.7269   -13635.412    335.80295 
  148750    258.90984   -1808.3019    60519.945   -12613.895    1016.4093   -13630.305    335.83049 
  148800    261.31427   -1349.0679    60561.906   -12624.182    1025.8484    -13650.03    336.27243 
  148850    267.88685   -2145.2286     60587.33   -12631.749    1051.6506     -13683.4    335.74864 
  148900    263.12574   -1234.3436    60588.898   -12634.946    1032.9598   -13667.905     336.2417 
  148950     258.3863   -1670.7791    60531.196   -12629.877     1014.354   -13644.231    336.88567 
  149000    269.00891    -1583.284    60452.696   -12633.623    1056.0555   -13689.678    336.74796 
  149050    261.41325   -2112.7166    60345.875   -12659.192     1026.237   -13685.429    336.68718 
  149100    258.18011   -1402.7525    60231.574   -12650.464    1013.5446   -13664.008    337.02238 
  149150    252.01715   -282.37127    60131.122   -12667.704    989.35049   -13657.054    336.90313 
  149200    256.10995   -820.76376    60078.482   -12690.032    1005.4177    -13695.45    337.51799 
  149250    246.31207   -1472.0429    60045.454   -12710.365     966.9539   -13677.319    337.68139 
  149300    253.44666    -760.0933    60035.711   -12717.884    994.96235   -13712.846    337.62576 
  149350    254.71186   -1281.8073    60042.749   -12740.504    999.92919   -13740.433    337.49925 
  149400    245.70473   -1261.1347    60077.764   -12749.748    964.56964   -13714.317    337.77336 
  149450    252.42974   -1115.8414    60162.183   -12731.599    990.97022   -13722.569    337.80266 
  149500    251.65745   -1664.1671    60259.993   -12737.378    987.93839   -13725.317    337.64138 
  149550    237.36602   -1835.1083    60324.875   -12748.876    931.83417    -13680.71    337.59912 
  149600    246.21615   -1732.1114     60349.38   -12753.993    966.57733   -13720.571    337.49454 
  149650    253.26448   -1557.5512    60356.956   -12726.628    994.24717   -13720.876    337.36696 
  149700    255.56641   -1692.3576    60401.851   -12724.683    1003.2839   -13727.967    337.11243 
  149750    254.01409   -2481.2742    60438.991   -12723.181    997.18993   -13720.371    337.09809 
  149800     252.7053   -2193.3947    60426.581   -12724.983    992.05198   -13717.035    336.99853 
  149850    252.64186   -1908.0621    60410.679   -12726.377    991.80291   -13718.179    336.86645 
  149900    252.56136   -2032.8285    60413.264   -12717.592    991.48691   -13709.079    337.07774 
  149950    244.60452   -1934.7637    60430.434   -12720.381    960.25054   -13680.631    336.94407 
  150000    246.19599   -1703.7216    60439.688   -12719.429    966.49821   -13685.928    337.23581 
Loop time of 190.564 on 12 procs for 100000 steps with 4078 atoms

Performance: 453.392 ns/day, 0.053 hours/ns, 524.759 timesteps/s
95.3% CPU use with 12 MPI tasks x no OpenMP threads

MPI task timing breakdown:
Section |  min time  |  avg time  |  max time  |%varavg| %total
---------------------------------------------------------------
Pair    | 81.918     | 97.883     | 116.65     | 152.4 | 51.37
Neigh   | 5.7766     | 13.191     | 21.63      | 202.4 |  6.92
Comm    | 34.672     | 60.416     | 82.694     | 273.8 | 31.70
Output  | 0.66876    | 0.67943    | 0.78162    |   3.7 |  0.36
Modify  | 15.128     | 16.458     | 17.52      |  23.0 |  8.64
Other   |            | 1.936      |            |       |  1.02

Nlocal:        339.833 ave         538 max         171 min
Histogram: 6 0 0 0 0 0 0 0 2 4
Nghost:        1585.50 ave        1777 max        1383 min
Histogram: 3 1 2 0 0 0 0 0 4 2
Neighs:        0.00000 ave           0 max           0 min
Histogram: 12 0 0 0 0 0 0 0 0 0
FullNghs:      36943.5 ave       69038 max        9279 min
Histogram: 6 0 0 0 0 0 0 0 2 4

Total # of neighbors = 443322
Ave neighs/atom = 108.71064
Neighbor list builds = 11390
Dangerous builds = 0


# Create data file for import to other simulations
#
write_data data.${NAME}
write_data data.ML_graphite_m1000atm_255K
System init for write_data ...


Total wall time: 0:04:43
