LAMMPS data file via write_data, version 16 Mar 2018, timestep = 100000

4545 atoms
2 atom types

0.0000000000000000e+00 4.9219999999999999e+01 xlo xhi
0.0000000000000000e+00 4.9019635930410494e+01 ylo yhi
1.7127863510692798e+00 3.1922553435453260e+01 zlo zhi

Masses

1 18.015
2 12.01

Atoms # atomic

91 2 0.0000000000000000e+00 2.8417180249513345e+00 3.2189932073714234e+00 0 0 0
93 2 0.0000000000000000e+00 0.0000000000000000e+00 3.2189932073714234e+00 0 0 0
95 2 1.2305000000000001e+00 7.1042950623783474e-01 3.2189932073714234e+00 0 0 0
102 2 1.2305000000000001e+00 2.1312885187134998e+00 3.2189932073714234e+00 0 0 0
104 2 2.4610000000000003e+00 2.8417180249513345e+00 3.2189932073714234e+00 0 0 0
106 2 2.4610000000000003e+00 0.0000000000000000e+00 3.2189932073714234e+00 0 0 0
108 2 3.6915000000000004e+00 7.1042950623783474e-01 3.2189932073714234e+00 0 0 0
123 2 3.6914999999999996e+00 2.1312885187134998e+00 3.2189932073714234e+00 0 0 0
125 2 4.9220000000000006e+00 2.8417180249513332e+00 3.2189932073714234e+00 0 0 0
127 2 4.9220000000000006e+00 0.0000000000000000e+00 3.2189932073714234e+00 0 0 0
98 2 0.0000000000000000e+00 4.2625770374269996e+00 3.2189932073714234e+00 0 0 0
100 2 1.2305000000000001e+00 4.9730065436648339e+00 3.2189932073714234e+00 0 0 0
115 2 1.2305000000000001e+00 6.3938655561404980e+00 3.2189932073714234e+00 0 0 0
119 2 2.4610000000000003e+00 4.2625770374269996e+00 3.2189932073714234e+00 0 0 0
121 2 3.6914999999999996e+00 4.9730065436648339e+00 3.2189932073714234e+00 0 0 0
144 2 3.6914999999999996e+00 6.3938655561404980e+00 3.2189932073714234e+00 0 0 0
148 2 4.9220000000000006e+00 4.2625770374269978e+00 3.2189932073714234e+00 0 0 0
96 2 0.0000000000000000e+00 7.1042950623783341e+00 3.2189932073714234e+00 0 0 0
117 2 2.4610000000000003e+00 7.1042950623783341e+00 3.2189932073714234e+00 0 0 0
146 2 4.9220000000000006e+00 7.1042950623783341e+00 3.2189932073714234e+00 0 0 0
111 2 0.0000000000000000e+00 8.5251540748539991e+00 3.2189932073714234e+00 0 0 0
113 2 1.2305000000000001e+00 9.2355835810918343e+00 3.2189932073714234e+00 0 0 0
140 2 2.4610000000000003e+00 8.5251540748539991e+00 3.2189932073714234e+00 0 0 0
142 2 3.6915000000000004e+00 9.2355835810918343e+00 3.2189932073714234e+00 0 0 0
177 2 4.9220000000000006e+00 8.5251540748539991e+00 3.2189932073714234e+00 0 0 0
109 2 0.0000000000000000e+00 1.1366872099805333e+01 3.2189932073714234e+00 0 0 0
136 2 1.2305000000000001e+00 1.0656442593567498e+01 3.2189932073714234e+00 0 0 0
138 2 2.4610000000000003e+00 1.1366872099805333e+01 3.2189932073714234e+00 0 0 0
173 2 3.6914999999999996e+00 1.0656442593567499e+01 3.2189932073714234e+00 0 0 0
175 2 4.9220000000000006e+00 1.1366872099805333e+01 3.2189932073714234e+00 0 0 0
92 2 0.0000000000000000e+00 1.4208590124756650e+00 6.2314069199756306e+00 0 0 0
94 2 0.0000000000000000e+00 0.0000000000000000e+00 6.2314069199756306e+00 0 0 0
103 2 1.2305000000000001e+00 2.1312885187134998e+00 6.2314069199756306e+00 0 0 0
105 2 2.4610000000000003e+00 1.4208590124756650e+00 6.2314069199756306e+00 0 0 0
107 2 2.4610000000000003e+00 0.0000000000000000e+00 6.2314069199756306e+00 0 0 0
124 2 3.6914999999999996e+00 2.1312885187134998e+00 6.2314069199756306e+00 0 0 0
420 2 0.0000000000000000e+00 2.8417180249513345e+00 9.2438206325799008e+00 0 0 0
421 2 0.0000000000000000e+00 0.0000000000000000e+00 9.2438206325799008e+00 0 0 0
422 2 1.2305000000000001e+00 7.1042950623783474e-01 9.2438206325799008e+00 0 0 0
426 2 1.2305000000000001e+00 2.1312885187134998e+00 9.2438206325799008e+00 0 0 0
427 2 2.4610000000000003e+00 2.8417180249513345e+00 9.2438206325799008e+00 0 0 0
428 2 2.4610000000000003e+00 0.0000000000000000e+00 9.2438206325799008e+00 0 0 0
429 2 3.6915000000000004e+00 7.1042950623783474e-01 9.2438206325799008e+00 0 0 0
437 2 3.6914999999999996e+00 2.1312885187134998e+00 9.2438206325799008e+00 0 0 0
126 2 4.9220000000000006e+00 1.4208590124756650e+00 6.2314069199756306e+00 0 0 0
128 2 4.9220000000000006e+00 0.0000000000000000e+00 6.2314069199756306e+00 0 0 0
438 2 4.9220000000000006e+00 2.8417180249513332e+00 9.2438206325799008e+00 0 0 0
439 2 4.9220000000000006e+00 0.0000000000000000e+00 9.2438206325799008e+00 0 0 0
101 2 1.2305000000000001e+00 3.5521475311891644e+00 6.2314069199756306e+00 0 0 0
122 2 3.6914999999999996e+00 3.5521475311891644e+00 6.2314069199756306e+00 0 0 0
97 2 0.0000000000000000e+00 5.6834360499026637e+00 6.2314069199756306e+00 0 0 0
99 2 0.0000000000000000e+00 4.2625770374269996e+00 6.2314069199756306e+00 0 0 0
116 2 1.2305000000000001e+00 6.3938655561404980e+00 6.2314069199756306e+00 0 0 0
118 2 2.4610000000000003e+00 5.6834360499026637e+00 6.2314069199756306e+00 0 0 0
120 2 2.4610000000000003e+00 4.2625770374269996e+00 6.2314069199756306e+00 0 0 0
145 2 3.6914999999999996e+00 6.3938655561404980e+00 6.2314069199756306e+00 0 0 0
424 2 0.0000000000000000e+00 4.2625770374269996e+00 9.2438206325799008e+00 0 0 0
425 2 1.2305000000000001e+00 4.9730065436648339e+00 9.2438206325799008e+00 0 0 0
433 2 1.2305000000000001e+00 6.3938655561404980e+00 9.2438206325799008e+00 0 0 0
435 2 2.4610000000000003e+00 4.2625770374269996e+00 9.2438206325799008e+00 0 0 0
436 2 3.6914999999999996e+00 4.9730065436648339e+00 9.2438206325799008e+00 0 0 0
448 2 3.6914999999999996e+00 6.3938655561404980e+00 9.2438206325799008e+00 0 0 0
147 2 4.9220000000000006e+00 5.6834360499026637e+00 6.2314069199756306e+00 0 0 0
149 2 4.9220000000000006e+00 4.2625770374269978e+00 6.2314069199756306e+00 0 0 0
450 2 4.9220000000000006e+00 4.2625770374269978e+00 9.2438206325799008e+00 0 0 0
114 2 1.2305000000000001e+00 7.8147245686161639e+00 6.2314069199756306e+00 0 0 0
143 2 3.6914999999999996e+00 7.8147245686161639e+00 6.2314069199756306e+00 0 0 0
423 2 0.0000000000000000e+00 7.1042950623783341e+00 9.2438206325799008e+00 0 0 0
434 2 2.4610000000000003e+00 7.1042950623783341e+00 9.2438206325799008e+00 0 0 0
449 2 4.9220000000000006e+00 7.1042950623783341e+00 9.2438206325799008e+00 0 0 0
110 2 0.0000000000000000e+00 9.9460130873296642e+00 6.2314069199756306e+00 0 0 0
112 2 0.0000000000000000e+00 8.5251540748539991e+00 6.2314069199756306e+00 0 0 0
139 2 2.4610000000000003e+00 9.9460130873296642e+00 6.2314069199756306e+00 0 0 0
141 2 2.4610000000000003e+00 8.5251540748539991e+00 6.2314069199756306e+00 0 0 0
431 2 0.0000000000000000e+00 8.5251540748539991e+00 9.2438206325799008e+00 0 0 0
432 2 1.2305000000000001e+00 9.2355835810918343e+00 9.2438206325799008e+00 0 0 0
446 2 2.4610000000000003e+00 8.5251540748539991e+00 9.2438206325799008e+00 0 0 0
447 2 3.6915000000000004e+00 9.2355835810918343e+00 9.2438206325799008e+00 0 0 0
176 2 4.9220000000000006e+00 9.9460130873296642e+00 6.2314069199756306e+00 0 0 0
178 2 4.9220000000000006e+00 8.5251540748539991e+00 6.2314069199756306e+00 0 0 0
465 2 4.9220000000000006e+00 8.5251540748539991e+00 9.2438206325799008e+00 0 0 0
135 2 1.2305000000000001e+00 1.2077301606043163e+01 6.2314069199756306e+00 0 0 0
137 2 1.2305000000000001e+00 1.0656442593567498e+01 6.2314069199756306e+00 0 0 0
172 2 3.6914999999999996e+00 1.2077301606043163e+01 6.2314069199756306e+00 0 0 0
174 2 3.6914999999999996e+00 1.0656442593567499e+01 6.2314069199756306e+00 0 0 0
430 2 0.0000000000000000e+00 1.1366872099805333e+01 9.2438206325799008e+00 0 0 0
444 2 1.2305000000000001e+00 1.0656442593567498e+01 9.2438206325799008e+00 0 0 0
445 2 2.4610000000000003e+00 1.1366872099805333e+01 9.2438206325799008e+00 0 0 0
463 2 3.6914999999999996e+00 1.0656442593567499e+01 9.2438206325799008e+00 0 0 0
464 2 4.9220000000000006e+00 1.1366872099805333e+01 9.2438206325799008e+00 0 0 0
3642 1 3.1356597272437732e+00 6.4365237906012174e-01 1.1522792473929762e+01 2 0 1
735 1 8.5305185795094207e-01 1.1084454307420623e+01 1.4453425467375972e+01 0 -1 0
21 1 5.8586941561836765e+00 6.0072143767285473e+00 1.6129329726835277e+01 0 0 0
3813 1 5.6850854529091377e+00 3.8411237345658207e+00 1.2253718903125442e+01 1 0 -1
4466 1 3.7140886707985818e+00 5.6782115453292432e+00 1.1239082620573715e+01 1 0 0
1363 1 1.2274460853995148e+00 4.6179036783360337e+00 1.2238096242453429e+01 0 0 0
4363 1 5.5625728407606072e+00 7.8856420006492165e+00 1.2001693903283369e+01 1 0 0
87 1 5.3304225934655411e+00 1.0616397437032072e+01 1.1824185527093180e+01 1 1 1
846 1 6.0640540512582373e+00 1.0580893312599738e+01 1.5958927221205151e+01 1 0 0
2876 1 3.5658890760104760e+00 1.2058887415694011e+00 1.4590281119891465e+01 0 0 -1
3659 1 4.3102501870255772e-01 1.5957090086288197e+00 1.4988102609759776e+01 -1 2 0
2222 1 4.5839698415317187e+00 3.7662436783430091e+00 1.4749823773892405e+01 1 1 -1
2287 1 1.7685845782830658e+00 4.2977112082470477e+00 1.4974211191888125e+01 0 1 0
1499 1 1.7341494120393419e+00 8.6268468544282264e+00 1.4304292778563875e+01 0 1 -1
1526 1 4.9162699857603567e+00 8.4553358853042369e+00 1.4648536800509916e+01 0 1 0
2869 1 8.0732080793558036e-01 1.8540132862788634e+00 1.1956045486050122e+01 -1 2 0
1555 1 1.5828619163623658e+00 7.6925426432236881e+00 1.1698102244031777e+01 0 1 0
703 1 1.5281493232184507e+00 1.2061465145687515e+01 1.6970953894902046e+01 1 0 0
29 1 3.3997732556665672e+00 6.3155001645139937e+00 2.0921248041309909e+01 2 1 0
69 1 1.1935255555814639e+00 2.0521080612048861e+00 1.9770105196849595e+01 0 1 0
1444 1 2.4190646715014750e+00 1.0423690774245552e+01 2.3060056284048152e+01 -1 1 0
3635 1 3.8239319877860045e+00 6.9853054348107904e+00 1.8079243052999786e+01 0 1 1
1544 1 5.6684403177888214e+00 5.6945848370361594e+00 2.2265541836554853e+01 -1 1 -1
3691 1 5.1565360692503450e+00 9.3959864306772456e+00 1.8479969558388554e+01 0 0 0
3767 1 2.3352438246127991e+00 9.0767385094197497e+00 2.0508643929118737e+01 1 1 -1
2895 1 9.2463134494351618e-01 4.7241451930001670e+00 2.0869168844014901e+01 0 0 -1
3102 1 2.4334241372686827e+00 5.5826619159631008e-01 2.2517884771697641e+01 0 0 0
3059 1 1.6748338986909808e+00 7.3231162907380289e+00 2.3373597895902368e+01 1 0 0
2235 1 3.2938770754000659e+00 1.1541118472508300e+01 1.9418855005225129e+01 0 1 1
2159 1 4.0242419424010221e+00 1.1217993448157833e+00 1.7701779517365651e+01 0 1 1
4373 1 4.9830832313169786e+00 9.6663877679563441e+00 2.4120143560319491e+01 1 1 0
4458 1 5.5072342248080313e+00 2.8932615734493119e+00 2.3337541008952154e+01 0 1 0
596 1 4.0977386346263298e+00 5.5287244044996187e-01 2.0540077275635941e+01 0 1 0
2296 1 1.2833816579114365e+00 7.5479472629342386e+00 1.6969930387071056e+01 0 1 -1
852 1 2.0510821345419594e+00 2.7991648986024917e+00 3.0814634371267037e+01 0 0 0
2374 1 2.7067488442018450e+00 4.6096533271895543e+00 2.5954736647370819e+01 0 1 -1
1505 1 5.1919309892285428e+00 9.1913814218528045e-01 2.6546458059783181e+01 0 0 0
2219 1 5.8559293698543913e-01 1.5443885476809489e+00 2.5671017529909104e+01 1 0 -1
3840 1 5.4776945663519583e-01 3.2872945780073839e+00 2.8046396342432274e+01 1 -1 1
3776 1 5.4282463532969472e-01 8.6223987838523346e+00 2.6440186325322536e+01 1 0 0
1469 1 3.1537226287274605e+00 2.1295988591086896e+00 2.4845661103068629e+01 0 0 0
4409 1 4.2072285323378891e+00 6.5917561327039333e+00 2.4795766048193489e+01 1 1 0
4397 1 3.2385880930604900e+00 1.1632382795614516e+01 3.0730975003243639e+01 1 -1 -1
4476 1 2.6866011962774705e-01 5.7888568333847195e+00 2.5638615281231413e+01 1 -1 0
3679 1 3.7905616186153619e+00 8.9875098814358694e+00 2.9718869798836035e+01 2 1 0
688 1 2.7211345860082012e+00 1.0078984879095252e+01 2.6166458374308259e+01 0 -1 -2
1473 1 5.5460314673130506e+00 3.4504763137932093e+00 2.8099514392384254e+01 -1 1 0
2859 1 1.2123019867686089e+00 6.9964185638411243e+00 2.8850880393131419e+01 2 0 -1
4419 1 5.0280261528071799e+00 8.2589681562476667e+00 2.7016040109231003e+01 0 1 0
3717 1 3.1227222660875831e+00 4.5770533275904199e+00 2.9179178813914234e+01 0 1 -1
54 1 1.9587024078426045e+00 1.4097222883175267e-01 3.0115338106700793e+01 1 1 -1
3135 1 3.7046984500812088e+00 6.5865576790014853e+00 3.1021776726562923e+01 0 1 0
3792 1 3.6420926097743194e+00 1.2230555726711620e+01 2.7804082535955175e+01 0 1 0
132 2 0.0000000000000000e+00 1.2787731112280996e+01 3.2189932073714234e+00 0 0 0
134 2 1.2305000000000001e+00 1.3498160618518829e+01 3.2189932073714234e+00 0 0 0
169 2 2.4610000000000003e+00 1.2787731112280996e+01 3.2189932073714234e+00 0 0 0
171 2 3.6915000000000004e+00 1.3498160618518829e+01 3.2189932073714234e+00 0 0 0
214 2 4.9220000000000006e+00 1.2787731112280996e+01 3.2189932073714234e+00 0 0 0
216 2 6.1524999999999990e+00 1.3498160618518829e+01 3.2189932073714234e+00 0 0 0
130 2 0.0000000000000000e+00 1.5629449137232333e+01 3.2189932073714234e+00 0 0 0
165 2 1.2305000000000001e+00 1.4919019630994494e+01 3.2189932073714234e+00 0 0 0
167 2 2.4610000000000003e+00 1.5629449137232328e+01 3.2189932073714234e+00 0 0 0
210 2 3.6915000000000004e+00 1.4919019630994494e+01 3.2189932073714234e+00 0 0 0
212 2 4.9220000000000006e+00 1.5629449137232333e+01 3.2189932073714234e+00 0 0 0
257 2 6.1524999999999990e+00 1.4919019630994494e+01 3.2189932073714234e+00 0 0 0
161 2 0.0000000000000000e+00 1.7050308149707998e+01 3.2189932073714234e+00 0 0 0
206 2 2.4610000000000003e+00 1.7050308149707998e+01 3.2189932073714234e+00 0 0 0
253 2 4.9220000000000006e+00 1.7050308149707998e+01 3.2189932073714234e+00 0 0 0
159 2 0.0000000000000000e+00 1.9892026174659328e+01 3.2189932073714234e+00 0 0 0
163 2 1.2305000000000001e+00 1.7760737655945832e+01 3.2189932073714234e+00 0 0 0
202 2 1.2305000000000001e+00 1.9181596668421495e+01 3.2189932073714234e+00 0 0 0
204 2 2.4610000000000003e+00 1.9892026174659328e+01 3.2189932073714234e+00 0 0 0
208 2 3.6914999999999996e+00 1.7760737655945832e+01 3.2189932073714234e+00 0 0 0
249 2 3.6914999999999996e+00 1.9181596668421495e+01 3.2189932073714234e+00 0 0 0
251 2 4.9220000000000006e+00 1.9892026174659328e+01 3.2189932073714234e+00 0 0 0
196 2 0.0000000000000000e+00 2.4154603212086325e+01 3.2189932073714234e+00 0 0 0
198 2 0.0000000000000000e+00 2.1312885187134999e+01 3.2189932073714234e+00 0 0 0
200 2 1.2304999999999993e+00 2.2023314693372832e+01 3.2189932073714234e+00 0 0 0
241 2 1.2304999999999993e+00 2.3444173705848499e+01 3.2189932073714234e+00 0 0 0
243 2 2.4610000000000003e+00 2.4154603212086325e+01 3.2189932073714234e+00 0 0 0
245 2 2.4610000000000003e+00 2.1312885187134995e+01 3.2189932073714234e+00 0 0 0
247 2 3.6914999999999996e+00 2.2023314693372832e+01 3.2189932073714234e+00 0 0 0
288 2 3.6915000000000004e+00 2.3444173705848499e+01 3.2189932073714234e+00 0 0 0
290 2 4.9220000000000006e+00 2.4154603212086325e+01 3.2189932073714234e+00 0 0 0
292 2 4.9220000000000006e+00 2.1312885187134995e+01 3.2189932073714234e+00 0 0 0
294 2 6.1524999999999990e+00 2.2023314693372832e+01 3.2189932073714234e+00 0 0 0
133 2 0.0000000000000000e+00 1.2787731112280996e+01 6.2314069199756306e+00 0 0 0
170 2 2.4610000000000003e+00 1.2787731112280996e+01 6.2314069199756306e+00 0 0 0
442 2 0.0000000000000000e+00 1.2787731112280996e+01 9.2438206325799008e+00 0 0 0
443 2 1.2305000000000001e+00 1.3498160618518829e+01 9.2438206325799008e+00 0 0 0
461 2 2.4610000000000003e+00 1.2787731112280996e+01 9.2438206325799008e+00 0 0 0
462 2 3.6915000000000004e+00 1.3498160618518829e+01 9.2438206325799008e+00 0 0 0
215 2 4.9220000000000006e+00 1.2787731112280996e+01 6.2314069199756306e+00 0 0 0
484 2 4.9220000000000006e+00 1.2787731112280996e+01 9.2438206325799008e+00 0 0 0
485 2 6.1524999999999990e+00 1.3498160618518829e+01 9.2438206325799008e+00 0 0 0
131 2 0.0000000000000000e+00 1.4208590124756663e+01 6.2314069199756306e+00 0 0 0
166 2 1.2305000000000001e+00 1.4919019630994494e+01 6.2314069199756306e+00 0 0 0
168 2 2.4610000000000003e+00 1.4208590124756663e+01 6.2314069199756306e+00 0 0 0
211 2 3.6915000000000004e+00 1.4919019630994494e+01 6.2314069199756306e+00 0 0 0
441 2 0.0000000000000000e+00 1.5629449137232333e+01 9.2438206325799008e+00 0 0 0
459 2 1.2305000000000001e+00 1.4919019630994494e+01 9.2438206325799008e+00 0 0 0
460 2 2.4610000000000003e+00 1.5629449137232328e+01 9.2438206325799008e+00 0 0 0
482 2 3.6915000000000004e+00 1.4919019630994494e+01 9.2438206325799008e+00 0 0 0
213 2 4.9220000000000006e+00 1.4208590124756663e+01 6.2314069199756306e+00 0 0 0
258 2 6.1524999999999990e+00 1.4919019630994494e+01 6.2314069199756306e+00 0 0 0
483 2 4.9220000000000006e+00 1.5629449137232333e+01 9.2438206325799008e+00 0 0 0
506 2 6.1524999999999990e+00 1.4919019630994494e+01 9.2438206325799008e+00 0 0 0
162 2 0.0000000000000000e+00 1.7050308149707998e+01 6.2314069199756306e+00 0 0 0
164 2 1.2305000000000001e+00 1.6339878643470165e+01 6.2314069199756306e+00 0 0 0
207 2 2.4610000000000003e+00 1.7050308149707998e+01 6.2314069199756306e+00 0 0 0
209 2 3.6915000000000004e+00 1.6339878643470165e+01 6.2314069199756306e+00 0 0 0
457 2 0.0000000000000000e+00 1.7050308149707998e+01 9.2438206325799008e+00 0 0 0
480 2 2.4610000000000003e+00 1.7050308149707998e+01 9.2438206325799008e+00 0 0 0
254 2 4.9220000000000006e+00 1.7050308149707998e+01 6.2314069199756306e+00 0 0 0
504 2 4.9220000000000006e+00 1.7050308149707998e+01 9.2438206325799008e+00 0 0 0
160 2 0.0000000000000000e+00 1.8471167162183658e+01 6.2314069199756306e+00 0 0 0
203 2 1.2305000000000001e+00 1.9181596668421495e+01 6.2314069199756306e+00 0 0 0
205 2 2.4610000000000003e+00 1.8471167162183658e+01 6.2314069199756306e+00 0 0 0
250 2 3.6914999999999996e+00 1.9181596668421495e+01 6.2314069199756306e+00 0 0 0
456 2 0.0000000000000000e+00 1.9892026174659328e+01 9.2438206325799008e+00 0 0 0
458 2 1.2305000000000001e+00 1.7760737655945832e+01 9.2438206325799008e+00 0 0 0
478 2 1.2305000000000001e+00 1.9181596668421495e+01 9.2438206325799008e+00 0 0 0
479 2 2.4610000000000003e+00 1.9892026174659328e+01 9.2438206325799008e+00 0 0 0
481 2 3.6914999999999996e+00 1.7760737655945832e+01 9.2438206325799008e+00 0 0 0
502 2 3.6914999999999996e+00 1.9181596668421495e+01 9.2438206325799008e+00 0 0 0
252 2 4.9220000000000006e+00 1.8471167162183658e+01 6.2314069199756306e+00 0 0 0
503 2 4.9220000000000006e+00 1.9892026174659328e+01 9.2438206325799008e+00 0 0 0
201 2 1.2305000000000001e+00 2.0602455680897162e+01 6.2314069199756306e+00 0 0 0
248 2 3.6915000000000004e+00 2.0602455680897162e+01 6.2314069199756306e+00 0 0 0
197 2 0.0000000000000000e+00 2.2733744199610655e+01 6.2314069199756306e+00 0 0 0
199 2 0.0000000000000000e+00 2.1312885187134999e+01 6.2314069199756306e+00 0 0 0
242 2 1.2304999999999993e+00 2.3444173705848499e+01 6.2314069199756306e+00 0 0 0
244 2 2.4610000000000003e+00 2.2733744199610655e+01 6.2314069199756306e+00 0 0 0
246 2 2.4610000000000003e+00 2.1312885187134995e+01 6.2314069199756306e+00 0 0 0
289 2 3.6915000000000004e+00 2.3444173705848499e+01 6.2314069199756306e+00 0 0 0
475 2 0.0000000000000000e+00 2.4154603212086325e+01 9.2438206325799008e+00 0 0 0
476 2 0.0000000000000000e+00 2.1312885187134999e+01 9.2438206325799008e+00 0 0 0
477 2 1.2304999999999993e+00 2.2023314693372832e+01 9.2438206325799008e+00 0 0 0
498 2 1.2304999999999993e+00 2.3444173705848499e+01 9.2438206325799008e+00 0 0 0
499 2 2.4610000000000003e+00 2.4154603212086325e+01 9.2438206325799008e+00 0 0 0
500 2 2.4610000000000003e+00 2.1312885187134995e+01 9.2438206325799008e+00 0 0 0
501 2 3.6914999999999996e+00 2.2023314693372832e+01 9.2438206325799008e+00 0 0 0
522 2 3.6915000000000004e+00 2.3444173705848499e+01 9.2438206325799008e+00 0 0 0
291 2 4.9220000000000006e+00 2.2733744199610655e+01 6.2314069199756306e+00 0 0 0
293 2 4.9220000000000006e+00 2.1312885187134995e+01 6.2314069199756306e+00 0 0 0
523 2 4.9220000000000006e+00 2.4154603212086325e+01 9.2438206325799008e+00 0 0 0
524 2 4.9220000000000006e+00 2.1312885187134995e+01 9.2438206325799008e+00 0 0 0
525 2 6.1524999999999990e+00 2.2023314693372832e+01 9.2438206325799008e+00 0 0 0
669 1 4.4790700369233702e+00 1.4668589877702971e+01 1.1735538736935938e+01 0 1 1
3706 1 3.9935110560016360e+00 1.2297491303460976e+01 1.5018329556366897e+01 0 0 0
3661 1 5.8883119912759119e-01 1.3877323265901017e+01 1.1858808190609460e+01 1 0 -1
3044 1 4.2746599615060843e+00 1.8000220516370558e+01 1.4480373867720633e+01 0 0 0
3627 1 5.5893808422900246e+00 1.7463576947853046e+01 1.1909157133140656e+01 0 0 0
4502 1 2.0040003208829305e+00 1.6367944994740402e+01 1.1618551387206383e+01 0 -1 -1
4371 1 4.4531447562949369e+00 2.2263962435239183e+01 1.1831713558925232e+01 0 1 -1
679 1 2.5956249887353571e+00 1.9722565133849788e+01 1.1950248266914254e+01 0 0 1
4415 1 5.8617915348632881e+00 1.6553029608134665e+01 1.6344334058636406e+01 0 0 -1
47 1 1.6299594205528298e+00 1.6631321925747791e+01 1.4335406372594008e+01 1 -1 -1
4461 1 4.4229994656602498e+00 2.2693910390896981e+01 1.4928358598762328e+01 1 1 0
3770 1 3.0879478822358557e+00 1.2264419699259731e+01 1.2291151085263257e+01 0 1 -1
3664 1 2.0274962108950775e-01 2.1974269404236491e+01 1.4821951954208449e+01 0 0 0
2352 1 1.5822123430744477e+00 2.3362852925903219e+01 1.1639270872048119e+01 0 0 0
3885 1 2.5794208572368436e+00 2.0396491024418559e+01 1.4713850582549771e+01 1 -1 0
1378 1 2.1873885563512294e+00 2.4347797041802689e+01 1.4361303175775975e+01 0 1 -1
1375 1 3.7423172744395234e+00 1.4646081931295141e+01 1.6622339689032444e+01 0 1 0
3015 1 7.3861900847486561e-01 2.0503324949776193e+01 2.2085994292569470e+01 1 1 0
1511 1 4.9881986860703380e+00 2.4060378802247644e+01 2.1236506314894395e+01 0 1 -1
674 1 1.4839548152886197e+00 1.6039657622297419e+01 1.7653412599490828e+01 1 1 0
4440 1 5.1657666280285914e+00 2.1344489589064043e+01 2.3000921448683524e+01 0 -1 0
4424 1 2.9002774294005786e+00 1.9383044872057965e+01 2.0082460611801586e+01 0 1 1
603 1 1.7350537739777503e+00 1.6525678777452850e+01 2.0169465073037909e+01 1 0 -1
1496 1 6.0514697688495636e+00 1.6611657157069072e+01 2.2877638278837953e+01 1 1 0
2304 1 4.4529103862485302e+00 1.8950060724152191e+01 1.7553700488179224e+01 0 1 0
2936 1 4.3302620158026679e+00 2.1850972010112102e+01 1.9507914232290105e+01 -2 1 0
3641 1 5.5324253221576418e+00 1.3914712874090496e+01 1.8684832964189873e+01 0 -1 0
4465 1 4.7207626383721353e+00 1.5750386762251379e+01 2.0577526588115724e+01 1 0 0
2246 1 1.7913464675459221e+00 1.8873438745125142e+01 1.6833451842313892e+01 1 1 0
1562 1 1.6707837796736698e+00 1.4874188038393507e+01 2.2177076584786587e+01 1 0 -1
3799 1 4.5585273784661204e+00 1.8816871241068746e+01 2.3835555718142150e+01 1 0 0
888 1 3.3975282713465100e+00 1.2838902312015676e+01 2.1890628396206562e+01 0 0 0
2838 1 2.6586234705617207e+00 2.2387118963346218e+01 2.3670223395907975e+01 1 1 0
1448 1 1.5425736050736649e+00 2.2786926235756859e+01 1.9132276948944941e+01 -1 1 0
3002 1 5.6354654771788937e+00 1.2567432702251653e+01 2.3120844847817438e+01 0 0 -1
35 1 1.3648095425743192e-01 2.0309792333007678e+01 1.8865932084315261e+01 -1 0 1
2167 1 2.0589414331921092e+00 1.9067422279227326e+01 2.4336482236833273e+01 1 1 -1
873 1 5.7960672759613399e+00 2.1511417779487786e+01 1.6898174292585246e+01 1 0 0
3721 1 1.9651994956438190e+00 2.3532861612505737e+01 3.0740581584293960e+01 0 0 -1
1530 1 5.8274408925981911e+00 1.5547549391275910e+01 3.0415034864734743e+01 0 2 -1
2925 1 4.6905489388396902e+00 2.0471047226458360e+01 3.0660441508977375e+01 0 1 0
3022 1 5.2711734810710791e+00 1.8932231451333099e+01 2.6399555393297895e+01 0 1 -1
3062 1 1.1798896450906586e-01 1.6947206441175794e+01 3.0525184068058220e+01 0 0 -1
856 1 3.0377901791419344e+00 1.4840184327832175e+01 2.6242562031995469e+01 1 1 0
4378 1 1.9579685616029383e+00 2.0681455433199812e+01 2.9802106068439667e+01 0 1 -1
1602 1 6.2966140393361536e-01 1.2760065433488432e+01 3.1095506884845065e+01 1 1 0
2849 1 3.7190711798608431e+00 2.1536158075365041e+01 2.6216907543650237e+01 -1 1 0
1474 1 1.5358776767284348e+00 2.0187393338155960e+01 2.6938570988863781e+01 0 1 0
1416 1 7.6031223091818212e-01 1.2946643166815464e+01 2.8254267421766556e+01 1 0 -1
787 1 2.5216832116386199e+00 1.7786694640173998e+01 2.8059545369180054e+01 0 0 0
3084 1 4.5195601127654408e+00 2.3822283390340221e+01 3.0357419455979883e+01 0 0 -1
2141 1 2.2316036052556316e+00 1.4973156195482712e+01 3.0414390098373584e+01 0 0 0
593 1 5.1214476606630912e+00 1.6412883665303816e+01 2.7711969983614502e+01 -1 -1 -1
3083 1 3.9521905651639617e+00 1.7763598333581992e+01 3.0628363886030321e+01 -1 1 1
3639 1 5.5661245681052245e+00 1.4872724667506937e+01 2.4561587730181998e+01 0 0 0
1574 1 5.1122243363034447e-01 1.5859271106646478e+01 2.7689753668014209e+01 -1 1 0
799 1 1.1968344185563418e+00 1.6386064453627270e+01 2.4446468467402827e+01 0 0 -1
621 1 4.4716735761835258e+00 2.3871364887195007e+01 2.7697950052976271e+01 1 0 0
3608 1 6.8313463880706626e-01 2.3114180828712684e+01 2.5987204939356825e+01 1 0 -1
891 2 0.0000000000000000e+00 2.5575462224561992e+01 3.2189932073714234e+00 0 0 0
893 2 1.2305000000000001e+00 2.6285891730799833e+01 3.2189932073714234e+00 0 0 0
901 2 1.2305000000000010e+00 2.7706750743275496e+01 3.2189932073714234e+00 0 0 0
905 2 2.4610000000000003e+00 2.5575462224561992e+01 3.2189932073714234e+00 0 0 0
907 2 3.6914999999999991e+00 2.6285891730799833e+01 3.2189932073714234e+00 0 0 0
923 2 3.6914999999999996e+00 2.7706750743275496e+01 3.2189932073714234e+00 0 0 0
927 2 4.9220000000000006e+00 2.5575462224561992e+01 3.2189932073714234e+00 0 0 0
953 2 6.1524999999999990e+00 2.7706750743275496e+01 3.2189932073714234e+00 0 0 0
889 2 0.0000000000000000e+00 2.8417180249513333e+01 3.2189932073714234e+00 0 0 0
903 2 2.4610000000000003e+00 2.8417180249513326e+01 3.2189932073714234e+00 0 0 0
925 2 4.9220000000000006e+00 2.8417180249513336e+01 3.2189932073714234e+00 0 0 0
897 2 0.0000000000000000e+00 2.9838039261988989e+01 3.2189932073714234e+00 0 0 0
899 2 1.2304999999999993e+00 3.0548468768226829e+01 3.2189932073714234e+00 0 0 0
919 2 2.4610000000000003e+00 2.9838039261988989e+01 3.2189932073714234e+00 0 0 0
921 2 3.6915000000000004e+00 3.0548468768226829e+01 3.2189932073714234e+00 0 0 0
949 2 4.9220000000000006e+00 2.9838039261988989e+01 3.2189932073714234e+00 0 0 0
895 2 0.0000000000000000e+00 3.2679757286940330e+01 3.2189932073714234e+00 0 0 0
915 2 1.2304999999999993e+00 3.1969327780702493e+01 3.2189932073714234e+00 0 0 0
945 2 3.6914999999999996e+00 3.1969327780702493e+01 3.2189932073714234e+00 0 0 0
911 2 0.0000000000000000e+00 3.4100616299415996e+01 3.2189932073714234e+00 0 0 0
913 2 1.2305000000000010e+00 3.4811045805653833e+01 3.2189932073714234e+00 0 0 0
917 2 2.4610000000000003e+00 3.2679757286940337e+01 3.2189932073714234e+00 0 0 0
941 2 2.4609999999999985e+00 3.4100616299415996e+01 3.2189932073714234e+00 0 0 0
943 2 3.6915000000000018e+00 3.4811045805653833e+01 3.2189932073714234e+00 0 0 0
947 2 4.9220000000000015e+00 3.2679757286940337e+01 3.2189932073714234e+00 0 0 0
979 2 4.9220000000000006e+00 3.4100616299415996e+01 3.2189932073714234e+00 0 0 0
937 2 1.2304999999999993e+00 3.6231904818129486e+01 3.2189932073714234e+00 0 0 0
975 2 3.6914999999999996e+00 3.6231904818129486e+01 3.2189932073714234e+00 0 0 0
890 2 0.0000000000000000e+00 2.6996321237037659e+01 6.2314069199756306e+00 0 0 0
892 2 0.0000000000000000e+00 2.5575462224561992e+01 6.2314069199756306e+00 0 0 0
894 2 1.2305000000000001e+00 2.4865032718324155e+01 6.2314069199756306e+00 0 0 0
902 2 1.2305000000000010e+00 2.7706750743275496e+01 6.2314069199756306e+00 0 0 0
904 2 2.4610000000000003e+00 2.6996321237037659e+01 6.2314069199756306e+00 0 0 0
906 2 2.4610000000000003e+00 2.5575462224561992e+01 6.2314069199756306e+00 0 0 0
908 2 3.6914999999999996e+00 2.4865032718324166e+01 6.2314069199756306e+00 0 0 0
924 2 3.6914999999999996e+00 2.7706750743275496e+01 6.2314069199756306e+00 0 0 0
1205 2 0.0000000000000000e+00 2.5575462224561992e+01 9.2438206325799008e+00 0 0 0
1206 2 1.2305000000000001e+00 2.6285891730799833e+01 9.2438206325799008e+00 0 0 0
1210 2 1.2305000000000010e+00 2.7706750743275496e+01 9.2438206325799008e+00 0 0 0
1212 2 2.4610000000000003e+00 2.5575462224561992e+01 9.2438206325799008e+00 0 0 0
1213 2 3.6914999999999991e+00 2.6285891730799833e+01 9.2438206325799008e+00 0 0 0
1221 2 3.6914999999999996e+00 2.7706750743275496e+01 9.2438206325799008e+00 0 0 0
926 2 4.9220000000000006e+00 2.6996321237037659e+01 6.2314069199756306e+00 0 0 0
928 2 4.9220000000000006e+00 2.5575462224561992e+01 6.2314069199756306e+00 0 0 0
930 2 6.1524999999999990e+00 2.4865032718324155e+01 6.2314069199756306e+00 0 0 0
954 2 6.1524999999999990e+00 2.7706750743275496e+01 6.2314069199756306e+00 0 0 0
1223 2 4.9220000000000006e+00 2.5575462224561992e+01 9.2438206325799008e+00 0 0 0
1236 2 6.1524999999999990e+00 2.7706750743275496e+01 9.2438206325799008e+00 0 0 0
1204 2 0.0000000000000000e+00 2.8417180249513333e+01 9.2438206325799008e+00 0 0 0
1211 2 2.4610000000000003e+00 2.8417180249513326e+01 9.2438206325799008e+00 0 0 0
1222 2 4.9220000000000006e+00 2.8417180249513336e+01 9.2438206325799008e+00 0 0 0
896 2 0.0000000000000000e+00 3.1258898274464656e+01 6.2314069199756306e+00 0 0 0
898 2 0.0000000000000000e+00 2.9838039261988989e+01 6.2314069199756306e+00 0 0 0
900 2 1.2304999999999993e+00 2.9127609755751163e+01 6.2314069199756306e+00 0 0 0
918 2 2.4609999999999985e+00 3.1258898274464656e+01 6.2314069199756306e+00 0 0 0
920 2 2.4610000000000003e+00 2.9838039261988989e+01 6.2314069199756306e+00 0 0 0
922 2 3.6914999999999991e+00 2.9127609755751152e+01 6.2314069199756306e+00 0 0 0
1208 2 0.0000000000000000e+00 2.9838039261988989e+01 9.2438206325799008e+00 0 0 0
1209 2 1.2304999999999993e+00 3.0548468768226829e+01 9.2438206325799008e+00 0 0 0
1219 2 2.4610000000000003e+00 2.9838039261988989e+01 9.2438206325799008e+00 0 0 0
1220 2 3.6915000000000004e+00 3.0548468768226829e+01 9.2438206325799008e+00 0 0 0
948 2 4.9219999999999979e+00 3.1258898274464656e+01 6.2314069199756306e+00 0 0 0
950 2 4.9220000000000006e+00 2.9838039261988989e+01 6.2314069199756306e+00 0 0 0
952 2 6.1524999999999981e+00 2.9127609755751152e+01 6.2314069199756306e+00 0 0 0
1234 2 4.9220000000000006e+00 2.9838039261988989e+01 9.2438206325799008e+00 0 0 0
916 2 1.2304999999999993e+00 3.1969327780702493e+01 6.2314069199756306e+00 0 0 0
946 2 3.6914999999999996e+00 3.1969327780702493e+01 6.2314069199756306e+00 0 0 0