LAMMPS data file via write_data, version 16 Mar 2018, timestep = 8000000

4545 atoms
2 atom types

0.0000000000000000e+00 4.9219999999999999e+01 xlo xhi
0.0000000000000000e+00 4.9019635930410494e+01 ylo yhi
6.0093087532394307e-01 3.3034408911198582e+01 zlo zhi

Masses

1 18.015
2 12.01

Atoms # atomic

91 2 0.0000000000000000e+00 2.8417180249513345e+00 2.2180081223903132e+00 0 0 0
93 2 0.0000000000000000e+00 0.0000000000000000e+00 2.2180081223903132e+00 0 0 0
95 2 1.2305000000000001e+00 7.1042950623783474e-01 2.2180081223903132e+00 0 0 0
102 2 1.2305000000000001e+00 2.1312885187134998e+00 2.2180081223903132e+00 0 0 0
104 2 2.4610000000000003e+00 2.8417180249513345e+00 2.2180081223903132e+00 0 0 0
106 2 2.4610000000000003e+00 0.0000000000000000e+00 2.2180081223903132e+00 0 0 0
108 2 3.6915000000000004e+00 7.1042950623783474e-01 2.2180081223903132e+00 0 0 0
123 2 3.6914999999999996e+00 2.1312885187134998e+00 2.2180081223903132e+00 0 0 0
125 2 4.9220000000000006e+00 2.8417180249513332e+00 2.2180081223903132e+00 0 0 0
127 2 4.9220000000000006e+00 0.0000000000000000e+00 2.2180081223903132e+00 0 0 0
98 2 0.0000000000000000e+00 4.2625770374269996e+00 2.2180081223903132e+00 0 0 0
100 2 1.2305000000000001e+00 4.9730065436648339e+00 2.2180081223903132e+00 0 0 0
115 2 1.2305000000000001e+00 6.3938655561404980e+00 2.2180081223903132e+00 0 0 0
119 2 2.4610000000000003e+00 4.2625770374269996e+00 2.2180081223903132e+00 0 0 0
121 2 3.6914999999999996e+00 4.9730065436648339e+00 2.2180081223903132e+00 0 0 0
144 2 3.6914999999999996e+00 6.3938655561404980e+00 2.2180081223903132e+00 0 0 0
148 2 4.9220000000000006e+00 4.2625770374269978e+00 2.2180081223903132e+00 0 0 0
96 2 0.0000000000000000e+00 7.1042950623783341e+00 2.2180081223903132e+00 0 0 0
117 2 2.4610000000000003e+00 7.1042950623783341e+00 2.2180081223903132e+00 0 0 0
146 2 4.9220000000000006e+00 7.1042950623783341e+00 2.2180081223903132e+00 0 0 0
111 2 0.0000000000000000e+00 8.5251540748539991e+00 2.2180081223903132e+00 0 0 0
113 2 1.2305000000000001e+00 9.2355835810918343e+00 2.2180081223903132e+00 0 0 0
140 2 2.4610000000000003e+00 8.5251540748539991e+00 2.2180081223903132e+00 0 0 0
142 2 3.6915000000000004e+00 9.2355835810918343e+00 2.2180081223903132e+00 0 0 0
177 2 4.9220000000000006e+00 8.5251540748539991e+00 2.2180081223903132e+00 0 0 0
109 2 0.0000000000000000e+00 1.1366872099805333e+01 2.2180081223903132e+00 0 0 0
136 2 1.2305000000000001e+00 1.0656442593567498e+01 2.2180081223903132e+00 0 0 0
138 2 2.4610000000000003e+00 1.1366872099805333e+01 2.2180081223903132e+00 0 0 0
173 2 3.6914999999999996e+00 1.0656442593567499e+01 2.2180081223903132e+00 0 0 0
175 2 4.9220000000000006e+00 1.1366872099805333e+01 2.2180081223903132e+00 0 0 0
92 2 0.0000000000000000e+00 1.4208590124756650e+00 5.4521626165247623e+00 0 0 0
94 2 0.0000000000000000e+00 0.0000000000000000e+00 5.4521626165247623e+00 0 0 0
103 2 1.2305000000000001e+00 2.1312885187134998e+00 5.4521626165247623e+00 0 0 0
105 2 2.4610000000000003e+00 1.4208590124756650e+00 5.4521626165247623e+00 0 0 0
107 2 2.4610000000000003e+00 0.0000000000000000e+00 5.4521626165247623e+00 0 0 0
124 2 3.6914999999999996e+00 2.1312885187134998e+00 5.4521626165247623e+00 0 0 0
420 2 0.0000000000000000e+00 2.8417180249513345e+00 8.6863171106639818e+00 0 0 0
421 2 0.0000000000000000e+00 0.0000000000000000e+00 8.6863171106639818e+00 0 0 0
422 2 1.2305000000000001e+00 7.1042950623783474e-01 8.6863171106639818e+00 0 0 0
426 2 1.2305000000000001e+00 2.1312885187134998e+00 8.6863171106639818e+00 0 0 0
427 2 2.4610000000000003e+00 2.8417180249513345e+00 8.6863171106639818e+00 0 0 0
428 2 2.4610000000000003e+00 0.0000000000000000e+00 8.6863171106639818e+00 0 0 0
429 2 3.6915000000000004e+00 7.1042950623783474e-01 8.6863171106639818e+00 0 0 0
437 2 3.6914999999999996e+00 2.1312885187134998e+00 8.6863171106639818e+00 0 0 0
126 2 4.9220000000000006e+00 1.4208590124756650e+00 5.4521626165247623e+00 0 0 0
128 2 4.9220000000000006e+00 0.0000000000000000e+00 5.4521626165247623e+00 0 0 0
438 2 4.9220000000000006e+00 2.8417180249513332e+00 8.6863171106639818e+00 0 0 0
439 2 4.9220000000000006e+00 0.0000000000000000e+00 8.6863171106639818e+00 0 0 0
101 2 1.2305000000000001e+00 3.5521475311891644e+00 5.4521626165247623e+00 0 0 0
122 2 3.6914999999999996e+00 3.5521475311891644e+00 5.4521626165247623e+00 0 0 0
97 2 0.0000000000000000e+00 5.6834360499026637e+00 5.4521626165247623e+00 0 0 0
99 2 0.0000000000000000e+00 4.2625770374269996e+00 5.4521626165247623e+00 0 0 0
116 2 1.2305000000000001e+00 6.3938655561404980e+00 5.4521626165247623e+00 0 0 0
118 2 2.4610000000000003e+00 5.6834360499026637e+00 5.4521626165247623e+00 0 0 0
120 2 2.4610000000000003e+00 4.2625770374269996e+00 5.4521626165247623e+00 0 0 0
145 2 3.6914999999999996e+00 6.3938655561404980e+00 5.4521626165247623e+00 0 0 0
424 2 0.0000000000000000e+00 4.2625770374269996e+00 8.6863171106639818e+00 0 0 0
425 2 1.2305000000000001e+00 4.9730065436648339e+00 8.6863171106639818e+00 0 0 0
433 2 1.2305000000000001e+00 6.3938655561404980e+00 8.6863171106639818e+00 0 0 0
435 2 2.4610000000000003e+00 4.2625770374269996e+00 8.6863171106639818e+00 0 0 0
436 2 3.6914999999999996e+00 4.9730065436648339e+00 8.6863171106639818e+00 0 0 0
448 2 3.6914999999999996e+00 6.3938655561404980e+00 8.6863171106639818e+00 0 0 0
147 2 4.9220000000000006e+00 5.6834360499026637e+00 5.4521626165247623e+00 0 0 0
149 2 4.9220000000000006e+00 4.2625770374269978e+00 5.4521626165247623e+00 0 0 0
450 2 4.9220000000000006e+00 4.2625770374269978e+00 8.6863171106639818e+00 0 0 0
114 2 1.2305000000000001e+00 7.8147245686161639e+00 5.4521626165247623e+00 0 0 0
143 2 3.6914999999999996e+00 7.8147245686161639e+00 5.4521626165247623e+00 0 0 0
423 2 0.0000000000000000e+00 7.1042950623783341e+00 8.6863171106639818e+00 0 0 0
434 2 2.4610000000000003e+00 7.1042950623783341e+00 8.6863171106639818e+00 0 0 0
449 2 4.9220000000000006e+00 7.1042950623783341e+00 8.6863171106639818e+00 0 0 0
110 2 0.0000000000000000e+00 9.9460130873296642e+00 5.4521626165247623e+00 0 0 0
112 2 0.0000000000000000e+00 8.5251540748539991e+00 5.4521626165247623e+00 0 0 0
139 2 2.4610000000000003e+00 9.9460130873296642e+00 5.4521626165247623e+00 0 0 0
141 2 2.4610000000000003e+00 8.5251540748539991e+00 5.4521626165247623e+00 0 0 0
431 2 0.0000000000000000e+00 8.5251540748539991e+00 8.6863171106639818e+00 0 0 0
432 2 1.2305000000000001e+00 9.2355835810918343e+00 8.6863171106639818e+00 0 0 0
446 2 2.4610000000000003e+00 8.5251540748539991e+00 8.6863171106639818e+00 0 0 0
447 2 3.6915000000000004e+00 9.2355835810918343e+00 8.6863171106639818e+00 0 0 0
176 2 4.9220000000000006e+00 9.9460130873296642e+00 5.4521626165247623e+00 0 0 0
178 2 4.9220000000000006e+00 8.5251540748539991e+00 5.4521626165247623e+00 0 0 0
465 2 4.9220000000000006e+00 8.5251540748539991e+00 8.6863171106639818e+00 0 0 0
135 2 1.2305000000000001e+00 1.2077301606043163e+01 5.4521626165247623e+00 0 0 0
137 2 1.2305000000000001e+00 1.0656442593567498e+01 5.4521626165247623e+00 0 0 0
172 2 3.6914999999999996e+00 1.2077301606043163e+01 5.4521626165247623e+00 0 0 0
174 2 3.6914999999999996e+00 1.0656442593567499e+01 5.4521626165247623e+00 0 0 0
430 2 0.0000000000000000e+00 1.1366872099805333e+01 8.6863171106639818e+00 0 0 0
444 2 1.2305000000000001e+00 1.0656442593567498e+01 8.6863171106639818e+00 0 0 0
445 2 2.4610000000000003e+00 1.1366872099805333e+01 8.6863171106639818e+00 0 0 0
463 2 3.6914999999999996e+00 1.0656442593567499e+01 8.6863171106639818e+00 0 0 0
464 2 4.9220000000000006e+00 1.1366872099805333e+01 8.6863171106639818e+00 0 0 0
2997 1 3.4755097958868504e+00 2.2405209381577471e+00 1.1461304404322018e+01 1 1 -1
2189 1 8.3502759795474690e-01 3.2509528425555980e+00 1.1716153522728268e+01 1 0 1
3644 1 5.7107246982750359e+00 3.8828311461887641e+00 1.1322600014078551e+01 -1 4 -1
3136 1 4.7198477315028695e+00 6.7542672063636973e+00 1.1512978862006245e+01 0 2 0
4455 1 2.0506291832971404e+00 8.0867459233143251e+00 1.4211093770456861e+01 1 2 0
715 1 2.2610966329186870e+00 7.9154215858155528e+00 1.1646111217577459e+01 -2 -1 -1
2278 1 1.6308277985079864e+00 1.0910477373374480e+01 1.1265506121417243e+01 5 2 0
3891 1 1.6618621319480997e+00 1.0875387634817878e+01 1.4254535693295217e+01 2 -1 0
3090 1 3.4129825213878422e+00 2.4319982389052517e+00 1.4212330512182756e+01 1 -4 0
3688 1 8.3532497649357795e-01 3.6009437952305317e+00 1.4373175682678804e+01 2 -1 0
4544 1 5.2190018144083883e+00 4.3143853328323889e+00 1.4042386775285786e+01 0 1 -1
2321 1 4.7499230713025140e+00 6.9894686282019629e+00 1.4645914406514287e+01 -1 1 -1
3849 1 6.1261803513994604e+00 1.2035407873531753e+01 1.1537204146668195e+01 3 -1 1
4453 1 3.3891508906059276e-01 5.6629356906175197e+00 1.1198177510671206e+01 2 1 0
2179 1 3.4269096950682538e+00 1.1872676869083726e+01 2.0792013713720607e+01 2 -3 0
49 1 3.4835733759324166e+00 2.4336483682820433e+00 1.7169630422528858e+01 1 0 1
812 1 1.0864916055101237e+00 2.9721271814765520e+00 2.0960444106857043e+01 1 0 1
4511 1 5.1268371398125723e+00 4.2437102566805942e+00 1.7924784992091389e+01 -1 0 0
3729 1 1.7096603037640783e+00 7.6349270137200458e+00 1.7846211760100598e+01 -1 0 0
882 1 4.2467123755821063e+00 6.6240478196784220e+00 1.7171747701107183e+01 1 0 -1
1490 1 3.5177190016117486e+00 1.2140302794958012e+01 1.8080262837977564e+01 -4 -1 0
1505 1 1.5735227901982045e+00 1.0083019863991151e+01 2.1456242197201618e+01 -3 0 0
1471 1 1.7815344081791928e+00 1.0270854116032188e+01 1.7196831268993652e+01 0 4 0
634 1 1.3841189234413114e+00 1.0213868736737288e+01 2.4122284088758281e+01 1 1 0
2894 1 2.9810068095031133e+00 2.3164058376450805e+00 2.4238240066271278e+01 5 0 0
1625 1 3.4681634831236758e+00 2.2370437359819912e+00 2.1585538664023204e+01 -2 3 -1
2905 1 5.1033777857515190e+00 4.2461239803857200e+00 2.0633575381051475e+01 -3 -1 0
1489 1 1.9336192977167570e+00 7.3406773308142075e+00 2.0473977929096108e+01 -3 2 0
4460 1 8.1855406698784849e-01 3.0191894842408677e+00 1.7841282190195535e+01 -2 1 0
51 1 4.6068082973406179e+00 6.6334279392753448e+00 2.4602910024211987e+01 2 -4 0
2948 1 4.4343041898078202e+00 6.7754278873553400e+00 2.1740900137919454e+01 0 2 -1
628 1 5.8928197126940862e+00 1.1181129987083498e+01 2.4303153864992677e+01 0 -1 0
4457 1 2.2267658321066577e-01 5.6526246030194045e+00 2.4362185678948123e+01 -3 2 0
2942 1 2.0969801474281174e-01 5.4256681834964242e+00 2.1594971562965920e+01 1 3 0
4452 1 6.0476909155514766e+00 1.1179248061296084e+01 1.7237699215132128e+01 3 0 0
598 1 5.9883923089393045e+00 1.1304114779543037e+01 2.1538442322573076e+01 -3 5 -1
606 1 1.2058668733094804e+00 2.6005484292694392e-01 2.4718528066738319e+01 1 -1 0
704 1 5.7152068515518719e+00 1.3697027121072964e+00 2.7993239627722577e+01 -1 0 -1
2131 1 2.7589832021876677e+00 5.0228037528519369e+00 2.5541064435520191e+01 2 -1 0
680 1 5.4406867692345200e+00 1.5928425978492295e+00 2.5149199755105826e+01 1 1 -1
3788 1 5.3572919127525154e-02 5.1891194890096690e+00 3.1675680252418367e+01 1 -1 0
4416 1 3.2808428169600723e+00 1.7173381043178497e+00 2.8803592503567398e+01 4 2 -1
643 1 8.6620990323294378e-01 1.6756927005434880e-01 3.2352776040384470e+01 2 1 -1
1616 1 2.8384027504734703e+00 4.4870699285274309e+00 2.8250838254423471e+01 -1 1 0
659 1 4.4809705583830954e+00 6.4740006119991014e+00 2.9034437202340357e+01 -1 1 0
3030 1 3.8078482373140186e+00 9.3713700598580054e+00 3.2303312148124476e+01 5 -1 0
2371 1 1.3796011831960233e+00 9.9656362455543714e+00 3.1494457765064446e+01 2 2 0
750 1 1.7271290342766277e+00 9.9828381113368518e+00 2.8950537147187344e+01 2 2 0
3679 1 3.9705084881018613e+00 8.8341395441874386e+00 2.7926830534986099e+01 3 2 0
596 1 2.2322981920816912e-01 5.5743229919583142e+00 2.8876109176474941e+01 1 -2 0
2971 1 3.1335316353660945e+00 1.9672927005267888e+00 3.1554828757484202e+01 4 0 0
3711 1 5.7825856718652977e+00 1.5266568592314955e+00 3.1839459563867031e+01 2 2 0
755 1 2.6592689691285756e+00 4.5925656223566289e+00 3.2007150310773440e+01 5 0 1
2340 1 4.3790222348252064e+00 6.6999628921166359e+00 3.1853772109059641e+01 -2 -6 1
1533 1 3.9093336620622274e+00 9.3081368124642232e+00 2.5167633339331257e+01 0 -1 0
2991 1 5.9135425012273899e+00 1.0990713167352460e+01 2.8671159579717560e+01 0 2 -1
3110 1 5.5143617784059371e+00 1.1254814696440478e+01 3.1264066444651387e+01 5 1 -1
132 2 0.0000000000000000e+00 1.2787731112280996e+01 2.2180081223903132e+00 0 0 0
134 2 1.2305000000000001e+00 1.3498160618518829e+01 2.2180081223903132e+00 0 0 0
169 2 2.4610000000000003e+00 1.2787731112280996e+01 2.2180081223903132e+00 0 0 0
171 2 3.6915000000000004e+00 1.3498160618518829e+01 2.2180081223903132e+00 0 0 0
214 2 4.9220000000000006e+00 1.2787731112280996e+01 2.2180081223903132e+00 0 0 0
216 2 6.1524999999999990e+00 1.3498160618518829e+01 2.2180081223903132e+00 0 0 0
130 2 0.0000000000000000e+00 1.5629449137232333e+01 2.2180081223903132e+00 0 0 0
165 2 1.2305000000000001e+00 1.4919019630994494e+01 2.2180081223903132e+00 0 0 0
167 2 2.4610000000000003e+00 1.5629449137232328e+01 2.2180081223903132e+00 0 0 0
210 2 3.6915000000000004e+00 1.4919019630994494e+01 2.2180081223903132e+00 0 0 0
212 2 4.9220000000000006e+00 1.5629449137232333e+01 2.2180081223903132e+00 0 0 0
257 2 6.1524999999999990e+00 1.4919019630994494e+01 2.2180081223903132e+00 0 0 0
161 2 0.0000000000000000e+00 1.7050308149707998e+01 2.2180081223903132e+00 0 0 0
206 2 2.4610000000000003e+00 1.7050308149707998e+01 2.2180081223903132e+00 0 0 0
253 2 4.9220000000000006e+00 1.7050308149707998e+01 2.2180081223903132e+00 0 0 0
159 2 0.0000000000000000e+00 1.9892026174659328e+01 2.2180081223903132e+00 0 0 0
163 2 1.2305000000000001e+00 1.7760737655945832e+01 2.2180081223903132e+00 0 0 0
202 2 1.2305000000000001e+00 1.9181596668421495e+01 2.2180081223903132e+00 0 0 0
204 2 2.4610000000000003e+00 1.9892026174659328e+01 2.2180081223903132e+00 0 0 0
208 2 3.6914999999999996e+00 1.7760737655945832e+01 2.2180081223903132e+00 0 0 0
249 2 3.6914999999999996e+00 1.9181596668421495e+01 2.2180081223903132e+00 0 0 0
251 2 4.9220000000000006e+00 1.9892026174659328e+01 2.2180081223903132e+00 0 0 0
196 2 0.0000000000000000e+00 2.4154603212086325e+01 2.2180081223903132e+00 0 0 0
198 2 0.0000000000000000e+00 2.1312885187134999e+01 2.2180081223903132e+00 0 0 0
200 2 1.2304999999999993e+00 2.2023314693372832e+01 2.2180081223903132e+00 0 0 0
241 2 1.2304999999999993e+00 2.3444173705848499e+01 2.2180081223903132e+00 0 0 0
243 2 2.4610000000000003e+00 2.4154603212086325e+01 2.2180081223903132e+00 0 0 0
245 2 2.4610000000000003e+00 2.1312885187134995e+01 2.2180081223903132e+00 0 0 0
247 2 3.6914999999999996e+00 2.2023314693372832e+01 2.2180081223903132e+00 0 0 0
288 2 3.6915000000000004e+00 2.3444173705848499e+01 2.2180081223903132e+00 0 0 0
290 2 4.9220000000000006e+00 2.4154603212086325e+01 2.2180081223903132e+00 0 0 0
292 2 4.9220000000000006e+00 2.1312885187134995e+01 2.2180081223903132e+00 0 0 0
294 2 6.1524999999999990e+00 2.2023314693372832e+01 2.2180081223903132e+00 0 0 0
133 2 0.0000000000000000e+00 1.2787731112280996e+01 5.4521626165247623e+00 0 0 0
170 2 2.4610000000000003e+00 1.2787731112280996e+01 5.4521626165247623e+00 0 0 0
442 2 0.0000000000000000e+00 1.2787731112280996e+01 8.6863171106639818e+00 0 0 0
443 2 1.2305000000000001e+00 1.3498160618518829e+01 8.6863171106639818e+00 0 0 0
461 2 2.4610000000000003e+00 1.2787731112280996e+01 8.6863171106639818e+00 0 0 0
462 2 3.6915000000000004e+00 1.3498160618518829e+01 8.6863171106639818e+00 0 0 0
215 2 4.9220000000000006e+00 1.2787731112280996e+01 5.4521626165247623e+00 0 0 0
484 2 4.9220000000000006e+00 1.2787731112280996e+01 8.6863171106639818e+00 0 0 0
485 2 6.1524999999999990e+00 1.3498160618518829e+01 8.6863171106639818e+00 0 0 0
131 2 0.0000000000000000e+00 1.4208590124756663e+01 5.4521626165247623e+00 0 0 0
166 2 1.2305000000000001e+00 1.4919019630994494e+01 5.4521626165247623e+00 0 0 0
168 2 2.4610000000000003e+00 1.4208590124756663e+01 5.4521626165247623e+00 0 0 0
211 2 3.6915000000000004e+00 1.4919019630994494e+01 5.4521626165247623e+00 0 0 0
441 2 0.0000000000000000e+00 1.5629449137232333e+01 8.6863171106639818e+00 0 0 0
459 2 1.2305000000000001e+00 1.4919019630994494e+01 8.6863171106639818e+00 0 0 0
460 2 2.4610000000000003e+00 1.5629449137232328e+01 8.6863171106639818e+00 0 0 0
482 2 3.6915000000000004e+00 1.4919019630994494e+01 8.6863171106639818e+00 0 0 0
213 2 4.9220000000000006e+00 1.4208590124756663e+01 5.4521626165247623e+00 0 0 0
258 2 6.1524999999999990e+00 1.4919019630994494e+01 5.4521626165247623e+00 0 0 0
483 2 4.9220000000000006e+00 1.5629449137232333e+01 8.6863171106639818e+00 0 0 0
506 2 6.1524999999999990e+00 1.4919019630994494e+01 8.6863171106639818e+00 0 0 0
162 2 0.0000000000000000e+00 1.7050308149707998e+01 5.4521626165247623e+00 0 0 0
164 2 1.2305000000000001e+00 1.6339878643470165e+01 5.4521626165247623e+00 0 0 0
207 2 2.4610000000000003e+00 1.7050308149707998e+01 5.4521626165247623e+00 0 0 0
209 2 3.6915000000000004e+00 1.6339878643470165e+01 5.4521626165247623e+00 0 0 0
457 2 0.0000000000000000e+00 1.7050308149707998e+01 8.6863171106639818e+00 0 0 0
480 2 2.4610000000000003e+00 1.7050308149707998e+01 8.6863171106639818e+00 0 0 0
254 2 4.9220000000000006e+00 1.7050308149707998e+01 5.4521626165247623e+00 0 0 0
504 2 4.9220000000000006e+00 1.7050308149707998e+01 8.6863171106639818e+00 0 0 0
160 2 0.0000000000000000e+00 1.8471167162183658e+01 5.4521626165247623e+00 0 0 0
203 2 1.2305000000000001e+00 1.9181596668421495e+01 5.4521626165247623e+00 0 0 0
205 2 2.4610000000000003e+00 1.8471167162183658e+01 5.4521626165247623e+00 0 0 0
250 2 3.6914999999999996e+00 1.9181596668421495e+01 5.4521626165247623e+00 0 0 0
456 2 0.0000000000000000e+00 1.9892026174659328e+01 8.6863171106639818e+00 0 0 0
458 2 1.2305000000000001e+00 1.7760737655945832e+01 8.6863171106639818e+00 0 0 0
478 2 1.2305000000000001e+00 1.9181596668421495e+01 8.6863171106639818e+00 0 0 0
479 2 2.4610000000000003e+00 1.9892026174659328e+01 8.6863171106639818e+00 0 0 0
481 2 3.6914999999999996e+00 1.7760737655945832e+01 8.6863171106639818e+00 0 0 0
502 2 3.6914999999999996e+00 1.9181596668421495e+01 8.6863171106639818e+00 0 0 0
252 2 4.9220000000000006e+00 1.8471167162183658e+01 5.4521626165247623e+00 0 0 0
503 2 4.9220000000000006e+00 1.9892026174659328e+01 8.6863171106639818e+00 0 0 0
201 2 1.2305000000000001e+00 2.0602455680897162e+01 5.4521626165247623e+00 0 0 0
248 2 3.6915000000000004e+00 2.0602455680897162e+01 5.4521626165247623e+00 0 0 0
197 2 0.0000000000000000e+00 2.2733744199610655e+01 5.4521626165247623e+00 0 0 0
199 2 0.0000000000000000e+00 2.1312885187134999e+01 5.4521626165247623e+00 0 0 0
242 2 1.2304999999999993e+00 2.3444173705848499e+01 5.4521626165247623e+00 0 0 0
244 2 2.4610000000000003e+00 2.2733744199610655e+01 5.4521626165247623e+00 0 0 0
246 2 2.4610000000000003e+00 2.1312885187134995e+01 5.4521626165247623e+00 0 0 0
289 2 3.6915000000000004e+00 2.3444173705848499e+01 5.4521626165247623e+00 0 0 0
475 2 0.0000000000000000e+00 2.4154603212086325e+01 8.6863171106639818e+00 0 0 0
476 2 0.0000000000000000e+00 2.1312885187134999e+01 8.6863171106639818e+00 0 0 0
477 2 1.2304999999999993e+00 2.2023314693372832e+01 8.6863171106639818e+00 0 0 0
498 2 1.2304999999999993e+00 2.3444173705848499e+01 8.6863171106639818e+00 0 0 0
499 2 2.4610000000000003e+00 2.4154603212086325e+01 8.6863171106639818e+00 0 0 0
500 2 2.4610000000000003e+00 2.1312885187134995e+01 8.6863171106639818e+00 0 0 0
501 2 3.6914999999999996e+00 2.2023314693372832e+01 8.6863171106639818e+00 0 0 0
522 2 3.6915000000000004e+00 2.3444173705848499e+01 8.6863171106639818e+00 0 0 0
291 2 4.9220000000000006e+00 2.2733744199610655e+01 5.4521626165247623e+00 0 0 0
293 2 4.9220000000000006e+00 2.1312885187134995e+01 5.4521626165247623e+00 0 0 0
523 2 4.9220000000000006e+00 2.4154603212086325e+01 8.6863171106639818e+00 0 0 0
524 2 4.9220000000000006e+00 2.1312885187134995e+01 8.6863171106639818e+00 0 0 0
525 2 6.1524999999999990e+00 2.2023314693372832e+01 8.6863171106639818e+00 0 0 0
1549 1 2.8929567031053240e+00 1.5717388970184853e+01 1.1217815911285417e+01 0 -1 -1
2260 1 3.5990648516952608e+00 1.2979063670052225e+01 1.1433243386160916e+01 1 -2 -1
33 1 5.1450895216643868e+00 1.7917905871785727e+01 1.1525809688933577e+01 -3 1 -1
4395 1 4.6633331393697928e+00 2.0717766275994911e+01 1.1466186478104348e+01 -2 -3 -1
3021 1 2.0283469992459904e+00 2.1782954771715524e+01 1.1053371961263633e+01 -1 0 -1
36 1 2.9395510370066162e+00 1.5484227237061614e+01 1.4240184961511957e+01 0 0 1
762 1 6.0689693224067893e+00 2.3645922037670918e+01 1.6817488909986270e+01 -1 -3 0
3895 1 4.8512562182937922e+00 1.7560314069530833e+01 1.4237673252031545e+01 -4 0 0
3863 1 4.4003286416694269e+00 2.0528085604171906e+01 1.4247449391424178e+01 -6 -3 1
3732 1 1.9810149808274657e+00 2.1523375055629163e+01 1.4099509206297325e+01 -3 -3 -1
1361 1 3.4981648186003816e-01 1.6768766990079964e+01 1.1159427859488211e+01 3 -8 0
4344 1 1.8320984453637124e-01 1.6585070035322357e+01 1.4210460886209619e+01 3 2 0
2252 1 3.5630218896628634e+00 1.2748783996901295e+01 1.4250902094607959e+01 0 2 0
2401 1 1.2303505067580971e+00 2.4488693198758178e+01 1.4046945357213165e+01 2 4 0
1412 1 1.2644755045034666e+00 2.2718791949331560e+01 1.6542686783139317e+01 -1 1 0
1478 1 4.7295202327660490e-02 1.7960890786418027e+01 1.6775044921946996e+01 2 4 -1
2396 1 6.2938391024722296e-01 1.5042125449516506e+01 2.0490820083546158e+01 1 -1 0
1512 1 2.9931595633866768e+00 1.4588722211191369e+01 1.7112218993600226e+01 3 2 -2
1434 1 4.3998575680569507e+00 1.9184052894009227e+01 1.6833702080886578e+01 -2 1 -1
4531 1 4.9507260999967659e+00 1.6375284816672981e+01 1.7903503404520794e+01 0 0 1
710 1 1.9986334908039622e+00 2.0042392685618868e+01 1.7652453835873843e+01 4 0 0
4482 1 5.1695108274900203e+00 1.6401860608698339e+01 2.0423117329268837e+01 -4 1 0
1564 1 5.7657790205961250e+00 2.3417369167033158e+01 2.4364117452622772e+01 0 -3 0
2254 1 1.9196123209392282e+00 1.9523909794855463e+01 2.0469894460915388e+01 2 3 0
1414 1 1.4084285341238980e+00 2.2074370349328206e+01 2.4193164426718369e+01 2 -3 0
2253 1 1.6209150524971774e+00 2.2080666921345451e+01 2.1540705881150558e+01 -2 2 0
2146 1 3.4267586877226464e+00 2.4097676939601506e+01 2.0726667181817028e+01 2 -7 0
1477 1 3.3095407727091235e+00 2.4282757318202592e+01 1.7869517947410394e+01 -3 -2 -1
1367 1 3.1562722441206295e+00 1.4426614576464631e+01 2.4266485672588750e+01 -6 -1 0
2144 1 3.0645283020101641e+00 1.4628019979849187e+01 2.1288307271694396e+01 4 -1 0
3115 1 5.8861924467666578e+00 2.3309796796803287e+01 2.1647405599922852e+01 6 2 0
2949 1 4.5999928815063376e+00 1.8940921311652563e+01 2.1377912628497402e+01 4 -2 0
4332 1 4.2518254119474532e+00 1.9078172930880690e+01 2.4138036054858183e+01 0 2 1
4409 1 4.3149601921465108e-01 1.5355807782332349e+01 1.7744566079627628e+01 2 4 0
856 1 5.8301475649052730e+00 1.3829163889136940e+01 2.8189237265253961e+01 4 2 0
73 1 3.0592820551133890e+00 1.4717973588748404e+01 2.8507890952587438e+01 -3 -5 0
3619 1 1.4533851393120238e+00 1.2527708869063840e+01 2.7826232908543414e+01 -4 2 -1
3776 1 5.9135874815805387e+00 2.3546421976389393e+01 2.8899406652051585e+01 4 -2 0
28 1 2.6233448017395289e+00 1.7131961169654772e+01 2.7521753456276546e+01 0 0 1
2938 1 4.3569904688311736e+00 1.8791291550870199e+01 2.8826047890942863e+01 4 -1 0
3828 1 3.9236484066509143e+00 2.1517362857535687e+01 3.2155001179726881e+01 1 2 0
24 1 1.7504290236681468e+00 2.2283444064918079e+01 2.8546085946930496e+01 -1 2 0
2921 1 4.4011451540788142e+00 2.1409301648489141e+01 2.7953339190702948e+01 1 -1 0
2884 1 9.4529087455104155e-01 1.2581373987337656e+01 3.2203693671443460e+01 5 0 0
3044 1 3.0398727050566654e+00 1.4575296738385285e+01 3.1257767708974924e+01 0 3 0
4543 1 5.6075170861973982e+00 1.3884689567178148e+01 3.2131994295285139e+01 1 3 -1
3848 1 2.4096266512756066e+00 1.6967780850773874e+01 2.4926636905255819e+01 1 -3 0
757 1 4.4227553126895511e+00 1.8994895552060814e+01 3.1424667907299934e+01 4 -3 -1
3066 1 2.7459114094296431e+00 1.7044009565418214e+01 3.2153372303362254e+01 -4 -5 0
1577 1 5.9287258938848728e+00 2.3368380301185567e+01 3.1567369020176965e+01 1 2 0
2907 1 1.4833999364938488e+00 2.2459241529793193e+01 3.1286473962734895e+01 1 0 0
5 1 5.7350351501624628e+00 1.3787679147577006e+01 2.5296615056294527e+01 -1 -2 0
2225 1 1.2091478326068010e+00 1.2847403042328178e+01 2.5056700551364141e+01 0 1 -1
3616 1 3.8665537964799848e+00 2.1677590726510299e+01 2.5304900640222478e+01 4 5 0
682 1 3.2913272630037227e-01 1.8158752692471051e+01 3.1284155531544528e+01 5 2 0
891 2 0.0000000000000000e+00 2.5575462224561992e+01 2.2180081223903132e+00 0 0 0
893 2 1.2305000000000001e+00 2.6285891730799833e+01 2.2180081223903132e+00 0 0 0
901 2 1.2305000000000010e+00 2.7706750743275496e+01 2.2180081223903132e+00 0 0 0
905 2 2.4610000000000003e+00 2.5575462224561992e+01 2.2180081223903132e+00 0 0 0
907 2 3.6914999999999991e+00 2.6285891730799833e+01 2.2180081223903132e+00 0 0 0
923 2 3.6914999999999996e+00 2.7706750743275496e+01 2.2180081223903132e+00 0 0 0
927 2 4.9220000000000006e+00 2.5575462224561992e+01 2.2180081223903132e+00 0 0 0
953 2 6.1524999999999990e+00 2.7706750743275496e+01 2.2180081223903132e+00 0 0 0
889 2 0.0000000000000000e+00 2.8417180249513333e+01 2.2180081223903132e+00 0 0 0
903 2 2.4610000000000003e+00 2.8417180249513326e+01 2.2180081223903132e+00 0 0 0
925 2 4.9220000000000006e+00 2.8417180249513336e+01 2.2180081223903132e+00 0 0 0
897 2 0.0000000000000000e+00 2.9838039261988989e+01 2.2180081223903132e+00 0 0 0
899 2 1.2304999999999993e+00 3.0548468768226829e+01 2.2180081223903132e+00 0 0 0
919 2 2.4610000000000003e+00 2.9838039261988989e+01 2.2180081223903132e+00 0 0 0
921 2 3.6915000000000004e+00 3.0548468768226829e+01 2.2180081223903132e+00 0 0 0
949 2 4.9220000000000006e+00 2.9838039261988989e+01 2.2180081223903132e+00 0 0 0
895 2 0.0000000000000000e+00 3.2679757286940330e+01 2.2180081223903132e+00 0 0 0
915 2 1.2304999999999993e+00 3.1969327780702493e+01 2.2180081223903132e+00 0 0 0
945 2 3.6914999999999996e+00 3.1969327780702493e+01 2.2180081223903132e+00 0 0 0
911 2 0.0000000000000000e+00 3.4100616299415996e+01 2.2180081223903132e+00 0 0 0
913 2 1.2305000000000010e+00 3.4811045805653833e+01 2.2180081223903132e+00 0 0 0
917 2 2.4610000000000003e+00 3.2679757286940337e+01 2.2180081223903132e+00 0 0 0
941 2 2.4609999999999985e+00 3.4100616299415996e+01 2.2180081223903132e+00 0 0 0
943 2 3.6915000000000018e+00 3.4811045805653833e+01 2.2180081223903132e+00 0 0 0
947 2 4.9220000000000015e+00 3.2679757286940337e+01 2.2180081223903132e+00 0 0 0
979 2 4.9220000000000006e+00 3.4100616299415996e+01 2.2180081223903132e+00 0 0 0
937 2 1.2304999999999993e+00 3.6231904818129486e+01 2.2180081223903132e+00 0 0 0
975 2 3.6914999999999996e+00 3.6231904818129486e+01 2.2180081223903132e+00 0 0 0
890 2 0.0000000000000000e+00 2.6996321237037659e+01 5.4521626165247623e+00 0 0 0
892 2 0.0000000000000000e+00 2.5575462224561992e+01 5.4521626165247623e+00 0 0 0
894 2 1.2305000000000001e+00 2.4865032718324155e+01 5.4521626165247623e+00 0 0 0
902 2 1.2305000000000010e+00 2.7706750743275496e+01 5.4521626165247623e+00 0 0 0
904 2 2.4610000000000003e+00 2.6996321237037659e+01 5.4521626165247623e+00 0 0 0
906 2 2.4610000000000003e+00 2.5575462224561992e+01 5.4521626165247623e+00 0 0 0
908 2 3.6914999999999996e+00 2.4865032718324166e+01 5.4521626165247623e+00 0 0 0
924 2 3.6914999999999996e+00 2.7706750743275496e+01 5.4521626165247623e+00 0 0 0
1205 2 0.0000000000000000e+00 2.5575462224561992e+01 8.6863171106639818e+00 0 0 0
1206 2 1.2305000000000001e+00 2.6285891730799833e+01 8.6863171106639818e+00 0 0 0
1210 2 1.2305000000000010e+00 2.7706750743275496e+01 8.6863171106639818e+00 0 0 0
1212 2 2.4610000000000003e+00 2.5575462224561992e+01 8.6863171106639818e+00 0 0 0
1213 2 3.6914999999999991e+00 2.6285891730799833e+01 8.6863171106639818e+00 0 0 0
1221 2 3.6914999999999996e+00 2.7706750743275496e+01 8.6863171106639818e+00 0 0 0
926 2 4.9220000000000006e+00 2.6996321237037659e+01 5.4521626165247623e+00 0 0 0
928 2 4.9220000000000006e+00 2.5575462224561992e+01 5.4521626165247623e+00 0 0 0
930 2 6.1524999999999990e+00 2.4865032718324155e+01 5.4521626165247623e+00 0 0 0
954 2 6.1524999999999990e+00 2.7706750743275496e+01 5.4521626165247623e+00 0 0 0
1223 2 4.9220000000000006e+00 2.5575462224561992e+01 8.6863171106639818e+00 0 0 0
1236 2 6.1524999999999990e+00 2.7706750743275496e+01 8.6863171106639818e+00 0 0 0
1204 2 0.0000000000000000e+00 2.8417180249513333e+01 8.6863171106639818e+00 0 0 0
1211 2 2.4610000000000003e+00 2.8417180249513326e+01 8.6863171106639818e+00 0 0 0
1222 2 4.9220000000000006e+00 2.8417180249513336e+01 8.6863171106639818e+00 0 0 0
896 2 0.0000000000000000e+00 3.1258898274464656e+01 5.4521626165247623e+00 0 0 0
898 2 0.0000000000000000e+00 2.9838039261988989e+01 5.4521626165247623e+00 0 0 0
900 2 1.2304999999999993e+00 2.9127609755751163e+01 5.4521626165247623e+00 0 0 0
918 2 2.4609999999999985e+00 3.1258898274464656e+01 5.4521626165247623e+00 0 0 0
920 2 2.4610000000000003e+00 2.9838039261988989e+01 5.4521626165247623e+00 0 0 0
922 2 3.6914999999999991e+00 2.9127609755751152e+01 5.4521626165247623e+00 0 0 0
1208 2 0.0000000000000000e+00 2.9838039261988989e+01 8.6863171106639818e+00 0 0 0
1209 2 1.2304999999999993e+00 3.0548468768226829e+01 8.6863171106639818e+00 0 0 0
1219 2 2.4610000000000003e+00 2.9838039261988989e+01 8.6863171106639818e+00 0 0 0
1220 2 3.6915000000000004e+00 3.0548468768226829e+01 8.6863171106639818e+00 0 0 0
948 2 4.9219999999999979e+00 3.1258898274464656e+01 5.4521626165247623e+00 0 0 0
950 2 4.9220000000000006e+00 2.9838039261988989e+01 5.4521626165247623e+00 0 0 0
952 2 6.1524999999999981e+00 2.9127609755751152e+01 5.4521626165247623e+00 0 0 0
1234 2 4.9220000000000006e+00 2.9838039261988989e+01 8.6863171106639818e+00 0 0 0
916 2 1.2304999999999993e+00 3.1969327780702493e+01 5.4521626165247623e+00 0 0 0
946 2 3.6914999999999996e+00 3.1969327780702493e+01 5.4521626165247623e+00 0 0 0