
# Create simulation box and atoms

read_data data.ML_graphite_1atm_240K
  orthogonal box = (0 0 1.76685) to (49.22 49.0196 31.8685)
  8 by 4 by 4 MPI processor grid
  reading atoms ...
  4545 atoms
  reading velocities ...
  4545 velocities
group water type 1
1785 atoms in group water
group graphite type 2
2760 atoms in group graphite

# Define potential

pair_style sw
pair_coeff * * MLC_e.sw mW C


# Fix graphite atoms in place

fix 5 graphite setforce 0.0 0.0 0.0
velocity graphite set 0.0 0.0 0.0


# Equilibration of molecular water

# Add velocity/set timestep

velocity	    water create ${TEMP} ${SEED} rot yes dist gaussian
velocity	    water create 240 ${SEED} rot yes dist gaussian
velocity	    water create 240 20344 rot yes dist gaussian
timestep	    5.0

# Define output

compute			1 water msd
compute			3 water temp
thermo	    	50
thermo_style	custom step temp press vol etotal ke pe c_1[4] c_3

# Neighbor lists

neigh_modify    delay 0 every 1 check yes

# Set fixes

fix             1 water momentum 10 linear 1 1 1 rescale
fix             2 water nve
fix             3 water temp/csvr ${TEMP} ${TEMP} 500.0 ${SEED}
fix             3 water temp/csvr 240 ${TEMP} 500.0 ${SEED}
fix             3 water temp/csvr 240 240 500.0 ${SEED}
fix             3 water temp/csvr 240 240 500.0 20344
fix             4 water press/berendsen z ${PRES} ${PRES} 1000.0 modulus 20000
fix             4 water press/berendsen z 1 ${PRES} 1000.0 modulus 20000
fix             4 water press/berendsen z 1 1 1000.0 modulus 20000

# Run 0.5 ns equilibration

dump		    1 all atom 2000 ${DIR}/eq.${NAME}-${TEMP}.dump
dump		    1 all atom 2000 run_17/eq.${NAME}-${TEMP}.dump
dump		    1 all atom 2000 run_17/eq.het_freeze_17-${TEMP}.dump
dump		    1 all atom 2000 run_17/eq.het_freeze_17-240.dump

reset_timestep  0

run	            100000
Neighbor list info ...
  update every 1 steps, delay 0 steps, check yes
  max neighbors/atom: 2000, page size: 100000
  master list distance cutoff = 6.67472
  ghost atom cutoff = 6.67472
  binsize = 3.33736, bins = 15 15 10
  1 neighbor lists, perpetual/occasional/extra = 1 0 0
  (1) pair sw, perpetual
      attributes: full, newton on
      pair build: full/bin/atomonly
      stencil: full/bin/3d
      bin: standard
Per MPI rank memory allocation (min/avg/max) = 4.073 | 4.194 | 4.482 Mbytes
Step Temp Press Volume TotEng KinEng PotEng c_1[4] c_3 
       0    94.225352   -657.89738    72627.636   -17236.286    1276.2636    -18512.55            0          240 
      50    93.490855   -424.89559    72648.163   -17237.754     1266.315   -18504.069    0.5351736    238.12917 
     100    91.430027   -319.35973    72649.572   -17233.347    1238.4015   -18471.748   0.90160203    232.88007 
     150    94.981443   -356.31421    72628.777   -17214.581    1286.5047   -18501.086    1.1597195    241.92583 
     200    94.580724   -596.44356    72686.985   -17197.209    1281.0771   -18478.286    1.4282448    240.90516 
     250     94.44221   -293.10531    72694.608   -17229.569    1279.2009    -18508.77    1.6667227    240.55236 
     300    93.924886   -325.49408    72699.229   -17230.317    1272.1939   -18502.511    1.9134396    239.23469 
     350    97.396584   -487.92198    72669.302     -17210.4    1319.2173   -18529.617    2.1524674     248.0774 
     400     95.02648   -582.43928    72688.506   -17200.424    1287.1147   -18487.539    2.4586617    242.04054 
     450    92.392331   -365.70442    72698.435   -17200.086    1251.4357   -18451.522    2.7500187    235.33114 
     500    92.466131   -283.56586    72665.531   -17233.749    1252.4353   -18486.184    2.9382011    235.51911 
     550     94.87975   -549.91109    72580.604   -17256.951    1285.1273   -18542.078    3.1822201    241.66681 
     600    92.059807    -264.9229    72574.856    -17242.89    1246.9318   -18489.822    3.3803575    234.48417 
     650      92.6084    -234.9442    72641.307   -17226.198    1254.3623   -18480.561     3.618162    235.88149 
     700    94.963689    -116.6885    72705.845   -17213.865    1286.2643    -18500.13    3.9580989    241.88061 
     750    93.041606   -655.22754    72732.484   -17242.305      1260.23   -18502.535    4.1340289     236.9849 
     800    94.584598   -324.32091    72743.547   -17210.508    1281.1295   -18491.637    4.3332821    240.91503 
     850    94.815534   -341.50785     72708.39   -17168.047    1284.2575   -18452.305    4.5370138    241.50324 
     900    94.799762   -512.15553    72688.417   -17181.801    1284.0439   -18465.845    4.8011785    241.46307 
     950    94.537961   -695.56655    72633.413   -17227.947    1280.4979   -18508.444    5.0200544    240.79624 
    1000    94.933798   -207.44707    72620.249   -17225.391    1285.8594   -18511.251    5.1982273    241.80447 
    1050    92.765783   -363.22044    72713.324   -17236.892    1256.4941   -18493.386    5.2944189    236.28235 
    1100    93.037463   -182.91907    72709.275   -17259.782    1260.1739   -18519.956    5.4266128    236.97434 
    1150    95.617158   -50.249582    72710.691   -17235.793    1295.1154   -18530.909    5.6274724    243.54505 
    1200    94.400101   -227.41149     72743.74    -17243.16    1278.6306    -18521.79    5.8350183     240.4451 
    1250    96.687121   -297.95606    72756.983   -17244.487    1309.6078   -18554.095     6.096215    246.27034 
    1300    96.471299   -818.11708    72752.168   -17199.019    1306.6845   -18505.704    6.3336803    245.72062 
    1350    94.105164    -476.5964    72751.597   -17219.511    1274.6357   -18494.146    6.6461863    239.69387 
    1400    94.578229   -324.71624    72756.555   -17198.103    1281.0433   -18479.146    6.9338562    240.89881 
    1450    94.664638   -886.18856    72727.343   -17205.197    1282.2137   -18487.411    7.1697524     241.1189 
    1500     93.98409   -570.52304    72676.543   -17210.446    1272.9958   -18483.442    7.4864673    239.38548 
    1550    94.786943   -576.33696    72735.623   -17191.812    1283.8703   -18475.683    7.7473378    241.43042 
    1600    97.989174    -216.4437    72808.879   -17190.292    1327.2438   -18517.536     7.958496    249.58677 
    1650    95.256951   -391.04431    72877.486   -17190.841    1290.2364   -18481.078    8.1010116    242.62757 
    1700     98.33771   -952.75153    72889.743   -17197.402    1331.9647   -18529.367    8.3650987    250.47453 
    1750    95.334532   -568.37052    72926.046   -17188.101    1291.2873   -18479.388    8.5871015    242.82518 
    1800    95.113806   -878.09235     72976.08   -17191.307    1288.2976   -18479.604    8.7790415    242.26297 
    1850    95.471977    -600.9323    72951.759   -17194.343    1293.1489   -18487.492    8.8437049    243.17526 
    1900    90.915501   -718.19914    72952.281   -17199.899    1231.4324   -18431.331    9.1794794    231.56953 
    1950    96.093958   -424.45604    72881.823   -17203.989    1301.5735   -18505.562    9.3191933     244.7595 
    2000    95.746677   -401.18182    72862.088   -17180.814    1296.8697   -18477.684    9.5137119    243.87495 
    2050    95.808432   -517.57356    72854.782   -17180.234    1297.7061    -18477.94    9.8167284    244.03224 
    2100    94.579857   -778.46098    72887.933   -17180.347    1281.0653   -18461.412    10.161424    240.90295 
    2150    99.388866   -511.42506    72924.417   -17198.299    1346.2024   -18544.502    10.580041    253.15191 
    2200    96.969456   -669.93849    72912.437   -17187.705     1313.432   -18501.137     11.11328    246.98947 
    2250    95.904245   -167.08775    72922.096   -17235.571    1299.0039   -18534.575    11.378277    244.27628 
    2300     93.35496   -436.29269    72971.277   -17219.065    1264.4743    -18483.54    11.593219    237.78304 
    2350    95.033777   -337.27593    72929.209   -17221.724    1287.2136   -18508.937    11.811839    242.05913 
    2400    93.687449   -330.61104    72891.719    -17232.62    1268.9778   -18501.598    11.876558    238.62991 
    2450    93.267925   -462.71903    72888.364   -17274.415    1263.2955   -18537.711    11.984967    237.56135 
    2500    92.097395   -217.65526    72882.359   -17289.246    1247.4409   -18536.687     12.17562    234.57991 
    2550    93.468613    -479.1134    72869.396   -17242.358    1266.0137   -18508.371    12.445007    238.07252 
    2600    93.834004    -662.3705     72878.86   -17249.287    1270.9629    -18520.25    12.626325     239.0032 
    2650    95.231959   -420.13027    72810.106   -17256.607    1289.8979   -18546.505    12.717941    242.56391 
    2700    94.312177    -299.7236    72771.561   -17251.769    1277.4397   -18529.209    12.868809    240.22115 
    2750    91.189464   -406.60013    72764.703   -17271.555    1235.1431   -18506.698    13.019922    232.26733 
    2800    94.150395   -467.52294    72726.037   -17265.771    1275.2484   -18541.019    13.171032    239.80908 
    2850    95.550942   -460.39376    72700.236    -17246.27    1294.2185   -18540.489    13.399699    243.37639 
    2900     93.74932   -218.88967    72719.849   -17218.477    1269.8159   -18488.293    13.575161     238.7875 
    2950     93.06518   -613.04337    72716.853   -17238.212    1260.5493   -18498.761    13.891266    237.04494 
    3000    94.386135   -242.73932    72641.589   -17228.264    1278.4414   -18506.705     14.20448    240.40953 
    3050    92.329006   -300.84466    72567.953   -17231.987     1250.578   -18482.565    14.532552    235.16984 
    3100    94.098844   -303.89647     72519.45   -17219.971    1274.5501   -18494.521    14.805537    239.67777 
    3150    95.337702   -518.93067    72516.506   -17222.077    1291.3302   -18513.408    15.097129    242.83325 
    3200    92.733749   -275.57097    72470.405    -17225.23    1256.0602    -18481.29    15.268546    236.20076 
    3250    94.853786   -243.10935    72527.201   -17189.509    1284.7756   -18474.285    15.500678    241.60068 
    3300    94.905534   -558.03681    72546.438   -17201.774    1285.4766    -18487.25    15.842823    241.73248 
    3350    94.711062   -25.845885    72541.362   -17226.825    1282.8425   -18509.667    16.090221    241.23715 
    3400    92.342024   -479.81888    72543.062   -17221.835    1250.7543   -18472.589    16.306761      235.203 
    3450    93.831705   -661.44709    72575.569   -17232.654    1270.9318   -18503.586    16.571627    238.99735 
    3500     94.37514   -740.73737    72472.999   -17205.258    1278.2925    -18483.55    16.737949    240.38152 
    3550    96.213141   -290.83619    72488.911   -17176.666    1303.1878   -18479.854     16.86484    245.06307 
    3600    95.810763   -577.12109    72481.606   -17198.239    1297.7377   -18495.977    16.919864    244.03818 
    3650    96.527337   -364.33636    72477.088   -17176.674    1307.4436   -18484.117     17.04997    245.86335 
    3700    95.021671   -762.50723    72418.584   -17203.952    1287.0496   -18491.002    17.286509    242.02829 
    3750    93.150488   -850.07869    72359.823   -17224.239    1261.7048   -18485.943    17.500212    237.26223 
    3800    96.164722   -322.60672    72416.392   -17189.359     1302.532   -18491.891    17.594392    244.93974 
    3850    96.401906   -601.14916    72437.889   -17170.325    1305.7446   -18476.069    17.912732    245.54387 
    3900    95.858503   -895.39353    72438.202   -17139.654    1298.3843   -18438.039    18.295544    244.15978 
    3950    97.543992   -540.36653     72500.65   -17155.407    1321.2139   -18476.621    18.445165    248.45286 
    4000     93.21934    -636.1021    72544.337   -17200.367    1262.6374   -18463.004    18.949159     237.4376 
    4050    94.398859   -538.14265    72565.253   -17205.255    1278.6138   -18483.869    19.035855    240.44194 
    4100    95.442176   -684.81416     72562.99   -17196.288    1292.7453   -18489.033    19.314092    243.09935 
    4150    97.432559   -213.57319    72553.589   -17180.869    1319.7046   -18500.574     19.73911    248.16903 
    4200    95.847191   -238.72995    72576.401   -17139.974    1298.2311   -18438.206    20.266463    244.13096 
    4250     94.56854   -154.80982     72629.68   -17156.625     1280.912   -18437.537    20.558903    240.87413 
    4300    95.742403   -503.89913    72623.565   -17172.743    1296.8118   -18469.555    20.742434    243.86406 
    4350    94.498793   -598.36405    72593.072   -17181.533    1279.9673   -18461.501    20.956366    240.69648 
    4400    93.921693   -296.96995     72652.22   -17188.645    1272.1506   -18460.796    21.110904    239.22656 
    4450    94.930531   -292.76346    72638.315   -17199.211    1285.8151   -18485.026    21.429611    241.79615 
    4500    95.381192   -167.10759    72624.455   -17226.908    1291.9193   -18518.827    21.517729    242.94402 
    4550    92.234099   -620.91587    72571.833   -17195.784    1249.2925   -18445.077    21.746351    234.92811 
    4600     96.00213    -536.4785    72538.109   -17149.761    1300.3297    -18450.09    21.779239     244.5256 
    4650    96.168941   -369.96957    72521.899   -17162.592    1302.5892   -18465.181    21.842516    244.95049 
    4700    94.309143   -114.04798    72520.736   -17170.398    1277.3986   -18447.797    22.040641    240.21342 
    4750    95.792382   -375.11582    72555.002   -17164.414    1297.4887   -18461.903    22.005062    243.99136 
    4800    94.880807   -540.75861    72572.221   -17196.234    1285.1416   -18481.376    22.315195     241.6695 
    4850    94.464456   -369.06357     72539.85   -17193.682    1279.5022   -18473.184    22.590846    240.60902 
    4900    91.816071   -807.02664    72497.665   -17236.283    1243.6304   -18479.913    22.770049    233.86335 
    4950    92.651872   -630.82826    72468.237   -17221.128    1254.9512   -18476.079    22.888991    235.99221 
    5000    94.680453   -688.07256    72479.004   -17196.616    1282.4279   -18479.044    23.044816    241.15918 
    5050    94.393983   -330.30747    72505.395   -17201.865    1278.5477   -18480.413    23.165723    240.42952 
    5100    95.732173   -310.94756    72459.001   -17195.091    1296.6732   -18491.764    23.510018      243.838 
    5150    94.857478   -176.55031    72494.191   -17208.462    1284.8257   -18493.288    23.826521    241.61008 
    5200    95.220467   -402.01549    72517.579   -17198.957    1289.7423   -18488.699    23.957354    242.53464 
    5250    99.474216   -616.96602    72507.219   -17153.211    1347.3584    -18500.57    24.395746     253.3693 
    5300    99.031292   -521.13591    72492.507   -17170.457    1341.3591   -18511.816    24.854268    252.24114 
    5350    94.671317   -466.09516    72432.833   -17173.309    1282.3041   -18455.613    25.192269    241.13591 
    5400    99.886177   -703.62091    72404.953   -17167.627    1352.9384   -18520.565     25.36819     254.4186 
    5450     94.02723   -379.20073     72417.93   -17206.624    1273.5801   -18480.204    25.571807    239.49537 
    5500    94.896337   -352.43601    72425.962   -17208.357     1285.352   -18493.709    25.841921    241.70905 
    5550    97.378177   -439.97933    72425.486    -17202.57     1318.968   -18521.538    26.141829    248.03051 
    5600    93.205663    -285.9104    72441.738   -17273.721    1262.4522   -18536.173    26.447864    237.40277 
    5650    95.980854   -225.66285    72516.914   -17258.901    1300.0416   -18558.942    26.733152    244.47141 
    5700    96.468227   -321.82472    72544.327   -17212.213    1306.6429   -18518.856    26.809006    245.71279 
    5750    93.737811   -436.31787    72634.943   -17202.368      1269.66   -18472.028    27.164268    238.75819 
    5800    99.174356   -554.46349    72640.465   -17183.302    1343.2969   -18526.599    27.382218    252.60553 
    5850    92.898431    -552.6214     72604.67   -17225.509    1258.2908     -18483.8    27.663936    236.62022 
    5900    96.769079   -523.19091    72568.241   -17221.452    1310.7179    -18532.17    28.054434    246.47909 
    5950    94.738902   -6.7856789    72622.914   -17268.813    1283.2196   -18552.032     28.19271    241.30806 
    6000    93.097532   -277.82125    72672.822   -17281.564    1260.9875   -18542.551    28.256203    237.12735 
    6050    92.147569   -368.54529    72658.213   -17313.913    1248.1205   -18562.033    28.699764    234.70771 
    6100    94.556928   -666.43921    72715.666    -17299.83    1280.7548   -18580.585    28.955228    240.84455 
    6150    92.936816   -763.70292    72715.427   -17317.782    1258.8107   -18576.593    29.168587    236.71799 
    6200    93.609976   -659.36986    72664.196   -17309.747    1267.9285   -18577.676    29.376536    238.43259 
    6250    90.252768   -740.01928    72673.526   -17296.371    1222.4558   -18518.826    29.533105    229.88149 
    6300    93.203397   -1047.5648    72675.844   -17287.393    1262.4214   -18549.815    29.459225    237.39699 
    6350    93.822857   -187.65473    72676.081   -17267.288    1270.8119     -18538.1    29.740686    238.97481 
    6400    92.543361   -642.89856    72656.669   -17262.012    1253.4814   -18515.493    30.027891    235.71583 
    6450    97.944613   -53.779644    72654.928   -17254.376    1326.6403   -18581.016    30.143235    249.47327 
    6500     93.50333   -292.23055    72745.281   -17271.616     1266.484     -18538.1    30.281818    238.16095 
    6550    95.560185   -259.29065    72783.994   -17253.113    1294.3437   -18547.457    30.717564    243.39993 
    6600    96.870704   -892.96982    72844.349   -17217.089    1312.0944   -18529.183    31.054538    246.73794 
    6650    94.772718   -548.99843    72863.108   -17236.677    1283.6776   -18520.355    31.296121    241.39419 
    6700    95.264302   -582.82296    72802.507   -17217.413     1290.336   -18507.749    31.515183    242.64629 
    6750    95.214179   -302.54101    72829.856   -17241.962    1289.6571   -18531.619    31.903791    242.51863 
    6800    96.682489   -259.27477    72843.851   -17232.665    1309.5451    -18542.21    32.213973    246.25854 
    6850    95.917654     -340.562     72865.73   -17232.456    1299.1855   -18531.642    32.373203    244.31044 
    6900    95.804447   -269.84571    72918.596   -17206.698    1297.6522    -18504.35    32.375602    244.02209 
    6950    94.420256   -193.08122    72976.823   -17236.304    1278.9036   -18515.208    32.367162    240.49644 
    7000    97.195617   -420.44475    73020.817   -17248.001    1316.4953   -18564.496    32.523594    247.56552 
    7050    94.813748   -272.75337    73031.854   -17256.642    1284.2333   -18540.875    32.784831     241.4987 
    7100    96.398482   -290.98563    73058.005   -17237.392    1305.6982    -18543.09     33.20224    245.53515 
    7150    95.760259   -375.35688     73051.81   -17229.116    1297.0536    -18526.17    33.423108    243.90954 
    7200    97.826843   -373.02363    73062.255    -17219.15    1325.0451   -18544.195    33.619167     249.1733 
    7250     94.51972   -521.09047     73062.64   -17280.167    1280.2508   -18560.418    33.878946    240.74978 
    7300    93.564339   -606.93273    73106.691   -17288.963    1267.3103   -18556.273    33.830745    238.31634 
    7350    93.172936   -461.53755     73088.77   -17298.844    1262.0089   -18560.853    34.072098    237.31941 
    7400    94.508606   -478.11462    73072.043   -17255.774    1280.1003   -18535.874    34.095566    240.72147 
    7450     94.43641   -381.43967    73001.136   -17292.778    1279.1224     -18571.9    34.157273    240.53758 
    7500    92.695068   -264.25274    73015.131   -17289.667    1255.5362   -18545.203     34.28021    236.10224 
    7550     92.09103    -811.5409    73059.841   -17304.756    1247.3547   -18552.111    34.429062     234.5637 
    7600    95.388314   -645.54636    73070.135   -17299.412    1292.0157   -18591.428    34.830793    242.96216 
    7650    92.938655   -542.85641    73044.024   -17315.599    1258.8356   -18574.434    35.103035    236.72267 
    7700    91.944045   -686.91288    73074.721   -17333.819    1245.3638   -18579.182    35.230053    234.18932 
    7750    93.841878   -608.98793    73079.623   -17328.298    1271.0695   -18599.367    35.469616    239.02326 
    7800    93.972703   -281.43493    73129.444   -17299.265    1272.8415   -18572.107    35.667865    239.35648 
    7850    92.594418   -433.10636    73177.709   -17320.723     1254.173   -18574.896    35.672346    235.84587 
    7900    92.343126   -357.84127    73200.104   -17304.428    1250.7693   -18555.197    35.744565    235.20581 
    7950    92.688288   -527.28261    73144.621   -17306.615    1255.4444   -18562.059    35.729731    236.08497 
    8000    93.797592   -586.62401    73130.106   -17315.549    1270.4697   -18586.018    36.115146    238.91046 
    8050    93.612889    -909.8378    73084.791   -17294.104    1267.9679   -18562.072    36.394951       238.44 
    8100    94.030739   -439.02095    73033.664   -17318.353    1273.6276   -18591.981     36.75455     239.5043 
    8150    92.200468   -339.79309    73042.299   -17350.551     1248.837   -18599.388    37.007749    234.84245 
    8200     95.07572    -418.1038    73111.923   -17312.138    1287.7817    -18599.92    37.358817    242.16596 
    8250    94.712803   -392.78197    73092.073   -17320.398    1282.8661   -18603.264    37.846941    241.24158 
    8300    92.725806    10.834697    73151.505   -17299.953    1255.9526   -18555.906    37.699978    236.18053 
    8350    98.024679   -593.97523    73227.667   -17292.199    1327.7248   -18619.924    37.772115    249.67721 
    8400    92.430514   -223.99319    73230.568   -17281.142    1251.9529   -18533.095    37.833684    235.42839 
    8450    95.561532    -548.2736    73192.693   -17306.984    1294.3619   -18601.346    38.164124    243.40336 
    8500     92.83531   -491.49308    73202.084   -17326.057    1257.4358   -18583.493    38.302049    236.45945 
    8550    94.948553   -692.34354    73178.231   -17323.504    1286.0592   -18609.564    38.360866    241.84205 
    8600    91.602541    -480.0305    73184.736   -17325.546    1240.7382   -18566.284     38.53049    233.31948 
    8650    92.436854    -162.6704    73236.231   -17323.453    1252.0388   -18575.491    38.678335    235.44454 
    8700      93.8269   -241.49739    73290.454   -17312.669    1270.8667   -18583.536     38.96991    238.98511 
    8750    94.222061   -699.17106    73353.098   -17287.735    1276.2191   -18563.954    38.923039    239.99162 
    8800    91.906689   -579.62189    73441.879   -17327.943    1244.8578   -18572.801    39.059252    234.09417 
    8850    91.038942    -474.7402      73515.9   -17307.786    1233.1043    -18540.89    39.149383    231.88394 
    8900    91.699376   -837.36762    73506.653   -17309.599    1242.0498   -18551.649    39.439955    233.56612 
    8950    92.759439   -600.05874    73432.682   -17288.144    1256.4081   -18544.552    39.530986     236.2662 
    9000    93.267441   -542.45724    73405.344   -17279.778    1263.2889   -18543.067    39.867235    237.56012 
    9050    93.848267   -702.67495    73406.849   -17302.288    1271.1561   -18573.444    40.096553    239.03953 
    9100    96.532162   -483.88529    73386.004    -17246.72    1307.5089   -18554.229    40.397323    245.87564 
    9150    94.872124   -765.35127    73385.784   -17242.232     1285.024   -18527.256    40.590159    241.64738 
    9200    94.408357   -1000.9898    73377.441   -17232.135    1278.7424   -18510.877    40.724844    240.46613 
    9250    96.639189   -594.20701    73422.272   -17197.419    1308.9586   -18506.378    40.947773    246.14825 
    9300    96.923969   -759.97952     73466.02   -17210.929    1312.8159   -18523.745    41.488675    246.87361 
    9350    97.707157   -592.53139    73431.369   -17193.214     1323.424   -18516.638    41.790019    248.86845 
    9400    96.743332   -683.20127    73447.348   -17211.304    1310.3692   -18521.673    41.856282    246.41351 
    9450    94.521476   -424.24941      73460.1   -17247.841    1280.2746   -18528.115     42.05061    240.75425 
    9500    93.714567   -324.50094    73492.923   -17273.259    1269.3452   -18542.604    42.134754    238.69899 
    9550    94.038494   -195.53586    73507.639   -17268.789    1273.7327   -18542.522    42.249298    239.52406 
    9600     94.59215   -614.06398     73519.28   -17270.701    1281.2318   -18551.933    42.485269    240.93427 
    9650    92.483245   -464.73819    73479.229   -17284.862    1252.6671   -18537.529     42.84113     235.5627 
    9700    94.887363   -374.21898    73431.711   -17259.356    1285.2304   -18544.586    43.328104     241.6862 
    9750    95.460975   -351.01872    73448.377    -17247.39    1292.9999    -18540.39    43.645364    243.14724 
    9800    93.818184   -385.32418    73435.827   -17259.973    1270.7486   -18530.722    43.826149    238.96291 
    9850       94.977   -508.25782    73459.293   -17256.911    1286.4445   -18543.356    44.131816    241.91451 
    9900    94.299303   -563.58928    73395.923   -17279.211    1277.2653   -18556.476    44.418819    240.18836 
    9950     96.25891   -522.99007    73305.589   -17255.914    1303.8078   -18559.721    44.494489    245.17964 
   10000    93.721693   -398.13096    73261.954   -17279.878    1269.4417   -18549.319    44.812271    238.71714 
   10050    94.591382   -559.73963    73305.284    -17279.97    1281.2214   -18561.191      45.0002    240.93231 
   10100    94.384411   -351.82962    73342.912   -17293.493    1278.4181   -18571.911    45.155778    240.40514 
   10150    92.212576   -703.64644    73335.145   -17295.392     1249.001   -18544.393    45.423314    234.87329 
   10200     93.65565   -265.13744    73375.227    -17311.27    1268.5471   -18579.817    45.899237    238.54892 
   10250    93.633287   -569.55007    73275.188   -17323.574    1268.2442   -18591.818    46.187298    238.49196 
   10300    94.210516   -526.53959    73247.056   -17325.798    1276.0627   -18601.861    45.998857    239.96221 
   10350     92.75988   -850.07318    73211.636   -17308.555    1256.4141   -18564.969    46.137122    236.26732 
   10400    91.723498   -804.95918     73203.93   -17292.972    1242.3765   -18535.349    46.218192    233.62756 
   10450    94.336468   -401.95769     73244.45   -17300.566    1277.7687   -18578.334    46.377238    240.28302 
   10500    94.276866   -550.23235    73195.694   -17297.853    1276.9614   -18574.815     46.37928    240.13121 
   10550    95.319875   -526.89711    73150.477   -17306.766    1291.0887   -18597.854    46.428261    242.78784 
   10600    96.028316   -489.44152    73108.731   -17270.929    1300.6844   -18571.613    46.390257     244.5923 
   10650    93.854737     -587.271    73121.336   -17304.758    1271.2437   -18576.001    46.920338    239.05601 
   10700    93.219172   -735.59875    73071.337   -17292.102    1262.6351   -18554.737    47.299803    237.43717 
   10750    96.525231   -465.85392    73077.639   -17279.438     1307.415   -18586.853    47.489381    245.85799 
   10800    96.771371   -270.97121    73077.777   -17253.785    1310.7489   -18564.534    47.852886    246.48493 
   10850    95.661355   -154.29324     73114.47    -17273.73     1295.714   -18569.444    47.849912    243.65762 
   10900    95.392349   -378.40839    73134.373   -17292.995    1292.0704   -18585.065    47.900314    242.97244 
   10950    93.827125   -479.45516    73134.378   -17320.764    1270.8697   -18591.634    47.983009    238.98568 
   11000    94.592066   -488.83031    73047.091   -17333.247    1281.2307   -18614.477    47.919297    240.93405 
   11050    92.855354   -602.85333    72988.304   -17340.009    1257.7073   -18597.716    48.170641     236.5105 
   11100    92.094129   -270.36861    73005.376   -17338.848    1247.3966   -18586.245    48.636845    234.57159 
   11150    93.748113   -403.94224    73061.964   -17328.665    1269.7995   -18598.465    49.058891    238.78443 
   11200    90.709674    55.914706    73114.839   -17310.837    1228.6445   -18539.482    49.230225    231.04527 
   11250     94.35444   -311.01244    73113.644   -17292.108    1278.0121    -18570.12    49.739812     240.3288 
   11300    90.436729   -385.18387    73103.731    -17286.35    1224.9475   -18511.298    49.947153    230.35005 
   11350    93.433908    -61.53142    73110.968   -17285.157    1265.5437     -18550.7    50.230747    237.98412 
   11400    96.092363   -632.65504    73123.115   -17290.657    1301.5519   -18592.209    50.534422    244.75544 
   11450    93.524796   -334.09078    73091.628   -17306.401    1266.7747   -18573.175      50.8054    238.21562 
   11500    93.679967   -293.94791    73064.015   -17268.538    1268.8765   -18537.415    50.941664    238.61086 
   11550     91.22417   -590.02784    73033.874   -17293.748    1235.6132   -18529.362    51.194893    232.35573 
   11600    92.936332   -623.91639    73004.852   -17298.968    1258.8041   -18557.772    51.362514    236.71676 
   11650    94.325739   -441.84592    72955.761   -17289.026    1277.6234   -18566.649    51.299971    240.25569 
   11700    93.491554   -735.02359    72879.012   -17300.215    1266.3245    -18566.54    51.487458    238.13095 
   11750    91.262906   -674.41092    72824.298   -17301.033    1236.1379   -18537.171    51.746633     232.4544 
   11800    92.007508   -448.46163     72734.97   -17283.369    1246.2234   -18529.592    51.762337    234.35096 
   11850    94.904901   -488.56284    72722.517   -17302.714     1285.468   -18588.182    51.793652    241.73087 
   11900    93.168747   -496.67134    72691.016   -17286.788    1261.9521    -18548.74    52.122581    237.30874 
   11950    91.953834   -647.38516    72692.831   -17267.625    1245.4964   -18513.122     52.35841    234.21425 
   12000    95.579769   -550.79364     72722.34   -17258.122    1294.6089   -18552.731     52.75195    243.44982 
   12050    92.927408   -187.75232    72708.666   -17253.395    1258.6832   -18512.079    52.926124    236.69403 
   12100    96.762755   -91.735261     72729.36   -17264.826    1310.6322   -18575.458    53.254925    246.46298 
   12150     92.38468    -499.8503    72687.631   -17280.284    1251.3321   -18531.616    53.679527    235.31165 
   12200    90.357839    -141.3487    72729.396   -17289.953    1223.8789   -18513.832    53.805032    230.14912 
   12250    93.471388   -264.89309    72765.926   -17257.471    1266.0513   -18523.522    54.002606    238.07959 
   12300    93.850195   -127.39513    72861.676   -17273.225    1271.1822   -18544.407    53.989474    239.04444 
   12350    90.347746   -554.78389    72900.484   -17306.481    1223.7422   -18530.223    54.374568    230.12341 
   12400    92.257602   -464.96361    72908.604   -17314.896    1249.6109   -18564.507    54.438503    234.98797 
   12450    93.995016   -185.37233    72955.223   -17273.483    1273.1438   -18546.627    54.375981    239.41331 
   12500    94.539238   -331.72554    72925.077   -17261.649    1280.5152   -18542.164    54.505878    240.79949 
   12550    90.868601   -360.83988     72947.57   -17289.315    1230.7971   -18520.112    54.602403    231.45007 
   12600    93.384973    23.099318    73004.491   -17280.663    1264.8809   -18545.544    54.758383    237.85948 
   12650    94.553095   -471.61291    73045.537   -17280.078    1280.7028   -18560.781     54.90605    240.83479 
   12700    95.466172   -523.97931     73012.85    -17277.54    1293.0703    -18570.61    55.046369    243.16047 
   12750    92.162959   -491.67509    72924.472   -17308.862    1248.3289   -18557.191    55.226759    234.74691 
   12800    91.824611   -440.06023    72869.761   -17294.312    1243.7461   -18538.058    55.597733    233.88511 
   12850    92.401289   -409.95509    72843.443   -17293.697    1251.5571   -18545.254    55.977049    235.35396 
   12900    94.604697   -96.829741    72846.031   -17299.292    1281.4018   -18580.694    56.377631    240.96622 
   12950    89.155696    -306.6636    72861.067   -17326.114    1207.5962    -18533.71    56.713034    227.08715 
   13000    90.204126   -755.28585     72866.91   -17307.861    1221.7969   -18529.658    57.258812     229.7576 
   13050    92.265894   -333.62428     72811.97   -17289.087    1249.7232    -18538.81    57.334314    235.00909 
   13100    91.374581   -185.56661    72791.132   -17327.945    1237.6505   -18565.595    57.533244    232.73884 
   13150    91.292502   -717.87241    72789.578   -17303.331    1236.5388   -18539.869    57.430127    232.52978 
   13200    94.249982   -510.56802    72718.436   -17296.943    1276.5972    -18573.54    57.541785    240.06273 
   13250    93.672419   -607.68443    72736.662   -17269.787    1268.7743   -18538.561    57.739854    238.59163 
   13300    93.873643   -495.09824    72711.637   -17264.136    1271.4998   -18535.635    57.924502    239.10417 
   13350    93.699139   -594.30702    72710.394   -17273.014    1269.1362    -18542.15    58.177004    238.65969 
   13400    97.684551   -326.94709    72711.283   -17242.285    1323.1178   -18565.403    58.273472    248.81087 
   13450    100.17102   -270.84805    72712.539   -17192.763    1356.7965    -18549.56    58.274809    255.14411 
   13500    94.658766   -354.58247    72724.898    -17167.26    1282.1341   -18449.394    58.224432    241.10394 
   13550    95.167257   -660.54387     72707.71   -17195.507    1289.0215   -18484.529    58.601164    242.39911 
   13600    97.457188    -765.1956    72688.782   -17210.151    1320.0382   -18530.189    59.055863    248.23176 
   13650    96.384284   -647.94891    72664.353   -17191.668    1305.5059   -18497.174    59.249648    245.49898 
   13700    98.302623   -274.67934     72723.92   -17182.346    1331.4895   -18513.836    59.720403    250.38516 
   13750     95.67969   -588.80542    72730.999   -17178.558    1295.9624    -18474.52    59.623195    243.70432 
   13800    96.168091   -349.09819    72693.425    -17186.09    1302.5776   -18488.668     59.91085    244.94832 
   13850    95.649631   -609.12308    72705.865   -17190.694    1295.5552   -18486.249    60.282897    243.62776 
   13900    93.904321   -289.98896    72663.305    -17174.03    1271.9153   -18445.946    60.705203    239.18231 
   13950    93.216951   -518.38852    72693.818   -17215.477     1262.605   -18478.082    60.942876    237.43152 
   14000    97.338171   -719.15059    72687.127   -17201.828    1318.4261   -18520.254    60.954402    247.92862 
   14050    95.269553   -350.61573    72664.419   -17247.002    1290.4071    -18537.41    61.349957    242.65967 
   14100    96.056333   -331.08104    72660.652   -17219.305    1301.0639   -18520.369    61.543722    244.66367 
   14150     98.03688   -233.72095    72650.057   -17185.177      1327.89   -18513.067     61.75906    249.70829 
   14200    96.214181   -570.13102    72611.137   -17209.235    1303.2019   -18512.436    62.125591    245.06572 
   14250    95.865764   -452.26423    72601.414   -17252.484    1298.4827   -18550.967    62.239487    244.17827 
   14300    96.381815   -389.98928    72667.729   -17249.772    1305.4725   -18555.245    62.407622     245.4927 
   14350    96.420353   -281.04893    72715.656   -17260.892    1305.9945   -18566.886    62.903523    245.59086 
   14400    94.496944   -511.11441    72745.683   -17259.409    1279.9423   -18539.351    63.294137    240.69177 
   14450    94.131537   -443.62595    72733.333   -17286.822    1274.9929   -18561.815    63.652055    239.76105 
   14500    94.077099   -840.39715    72694.757   -17289.232    1274.2556   -18563.488    63.767595    239.62239 
   14550    90.107815   -555.19939    72645.469   -17311.189    1220.4924   -18531.681    63.868347    229.51228 
   14600    93.020808   -435.75971    72592.552   -17291.655    1259.9483   -18551.604    64.561885    236.93192 
   14650    92.516471   -315.46147    72540.819   -17276.983    1253.1172   -18530.101     64.60213    235.64733 
   14700    92.319613    -550.9737    72538.824   -17302.307    1250.4508   -18552.758     64.90821    235.14592 
   14750    93.251239   -394.20628    72549.612   -17266.827    1263.0695   -18529.897    65.136353    237.51885 
   14800    94.155936   -508.10824    72547.429    -17271.83    1275.3234   -18547.153    65.340398    239.82319 
   14850    93.666209   -350.62281    72601.807   -17299.199    1268.6901   -18567.889    65.588703    238.57581 
   14900    93.490745   -280.43599    72698.156   -17300.628    1266.3135   -18566.941    65.802766    238.12889 
   14950    93.825688   -481.21485    72708.672   -17291.933    1270.8503   -18562.783    66.124244    238.98202 
   15000    92.939022   -155.33259    72743.328   -17271.558    1258.8405   -18530.398    66.224698    236.72361 
   15050    95.951794   -362.70406    72747.917   -17258.908    1299.6479   -18558.556     66.20204    244.39739 
   15100    93.851029   -377.14503    72796.908   -17266.336    1271.1935   -18537.529    66.511186    239.04657 
   15150    92.908492   -635.20913    72740.203   -17265.313     1258.427    -18523.74    66.831067    236.64585 
   15200     95.53293   -389.47068    72767.708   -17223.308    1293.9745   -18517.283    66.890891    243.33051 
   15250    91.623373   -466.35028    72743.534   -17243.339    1241.0203    -18484.36    66.681749    233.37254 
   15300    93.657832   -270.47652    72776.537   -17244.926    1268.5767   -18513.502    66.803463    238.55448 
   15350    91.718498   -151.15426    72879.782   -17254.791    1242.3088     -18497.1    67.069007    233.61483 
   15400    91.848413    -217.1929    72962.725   -17268.662    1244.0685   -18512.731    67.267737    233.94573 
   15450    94.946721   -454.06646    73009.126   -17277.445    1286.0344   -18563.479    67.130342    241.83739 
   15500    95.045247   -823.73156    73085.408   -17275.222    1287.3689   -18562.591    67.535629    242.08834 
   15550    93.890364   -459.09468    73049.019   -17293.328    1271.7263   -18565.054    67.857661    239.14676 
   15600    94.992489   -469.41097    73075.916   -17266.441    1286.6543   -18553.095    68.164103    241.95396 
   15650    91.741268   -571.25272    73058.827   -17277.959    1242.6172   -18520.577    68.428881    233.67283 
   15700    94.839539   -138.17969    73129.729   -17292.269    1284.5827   -18576.851    68.464372    241.56439 
   15750    94.449061    -393.7451    73171.222   -17329.611    1279.2937   -18608.905    68.607727    240.56981 
   15800    92.319436    -582.9804    73206.567   -17312.591    1250.4484   -18563.039     68.83455    235.14547 
   15850    90.619252   -679.01001    73172.883   -17329.593    1227.4197   -18557.013    69.162473    230.81495 
   15900    91.757515   -122.98803    73194.169   -17321.674    1242.8373   -18564.511    69.530776    233.71421 
   15950    95.565771   -326.12076    73261.381   -17291.125    1294.4193   -18585.544    69.223524    243.41416 
   16000    96.662877    20.651187    73312.204   -17249.828    1309.2794   -18559.107    69.358047    246.20858 
   16050    95.822162   -275.14579    73326.967   -17228.634    1297.8921   -18526.526    69.762796    244.06721 
   16100    96.866291   -297.95019     73347.01   -17212.692    1312.0346   -18524.726    70.019811     246.7267 
   16150    93.043709   -223.43015    73384.129   -17222.934    1260.2585   -18483.192    70.251657    236.99025 
   16200    94.798918   -563.28733    73462.163   -17226.524    1284.0325   -18510.556     70.62329    241.46092 
   16250    97.551482   -405.03392    73392.825   -17222.313    1321.3154   -18543.629    70.853226    248.47194 
   16300    95.268225   -367.07298    73348.349    -17276.58    1290.3891   -18566.969    71.281866    242.65629 
   16350    93.723997   -397.76022    73305.559   -17312.502    1269.4729   -18581.975      71.3568    238.72301 
   16400    94.352274   -418.68796    73294.778   -17308.805    1277.9828   -18586.787    71.367177    240.32328 
   16450    92.443037   -758.40635    73316.078   -17334.529    1252.1225   -18586.652    71.391675    235.46029 
   16500    88.693524   -567.98991    73330.747   -17318.183    1201.3361   -18519.519    71.564915    225.90996 
   16550      92.4822   -697.60045    73284.308   -17323.774     1252.653   -18576.427    71.619714    235.56004 
   16600     91.44089   -391.86802    73239.744   -17359.885    1238.5486   -18598.433    71.495621    232.90774 
   16650    91.218042   -550.03732    73275.501   -17361.495    1235.5302   -18597.026    71.701603    232.34012 
   16700    88.427191   -882.79835     73261.53    -17371.06    1197.7287   -18568.788    71.859394    225.23159 
   16750    91.265444   -587.96863    73191.539   -17344.942    1236.1723   -18581.114    71.829534    232.46086 
   16800    93.349211   -615.24456    73151.564    -17320.47    1264.3965   -18584.866    72.041098    237.76839 
   16850    94.133585    -352.8298    73153.948    -17331.62    1275.0207   -18606.641    72.128425    239.76626 
   16900    92.726283   -491.11597    73199.956   -17319.822     1255.959   -18575.781    72.804421    236.18174 
   16950     94.75358    -619.4506    73189.427   -17308.867    1283.4184   -18592.285    73.149301    241.34544 
   17000    94.796798   -432.98104    73189.575   -17281.867    1284.0038    -18565.87     73.49013    241.45552 
   17050    93.456534   -273.00973    73165.342   -17283.519    1265.8501   -18549.369    73.811306    238.04176 
   17100    94.155576   -718.91195     73120.07   -17286.669    1275.3185   -18561.987    74.101865    239.82227 
   17150    95.420058    -647.6316    73092.598    -17290.51    1292.4457   -18582.956    74.228454    243.04302 
   17200    92.583468   -589.96759     73005.08   -17300.956    1254.0246    -18554.98    74.274787    235.81798 
   17250    94.716867   -572.69417    72997.828   -17273.658    1282.9211   -18556.579    74.262953    241.25193 
   17300    92.976716   -654.96621    72968.049   -17276.364    1259.3511   -18535.716    74.522016    236.81962 
   17350    98.382536    -313.4162    72972.239   -17250.304    1332.5719   -18582.876     74.36757     250.5887 
   17400    96.816553   -434.52564    73026.071   -17255.698    1311.3609   -18567.059     74.59571    246.60001 
   17450    93.813339   -415.04875    73034.291   -17259.275     1270.683   -18529.958    74.704026    238.95057 
   17500    92.903201   -479.97885     72968.64   -17271.775    1258.3554    -18530.13    74.880362    236.63237 
   17550    97.124482   -786.17992     72896.41    -17224.91    1315.5318   -18540.441     74.91909    247.38433 
   17600    92.469236   -205.29727     72892.11   -17209.773    1252.4774   -18462.251    75.025366    235.52702 
   17650    93.982261   -396.70818    72833.548   -17243.814     1272.971   -18516.785    74.857088    239.38082 
   17700     90.92285   -561.13042    72770.648   -17254.583    1231.5319   -18486.115    74.981554    231.58825 
   17750    93.983489   -746.36989    72738.359   -17236.381    1272.9876   -18509.369    75.176327    239.38395 
   17800    95.865736   -571.94788    72634.943   -17262.792    1298.4823   -18561.275    75.401045     244.1782 
   17850    93.551262   -321.21722     72578.42   -17239.947    1267.1332    -18507.08     75.54776    238.28303 
   17900     91.76232    -512.0611    72579.041    -17253.46    1242.9023   -18496.362    75.865872    233.72645 
   17950    92.725972   -214.89076    72619.119   -17228.308    1255.9548   -18484.263    76.194268    236.18095 
   18000    94.022059   -758.51114      72587.3    -17249.37    1273.5101    -18522.88    76.646213    239.48219 
   18050    93.053439   -348.73014    72600.298   -17230.146    1260.3903   -18490.536     76.88144    237.01504 
   18100     93.57131   -583.15516    72614.457   -17239.347    1267.4048   -18506.752    77.048607     238.3341 
   18150    93.585735   -238.92585     72603.45   -17244.473    1267.6001   -18512.073    77.310685    238.37084 
   18200    91.643591   -521.96777    72659.999    -17230.99    1241.2942   -18472.284    77.659948    233.42404 
   18250    92.180975   -475.58668    72663.314   -17258.926     1248.573   -18507.499    77.871405     234.7928 
   18300    95.265777   -220.01447    72702.676   -17273.146     1290.356   -18563.502    78.115932    242.65005 
   18350    91.843689   -510.87484    72734.345   -17257.059    1244.0045   -18501.063     78.10698     233.9337 
   18400    93.735258    -601.8072    72698.682   -17256.827    1269.6254   -18526.452    78.329662    238.75169 
   18450    97.052783   -343.02637    72708.506   -17232.033    1314.5606   -18546.593    78.814381    247.20171 
   18500    94.930091   -572.61865    72715.947   -17199.675    1285.8092   -18485.484    79.247356    241.79503 
   18550    95.220165   -602.68318     72765.99   -17200.526    1289.7382   -18490.264    79.447157    242.53387 
   18600    98.660935    -378.3807    72816.729   -17205.011    1336.3427   -18541.354    79.685305    251.29781 
   18650    96.736078   -421.66481    72913.699   -17180.184    1310.2709   -18490.454    80.031006    246.39503 
   18700    94.511953   -204.25544    72979.012   -17194.156    1280.1456   -18474.302    80.251573       240.73 
   18750    96.798119   -705.19682    72906.044   -17163.752    1311.1112   -18474.863    80.821008    246.55306 
   18800     93.56994   -897.04682    72824.272   -17165.375    1267.3862   -18432.761      81.3267    238.33061 
   18850    94.654114   -356.50845     72804.31   -17166.811    1282.0711   -18448.882    81.541342    241.09209 
   18900    95.186818   -687.19701    72838.073    -17181.15    1289.2865   -18470.437    81.755738    242.44894 
   18950    96.784448   -858.89946    72782.882   -17228.433    1310.9261    -18539.36    81.922488    246.51824 
   19000    93.329422   -770.25041    72722.991   -17214.167    1264.1284   -18478.296    81.761861    237.71799 
   19050    98.001327   -588.32472     72653.85   -17158.134    1327.4085   -18485.543    81.655193    249.61773 
   19100    96.072309   -525.11581      72736.8   -17190.656    1301.2803   -18491.936    81.825479    244.70436 
   19150    92.948641   -529.36345    72663.499   -17208.965    1258.9708   -18467.936    82.270317    236.74811 
   19200    92.998279     -430.907    72683.495   -17193.923    1259.6432   -18453.566    82.441902    236.87454 
   19250    94.310658   -472.81135    72644.898    -17201.33    1277.4191   -18478.749    82.694627    240.21728 
   19300    92.830777   -447.07822    72650.632   -17253.371    1257.3744   -18510.746    82.994114     236.4479 
   19350    93.702101    -315.8098    72671.037   -17286.703    1269.1763   -18555.879    83.345957    238.66723 
   19400     92.50692   -203.99505    72715.922   -17284.887    1252.9878   -18537.875    83.704417    235.62301 
   19450    91.899865   -293.85519    72701.412   -17286.631    1244.7654   -18531.397    84.213022    234.07679 
   19500    94.435822   -444.90383    72694.885   -17307.695    1279.1144   -18586.809    84.517215    240.53608 
   19550      92.4729   -9.6795632    72693.822   -17291.569     1252.527   -18544.096    84.555537    235.53635 
   19600    91.691401   -113.62848    72708.692   -17299.422    1241.9418   -18541.364    84.726862    233.54581 
   19650    93.578377   -462.57476    72686.525   -17305.967    1267.5005   -18573.468    85.117282     238.3521 
   19700    92.880776   -504.97345    72717.663   -17340.707    1258.0516   -18598.759    85.330554    236.57525 
   19750    92.031619   -716.03498     72617.39   -17326.992      1246.55   -18573.542    85.610784    234.41238 
   19800    94.987967    -616.3018    72579.952   -17319.911    1286.5931   -18606.504    85.344617    241.94245 
   19850     91.78702   -800.71056    72498.583   -17309.051    1243.2369   -18552.288    85.699294    233.78936 
   19900    94.247695    -390.0546    72453.071   -17337.043    1276.5663    -18613.61    85.795705    240.05691 
   19950    92.458977   -379.58095    72450.166   -17317.639    1252.3384   -18569.978    85.942355    235.50089 
   20000    92.295506   -319.53623    72471.927   -17327.032    1250.1243   -18577.156    86.056518    235.08452 
   20050    92.290296   -553.91292    72544.219   -17335.119    1250.0537   -18585.172    85.868005    235.07125 
   20100    90.659507   -557.92104     72560.17   -17313.745     1227.965    -18541.71    86.168974    230.91749 
   20150    90.429269   -606.98212    72651.903   -17326.331    1224.8464   -18551.177    86.487501    230.33105 
   20200    93.910421   -548.63259    72686.295   -17327.281    1271.9979   -18599.279    86.587731    239.19784 
   20250    96.283484   -647.13734    72713.048   -17296.864    1304.1406   -18601.004     86.85535    245.24224 
   20300    94.369694   -167.33915    72719.907   -17284.801    1278.2187    -18563.02    87.287402    240.36765 
   20350    94.277733   -494.57635    72685.551   -17254.531    1276.9731   -18531.504    87.671276    240.13342 
   20400    94.251463   -66.345581    72738.415   -17258.325    1276.6173   -18534.942    88.211301    240.06651 
   20450     93.19052   -631.99025    72755.098   -17277.111     1262.247   -18539.358    88.590707    237.36419 
   20500    93.263782   -197.35301     72691.56   -17294.045    1263.2394   -18557.285    88.810023     237.5508 
   20550    93.234579    -217.8788    72689.398   -17287.767    1262.8438   -18550.611      89.2124    237.47642 
   20600    91.272247   -164.38617     72660.58   -17313.587    1236.2644   -18549.851    89.582384    232.47819 
   20650    95.547073   -594.44758    72665.506   -17262.337    1294.1661   -18556.503    89.811458    243.36653 
   20700    94.850939   -201.20052    72730.021   -17268.001    1284.7371   -18552.738    89.960403    241.59342 
   20750    95.865761   -462.58834     72750.04   -17241.144    1298.4826   -18539.627    90.039933    244.17826 
   20800    96.147609   -161.85688    72813.851   -17256.449    1302.3002   -18558.749    90.130892    244.89615 
   20850    93.137077    -508.2192    72831.515   -17276.177    1261.5232     -18537.7    90.688917    237.22807 
   20900    95.417038   -559.31502    72795.814    -17260.89    1292.4048   -18553.295    91.337792    243.03533 
   20950    94.895639   -526.76874    72773.054   -17276.039    1285.3425   -18561.382    91.548366    241.70728 
   21000    94.905681    -505.9192    72854.329   -17229.602    1285.4786   -18515.081    91.916332    241.73286 
   21050    98.098444   -314.97359    73000.757    -17228.14    1328.7239   -18556.864      92.0015     249.8651 
   21100    97.010028    -206.3944    73023.005   -17225.441    1313.9815   -18539.423    92.268717    247.09281 
   21150    95.104664   -501.37976    73053.679   -17219.417    1288.1737   -18507.591    92.957401    242.23968 
   21200    92.741167   -282.02462    73024.738   -17217.696    1256.1606   -18473.857    93.177291    236.21965 
   21250    95.597753   -732.11416    73027.808   -17196.609    1294.8525   -18491.462    93.228538    243.49562 
   21300    93.222644   -442.21467    72998.916   -17198.762    1262.6821   -18461.444    93.354934    237.44602 
   21350    97.860855   -806.58432    73026.438   -17208.004    1325.5058   -18533.509    93.403088    249.25994 
   21400    94.236248   -540.02661    73025.553   -17214.761    1276.4112   -18491.172    93.762334    240.02775 
   21450    94.295207   -374.83982    72954.126   -17216.805    1277.2098   -18494.015    93.702803    240.17793 
   21500    95.253747   -909.51943    72947.309   -17210.671     1290.193   -18500.864    93.826454    242.61941 
   21550    91.955297   -557.58512     72906.26   -17223.839    1245.5162   -18469.355    94.532785    234.21798 
   21600    93.094931   -696.32341    72860.773   -17196.352    1260.9523   -18457.304    94.573872    237.12072 
   21650    96.499691   -411.72002    72821.422    -17245.71    1307.0691   -18552.779    94.841797    245.79293 
   21700    94.216627   -351.07632    72828.444   -17246.767    1276.1455   -18522.913    95.523905    239.97778 
   21750     93.97743    -579.3935    72791.158   -17246.867    1272.9056   -18519.772    95.497519    239.36852 
   21800    95.293196   -901.96105    72751.251   -17244.846    1290.7274   -18535.574     95.48461    242.71989 
   21850    95.248085   -257.04543     72762.54   -17212.367    1290.1164   -18502.484    95.418831    242.60499 
   21900    91.820005   -697.36439    72762.023   -17240.983    1243.6837   -18484.667    95.372121    233.87338 
   21950    93.658332    -426.4327    72732.854   -17265.255    1268.5835   -18533.839    95.331765    238.55575 
   22000    93.317679   -660.49121    72640.755   -17239.972    1263.9694   -18503.942    95.474182    237.68808 
   22050    93.731287    -428.6922    72609.643   -17215.651    1269.5716   -18485.223    95.792284    238.74157 
   22100    94.858402   -416.26817    72625.796   -17196.041    1284.8382   -18480.879    96.059499    241.61243 
   22150    95.934592   -739.69109    72602.669   -17149.185    1299.4149     -18448.6    96.324592    244.35358 
   22200    96.110802   -175.93024    72614.282   -17137.747    1301.8017   -18439.548    96.557241     244.8024 
   22250    100.84222   -641.55126    72632.673   -17125.749    1365.8878   -18491.637    96.835109    256.85372 
   22300    95.444774   -393.05859    72655.511   -17168.555    1292.7805   -18461.336    97.071064    243.10597 
   22350    98.102318   -249.66931    72637.029   -17170.678    1328.7764   -18499.454    97.053253    249.87496 
   22400    94.552534    -466.3991    72655.874   -17211.531    1280.6953   -18492.226    96.734219    240.83336 
   22450    94.843119    -518.0895     72679.26   -17183.925    1284.6312   -18468.556    96.964392     241.5735 
   22500    95.458268   -393.37599    72657.063   -17220.209    1292.9632   -18513.173    97.188132    243.14034 
   22550    94.598336    -191.5786    72658.192    -17233.69    1281.3156   -18515.005    97.485732    240.95002 
   22600    94.656172   -308.60228     72648.27   -17233.703     1282.099   -18515.802    97.936956    241.09733 
   22650    96.155376    -793.6742    72637.956   -17244.177    1302.4054   -18546.582     98.28947    244.91593 
   22700    93.634454   -367.91763    72662.339   -17238.967      1268.26   -18507.227    98.614833    238.49493 
   22750    94.730892   -356.20027    72686.026   -17231.275    1283.1111   -18514.386    98.665979    241.28765 
   22800    92.880479   -559.48116    72681.876   -17268.469    1258.0476   -18526.517    99.443845    236.57449 
   22850    95.040216   -405.05968    72674.023   -17267.079    1287.3008    -18554.38    99.604858    242.07553 
   22900     91.65569   -556.55043    72646.208   -17332.594    1241.4581   -18574.052    100.16308    233.45485 
   22950     92.72046   -410.01636    72603.231   -17308.613    1255.8802   -18564.493    100.31338    236.16691 
   23000    92.594916   -349.32599    72611.235   -17313.854    1254.1797   -18568.034    100.65395    235.84714 
   23050    91.701146     -431.244     72606.28   -17324.825    1242.0738   -18566.898    100.99833    233.57063 
   23100    93.156375    18.420431    72673.445   -17280.571    1261.7845   -18542.356     100.7476    237.27722 
   23150    92.979893   -323.60345    72713.674    -17293.59    1259.3941   -18552.984    100.96528    236.82771 
   23200    91.312439   -268.83795    72787.146   -17331.664    1236.8088   -18568.473    101.03192    232.58056 
   23250    95.340197   -546.84811    72842.045   -17317.847     1291.364   -18609.211    101.18038     242.8396 
   23300    92.593626   -285.00544    72949.483   -17317.814    1254.1622   -18571.977     101.3898    235.84385 
   23350    96.145534   -378.29321    72970.868   -17291.225    1302.2721   -18593.497    101.37484    244.89087 
   23400    93.260496    39.051316    73061.137    -17284.22    1263.1949   -18547.415    101.76026    237.54243 
   23450    94.771687   -236.60898    73076.154   -17289.965    1283.6636   -18573.628    102.16608    241.39156 
   23500    94.656722   -387.52963    73058.611   -17305.152    1282.1065   -18587.258    102.03879    241.09874 
   23550    91.980171   -638.03496    73003.063   -17281.893    1245.8531   -18527.746    102.30938    234.28133 
   23600    94.448173   -384.36415    72907.499   -17278.226    1279.2817   -18557.508    102.36593    240.56754 
   23650    95.473168   -366.40691    72926.465   -17253.497    1293.1651   -18546.662    102.55376    243.17829 
   23700    92.950033   -321.81585     72898.35   -17245.401    1258.9897   -18504.391    102.84905    236.75165 
   23750    93.135822   -422.28433    72934.572    -17235.35    1261.5062   -18496.856    102.76556    237.22487 
   23800    94.151234   -650.86877    72951.814   -17220.739    1275.2597   -18495.998    103.09803    239.81121 
   23850    97.401365   -757.03426    72900.877   -17224.964    1319.2821   -18544.246    103.04505    248.08958 
   23900    92.697588   -746.68777    72839.313   -17237.751    1255.5704   -18493.321    102.90373    236.10865 
   23950    93.919178   -827.35107    72787.901   -17270.519    1272.1166   -18542.635     103.0017    239.22015 
   24000    94.267428   -503.67222    72750.111   -17275.603    1276.8335   -18552.437    103.10179    240.10717 
   24050    90.607241   -361.85941    72746.916   -17258.883     1227.257    -18486.14    103.28897    230.78436 
   24100    93.586489   -182.78732    72791.441   -17257.389    1267.6104       -18525     103.7929    238.37276 
   24150     94.16833   -313.51154    72828.733   -17231.364    1275.4913   -18506.856    104.43727    239.85476 
   24200    93.416334   -267.96465    72885.263   -17214.923    1265.3056   -18480.228    104.81837    237.93936 
   24250    96.707589   -234.77303    72988.154    -17225.06     1309.885   -18534.945    105.11693    246.32247 
   24300    96.153704   -393.44621    73114.853   -17165.934    1302.3828   -18468.317    105.46801    244.91168 
   24350    96.401581   -657.59479    73079.691   -17155.002    1305.7402   -18460.742    105.45015    245.54304 
   24400    94.435961   -826.26006    73009.677   -17162.953    1279.1163   -18442.069    105.42458    240.53644 
   24450    98.146901   -782.87083    72985.336   -17183.827    1329.3802   -18513.207    105.94851    249.98852 
   24500    95.700957   -479.69119    72987.468   -17207.919    1296.2504   -18504.169    105.99391    243.75849 
   24550     96.78832   -829.05543    73027.148   -17203.363    1310.9785   -18514.341    106.32737     246.5281 
   24600    96.142256   -517.41271    73005.963   -17236.945    1302.2277   -18539.173     106.3944    244.88252 
   24650    95.224604   -575.58311    73026.354    -17228.31    1289.7983   -18518.108    106.62571    242.54518 
   24700    96.185744   -416.37937    72982.325   -17218.622    1302.8167   -18521.438    106.86588    244.99329 
   24750    94.386991     -500.795    72992.191   -17219.192     1278.453   -18497.645    107.27584    240.41171 
   24800    93.636763    -539.7601    72961.496   -17226.789    1268.2913    -18495.08    107.60071    238.50081 
   24850    93.384024   -280.26208    72966.149   -17253.089     1264.868   -18517.957    107.58845    237.85707 
   24900    96.355226   -478.01643    72927.848   -17286.409    1305.1123   -18591.521      107.931    245.42497 
   24950    95.040231   -269.36104    72919.557   -17289.165     1287.301   -18576.466    108.40191    242.07557 
   25000    91.900916    -740.6954    72908.143    -17316.49    1244.7796    -18561.27    108.40798    234.07946 
   25050    93.486037   -564.84436     72847.15   -17313.096    1266.2498   -18579.346    108.87918     238.1169 
   25100    94.066879   -683.86077    72834.049   -17325.419    1274.1171   -18599.536    108.98423    239.59636 
   25150    90.503922   -232.45868    72741.118   -17350.556    1225.8576   -18576.413    109.04855     230.5212 
   25200    92.129742   -691.49817    72708.661   -17353.015     1247.879   -18600.894    109.15353     234.6623 
   25250     90.31593   -303.36623    72702.021    -17360.62    1223.3113   -18583.931    109.08329    230.04237 
   25300    92.551033   -254.01526    72730.695    -17314.73    1253.5853   -18568.315    109.02784    235.73537 
   25350    97.619003   -504.79034    72736.956   -17274.256      1322.23   -18596.485    109.07842    248.64392 
   25400    91.224126   -466.02313     72707.96   -17286.513    1235.6126   -18522.126    109.05023    232.35562 
   25450    94.867175   -490.89983    72762.474   -17289.469     1284.957   -18574.426    109.45335    241.63478 
   25500     93.14273   -157.94602    72812.331   -17306.315    1261.5997   -18567.914    109.58521    237.24247 
   25550    94.214498   -397.71408    72849.493   -17283.599    1276.1166   -18559.716    109.60567    239.97235 
   25600    97.785197   -408.03281    72901.097   -17254.449     1324.481    -18578.93    109.50776    249.06723 
   25650    95.321379    -272.2917    72975.584   -17259.269    1291.1091   -18550.378     109.5625    242.79167 
   25700    96.494833   -507.85317    73016.843   -17269.826    1307.0033   -18576.829    109.46163    245.78056 
   25750    94.040044   -312.82471      72935.6   -17258.321    1273.7537   -18532.075    109.34493      239.528 
   25800     92.07602    129.97133    72942.777   -17254.494    1247.1514   -18501.645    109.82241    234.52547 
   25850    98.935552   -436.04219    72984.877   -17248.723    1340.0623   -18588.785    110.36884    251.99728 
   25900      95.9629   -653.17834    72933.333   -17272.509    1299.7984   -18572.307    110.44828    244.42568 
   25950    93.974292   -617.14166    72910.881   -17300.555    1272.8631   -18573.418    110.57595    239.36053 
   26000    93.833003   -821.19207    72853.367   -17313.473    1270.9493   -18584.422    110.74289    239.00065 
   26050    92.803985   -450.05934    72812.858   -17317.682    1257.0115   -18574.694     111.0647    236.37966 
   26100    93.727381   -628.70169     72824.21   -17311.407    1269.5187   -18580.926    111.36718    238.73162 
   26150    95.261647   -779.49448    72836.874   -17294.155       1290.3   -18584.455    111.28356    242.63953 
   26200    93.703257   -706.56471    72815.878   -17306.586     1269.192   -18575.778    111.25405    238.67018 
   26250    94.451349   -374.76534    72839.158   -17282.328    1279.3247   -18561.653    111.47359    240.57563 
   26300    92.373925   -340.95603    72908.533   -17296.719    1251.1864   -18547.906    111.96149    235.28426 
   26350    93.386965   -350.70041    72971.931   -17294.331    1264.9078   -18559.239    111.79837    237.86456 
   26400    90.744207   -708.06802    73003.768   -17305.219    1229.1122   -18534.332    112.23047    231.13323 
   26450    90.388316   -550.57514    72951.944   -17295.789    1224.2917   -18520.081    112.21935    230.22674 
   26500    92.341771   -196.20131    72989.489   -17273.551    1250.7509   -18524.302    112.26446    235.20236 
   26550    94.250884   -277.63477    73060.605   -17240.339    1276.6094   -18516.948    112.10184    240.06503 
   26600    95.721723   -798.02313    73131.445   -17242.446    1296.5317   -18538.978    112.01418    243.81138 
   26650    95.170471   -853.92619    73028.468   -17205.039    1289.0651   -18494.104    112.08158     242.4073 
   26700    95.131926   -410.94094    72947.952   -17165.999     1288.543   -18454.542    112.14397    242.30912 
   26750    95.122382   -592.92002     72974.42   -17176.378    1288.4137   -18464.792    112.60309    242.28481 
   26800      95.1556   -55.596235    73026.418    -17148.06    1288.8637   -18436.924    112.71231    242.36942 
   26850    97.360821   -717.17601    73043.136   -17119.379    1318.7329   -18438.112    112.86907    247.98631 
   26900    98.544588   -348.45954    73013.124   -17127.135    1334.7668   -18461.902    112.87271    251.00146 
   26950    96.432777   -741.85361    72947.516   -17156.255    1306.1628   -18462.418     113.1792     245.6225 
   27000    97.765624    -588.6509    72884.077   -17171.908    1324.2159   -18496.124    113.82517    249.01737 
   27050    96.300504    -511.0666     72853.85   -17174.395    1304.3711   -18478.766    114.23506    245.28559 
   27100    95.993445   -572.89158    72792.072   -17194.713    1300.2121   -18494.926    114.44058    244.50348 
   27150    94.219065   -433.47888    72808.261   -17235.741    1276.1785   -18511.919     114.6856    239.98399 
   27200    94.076599   -427.30683    72821.202   -17238.405    1274.2488   -18512.653     114.9624    239.62111 
   27250    94.841999   -339.07237    72806.495   -17226.932     1284.616   -18511.548    115.27315    241.57065 
   27300    92.394778   -522.15384    72854.831   -17253.067    1251.4689   -18504.535    115.53359    235.33737 
   27350    93.081236    -472.6593    72822.684   -17289.954    1260.7668   -18550.721    115.56786    237.08584 
   27400    92.089764   -555.69791    72833.458   -17288.755    1247.3375   -18536.093    115.87544    234.56047 
   27450    92.164977   -489.07442    72823.964   -17295.384    1248.3563    -18543.74    115.91827    234.75205 
   27500    94.914999   -103.34131    72776.123   -17283.116    1285.6048   -18568.721    116.68901    241.75659 
   27550    92.484781   -413.40619    72794.668   -17266.598    1252.6879   -18519.286    117.24667    235.56662 
   27600    94.189571    -546.6489    72808.987   -17296.855     1275.779   -18572.634    118.05712    239.90886 
   27650    93.972015   -600.56343    72863.432     -17263.3    1272.8322   -18536.132    118.48833    239.35473 
   27700    93.783561   -528.51163    72862.715    -17279.76    1270.2797    -18550.04    118.80995    238.87472 
   27750    93.708873   -534.18789    72845.774    -17298.13     1269.268   -18567.398    119.26441    238.68448 
   27800      92.4103   -212.23564    72868.526   -17277.388    1251.6791   -18529.067     119.2929    235.37691 
   27850    93.245705   -214.74531    72921.891   -17262.999    1262.9945   -18525.994    119.19888    237.50476 
   27900    95.606054   -579.64079    72927.202   -17237.663     1294.965   -18532.628    118.95226    243.51677 
   27950    95.620272   -385.39526    72967.268   -17258.162    1295.1575    -18553.32    118.91228    243.55298 
   28000     93.85702   -705.34077    72953.293   -17238.407    1271.2746   -18509.682    119.09527    239.06183 
   28050    95.582889   -269.31117    72947.371   -17256.589    1294.6512    -18551.24    118.94528    243.45776 
   28100    96.199839   -582.79861     72909.75   -17226.756    1303.0077   -18529.763    118.99611    245.02919 
   28150    95.729443   -226.22335    72906.755   -17247.298    1296.6362   -18543.934    118.72286    243.83105 
   28200    94.189749   -425.31066    72895.348   -17265.623    1275.7814   -18541.405    118.81915    239.90932 
   28250    98.132368   -555.74392    72862.299   -17211.551    1329.1834   -18540.734    119.09731     249.9515 
   28300    94.900601   -102.10944    72872.845   -17227.127    1285.4097   -18512.537    119.25015    241.71992 
   28350    95.578561   -752.59393    72825.061   -17237.224    1294.5926   -18531.817    119.30509    243.44674 
   28400     92.37877   -507.58358    72776.661   -17204.838     1251.252    -18456.09    119.47936     235.2966 
   28450    96.764933   -616.36958    72785.158   -17243.562    1310.6617   -18554.223     119.6581    246.46853 
   28500    94.614299   -527.02841    72729.556   -17242.824    1281.5318   -18524.356    119.65625    240.99068 
   28550    92.141435   -102.03087    72726.743   -17281.226    1248.0374   -18529.264    119.95566    234.69209 
   28600    94.895654   -305.20091    72712.866   -17287.003    1285.3427   -18572.345    120.12547    241.70732 
   28650    95.554011   -331.91663    72761.612   -17263.975    1294.2601   -18558.235    120.48622    243.38421 
   28700    95.347379   -469.01368    72777.481   -17226.607    1291.4613   -18518.068    120.13185     242.8579 
   28750    97.168666   -352.04756     72777.74   -17224.922    1316.1302   -18541.052    120.13253    247.49687 
   28800    93.740185   -537.65717    72737.465   -17234.029    1269.6921   -18503.721    120.22406    238.76424 
   28850    96.658051   -684.60468    72701.091   -17260.619    1309.2141   -18569.833    120.57749    246.19629 
   28900    95.866541    -459.3447    72706.224   -17244.423    1298.4932   -18542.916    121.02844    244.18025 
   28950    96.237006   -587.07329    72680.198   -17203.348    1303.5111   -18506.859    121.28447    245.12385 
   29000    93.573285    -512.3457    72637.643   -17247.885    1267.4315   -18515.317    121.66967    238.33913 
   29050    97.092869   -508.50583    72554.854   -17218.581    1315.1036   -18533.685    121.77433    247.30381 
   29100    95.564842   -696.32959    72506.124   -17207.166    1294.4068   -18501.573    122.07559     243.4118 
   29150    95.246907   -199.54555     72442.41   -17226.765    1290.1004   -18516.865    121.44646    242.60199 
   29200    95.592982   -289.02094    72477.586   -17227.464    1294.7879   -18522.251    121.42573    243.48347 
   29250    92.756975    -466.9839    72435.892   -17262.648    1256.3748   -18519.023    121.70313    236.25992 
   29300    94.027715   -354.59038    72389.377    -17277.39    1273.5867   -18550.976    121.60972     239.4966 
   29350    95.035257   -519.41032    72396.396   -17269.623    1287.2336   -18556.856    121.95278     242.0629 
   29400    92.957593    -546.9998    72457.368   -17278.856    1259.0921   -18537.948    122.29275    236.77091 
   29450    93.606367    -281.9625     72473.31   -17292.952    1267.8796   -18560.832    122.37516    238.42339 
   29500    93.738136   -304.88524     72522.77   -17266.874    1269.6644   -18536.538    122.66289    238.75902 
   29550      91.9371   -418.30283    72540.512   -17286.891    1245.2697   -18532.161    122.68203    234.17163 
   29600    90.943831   -370.87981    72525.728   -17267.956    1231.8161   -18499.772    122.61129    231.64169 
   29650    94.130987   -451.96326    72470.178   -17252.214    1274.9855   -18527.199    123.27717    239.75964 
   29700    94.303977   -261.49852    72543.845   -17272.845    1277.3286   -18550.174    123.44156    240.20026 
   29750    95.037457    -196.4645    72581.935   -17278.826    1287.2634   -18566.089    123.76294     242.0685 
   29800    91.752585   -232.29788    72665.953   -17283.137    1242.7705   -18525.908    124.47187    233.70165 
   29850    93.270013   -385.33327    72762.083   -17278.543    1263.3237   -18541.867    124.68535    237.56667 
   29900    91.609705   -105.64886    72772.019   -17262.061    1240.8352   -18502.896    124.87594    233.33772 
   29950    93.438205   -179.97089    72727.415   -17275.636    1265.6019   -18541.238     124.9973    237.99507 
   30000    94.758078   -448.13658    72722.465   -17284.864    1283.4793   -18568.344    125.32956     241.3569 
   30050    92.346132   -232.38538    72756.991   -17278.481      1250.81   -18529.291    125.46362    235.21347 
   30100    91.510203   -469.75877    72732.969   -17276.208    1239.4875   -18515.696    125.26212    233.08428 
   30150    92.769529    -485.3657    72760.713   -17266.452    1256.5448   -18522.997    125.43914    236.29189 
   30200    96.473317   -364.64942    72774.112   -17247.591    1306.7119   -18554.303    125.76784    245.72576 
   30250    93.979991     -348.968    72825.905   -17251.336    1272.9403   -18524.276    125.95973    239.37504 
   30300     96.16971   -339.33528    72868.697   -17235.097    1302.5996   -18537.696    126.12178    244.95244 
   30350    97.903755   -338.99931    72918.391   -17208.821    1326.0869   -18534.908    126.32575     249.3692 
   30400      96.0318    -451.6699    72968.677   -17236.694    1300.7316   -18537.425    126.13505    244.60118 
   30450    94.485215    -583.4073    72965.858   -17197.299    1279.7834   -18477.082     126.0366    240.66189 
   30500    98.983411   -596.00291    72921.465   -17201.568    1340.7106   -18542.278    126.39327    252.11918 
   30550    97.336741   -463.79296    72900.315   -17230.303    1318.4068   -18548.709    126.38821    247.92497 
   30600     93.97688   -294.84336    72897.895   -17244.169    1272.8981   -18517.067    126.66444    239.36712 
   30650    93.395396   -272.81488    72926.576   -17247.445     1265.022   -18512.467    126.69498    237.88603 
   30700    93.536838   -452.05843    72947.793   -17268.964    1266.9378   -18535.902    126.63718     238.2463 
   30750    94.102465   -224.73625    72955.944   -17256.332    1274.5991   -18530.931    126.53773    239.68699 
   30800    95.115823   -269.70798    72953.704   -17265.175    1288.3249     -18553.5     126.7427    242.26811 
   30850     93.39752   -466.78936    72924.883   -17290.826    1265.0508   -18555.877    127.10909    237.89144 
   30900    93.766369    -864.5425    72913.066   -17304.338    1270.0468   -18574.384    127.31772    238.83093 
   30950    96.537905   -601.66691    72882.214   -17282.993    1307.5867   -18590.579    127.45177    245.89027 
   31000     95.00198   -52.973408    72884.103   -17275.482    1286.7829   -18562.265    127.88687    241.97814 
   31050    94.641061   -303.66593    72895.908   -17278.984    1281.8943   -18560.879    127.94514    241.05885 
   31100    93.067769    188.99966    72937.077    -17285.96    1260.5844   -18546.544    127.78874    237.05154 
   31150      90.1683   -324.07754    72924.602   -17318.393    1221.3117   -18539.705    128.29191    229.66634 
   31200    94.065191   -370.78926    72936.698   -17306.493    1274.0943   -18580.588    128.00482    239.59206 
   31250    95.437051   -312.49048    72970.103   -17294.305    1292.6758   -18586.981    128.36729     243.0863 
   31300    95.511855    -511.5131     72934.31   -17277.731    1293.6891    -18571.42    128.26822    243.27683 
   31350    91.998901   -590.95105    72972.075   -17283.691    1246.1068   -18529.797    128.53364    234.32904 
   31400    93.218681   -322.50253    72973.231   -17265.105    1262.6285   -18527.733    128.70433    237.43592 
   31450    95.736891   -438.39745    72951.675   -17231.776    1296.7371   -18528.513    129.36258    243.85002 
   31500    93.256086   -203.94701      72929.4   -17238.344    1263.1351   -18501.479    129.93188     237.5312 
   31550    95.147588      -795.72    72998.807   -17194.657    1288.7551   -18483.412    130.29728    242.34901 
   31600    95.083991   -361.69352    73040.888   -17198.088    1287.8937   -18485.982     130.4082    242.18703 
   31650    95.126181    -80.59127    73052.176   -17203.675    1288.4652    -18492.14     130.5163    242.29449 
   31700    95.686943   -661.36955    73105.223   -17217.173    1296.0606   -18513.234    130.32139     243.7228 
   31750     94.89781    -820.7747    73110.712   -17213.983    1285.3719   -18499.354    130.52077    241.71281 
   31800    92.782729   -520.51421    73124.497   -17212.671    1256.7236   -18469.394    131.18185    236.32552 
   31850    95.927484   -612.10496    73077.438    -17191.16    1299.3187   -18490.479    131.07809    244.33547 
   31900    93.406374   -934.35272    72961.239   -17259.971    1265.1707   -18525.142    131.21271    237.91399 
   31950    94.303084   -543.87302    72929.025   -17271.696    1277.3165   -18549.012    131.39754    240.19799 
   32000    93.847021   -227.71598    72954.055   -17292.051    1271.1392   -18563.191    131.22903    239.03636 
   32050    93.976281   -665.70669    73033.968   -17311.392      1272.89   -18584.282    131.21605     239.3656 
   32100    93.665042    -386.7277    73056.843   -17330.749    1268.6743   -18599.423     131.3176    238.57284 
   32150    94.594396   -561.91878    73082.329   -17323.806    1281.2623   -18605.068    131.74038    240.93999 
   32200    90.714079   -231.19371    73109.366   -17319.588    1228.7041   -18548.292    132.05948    231.05649 
   32250    90.403897    -110.5353    73186.795   -17314.492    1224.5028   -18538.995     132.3243    230.26643 
   32300    91.248258   -614.01069    73245.826   -17288.297    1235.9395   -18524.237    132.86213    232.41709 
   32350    94.724864   -356.15316    73269.409   -17234.554    1283.0294   -18517.583    132.89075     241.2723 
   32400     93.39791   -536.67958    73301.137   -17221.187    1265.0561   -18486.243    133.43239    237.89244 
   32450    92.589907   -730.61083    73387.827   -17239.967    1254.1118   -18494.079    133.62785    235.83438 
   32500    97.724107    -525.9343    73381.307   -17216.912    1323.6536   -18540.565    133.56224    248.91163 
   32550    93.197905   -415.18358    73415.178   -17188.485    1262.3471   -18450.832    133.49447    237.38301 
   32600    94.720564   -706.03238    73373.729   -17162.238    1282.9712   -18445.209    133.49492    241.26135 
   32650    94.756295   -624.17601     73312.14   -17155.037    1283.4551   -18438.492    133.47463    241.35236 
   32700     93.41544   -853.41057    73227.042   -17178.641    1265.2935   -18443.934    133.30234    237.93709 
   32750    97.859579   -697.42692    73252.309   -17150.749    1325.4885   -18476.238      133.315    249.25669 
   32800    97.298972   -361.50392    73209.274   -17129.064    1317.8952   -18446.959     133.6021    247.82877 
   32850    94.963275   -437.66133    73191.265   -17128.068    1286.2587   -18414.327    133.87684    241.87955 
   32900    97.407567   -563.30422    73157.045   -17156.282    1319.3661   -18475.648    134.13102    248.10537 
   32950    96.048605   -675.80774    73161.678   -17159.174    1300.9592   -18460.133    133.90034    244.64398 
   33000    93.181193   -677.17802    73117.014   -17259.777    1262.1207   -18521.898    133.70523    237.34044 
   33050    93.209288   -317.10032     73094.71   -17235.202    1262.5012   -18497.703    134.27081      237.412 
   33100    89.343455    -287.2262    73068.438   -17238.062    1210.1393   -18448.201    134.11369    227.56539 
   33150    95.584335   -250.22797    73116.842   -17202.904    1294.6708   -18497.575    133.95017    243.46145 
   33200    94.940421   -435.58267    73136.219   -17212.511    1285.9491    -18498.46    133.97366    241.82134 
   33250    93.664483   -394.50642     73106.41   -17235.909    1268.6668   -18504.576    133.96052    238.57142 
   33300    94.698861   -863.84915    73107.018   -17220.496    1282.6772   -18503.173    134.44312    241.20607 
   33350    93.976732   -622.90535    73096.355   -17216.381    1272.8961   -18489.277    134.61545    239.36674 
   33400    94.062084   -276.11928    73078.142   -17236.398    1274.0522    -18510.45    134.53855    239.58414 
   33450    95.772291   -419.77231    73107.947   -17228.094    1297.2166   -18525.311    134.59582    243.94018 
   33500    96.395107   -441.98742    73127.631    -17206.94    1305.6525   -18512.593    134.35273    245.52655 
   33550    95.687002   -628.20868    73085.733   -17215.844    1296.0614   -18511.905    134.58826    243.72295 
   33600    94.351975    -451.0386    73093.107   -17212.006    1277.9787   -18489.985    134.87808    240.32252 
   33650    94.922666   -397.89448    73142.263    -17233.63    1285.7086   -18519.338    134.77282    241.77612 
   33700    93.444409   -968.59876    73090.893   -17265.982    1265.6859   -18531.668    134.75196    238.01087 
   33750    94.052725   -380.80217    73002.633   -17235.529    1273.9254   -18509.454    135.17382     239.5603 
   33800    95.194149   -513.10619    73064.793    -17264.43    1289.3858   -18553.815    136.09229    242.46761 
   33850     94.93354    -230.1185    73056.274   -17237.614    1285.8559    -18523.47    136.09087    241.80381 
   33900     95.64588   -681.69638    72971.827   -17221.215    1295.5044   -18516.719    136.50526    243.61821 
   33950    96.344903   -406.50985    72933.059   -17247.998    1304.9725   -18552.971     136.5088    245.39868 
[...]
   92000    93.774331   -345.19482    72737.822   -17263.513    1270.1546   -18533.668    363.45475    238.85121 
   92050    95.109434   -249.53123    72769.101    -17280.34    1288.2383   -18568.578    363.16766    242.25183 
   92100    94.705869   -277.59545    72757.338   -17238.893    1282.7721   -18521.666    363.17914    241.22392 
   92150    93.100298   -393.84583    72742.425   -17251.753     1261.025   -18512.778     363.1901    237.13439 
   92200    94.299563   -632.05143    72752.156   -17240.657    1277.2688   -18517.926    363.50324    240.18902 
   92250    95.016304   -261.82617    72743.388   -17245.987    1286.9769   -18532.964    363.49545    242.01462 
   92300     95.70177   -371.70187    72835.958   -17241.815    1296.2614   -18538.076    362.97359    243.76056 
   92350    93.461622   -615.80956    72837.373   -17246.528    1265.9191   -18512.447    362.85777    238.05471 
   92400     94.73291   -328.23579    72801.824   -17231.788    1283.1384   -18514.926    364.02732    241.29279 
   92450    94.804344   -474.12787    72797.959   -17224.371     1284.106   -18508.477    364.55655    241.47474 
   92500    93.611263   -335.32774    72813.964   -17236.318    1267.9459   -18504.264    364.57527    238.43586 
   92550    94.635588   -593.99587    72836.348   -17249.368    1281.8202   -18531.189    364.11158    241.04491 
   92600      93.6465   -307.62378    72829.764   -17289.233    1268.4232   -18557.656    364.85068    238.52561 
   92650    93.873299   -77.564766    72903.505   -17248.353    1271.4951   -18519.848    364.77681    239.10329 
   92700    91.689226   -584.92981    72937.917    -17248.29    1241.9123   -18490.203    364.52498    233.54027 
   92750    93.957179   -235.61082    72943.954   -17207.583    1272.6313   -18480.214    364.48055    239.31694 
   92800    96.544125   -413.06484    73001.633   -17199.251    1307.6709   -18506.922    365.23121    245.90611 
   92850    95.372932   -320.65499    72982.733    -17208.66    1291.8074   -18500.468    365.52616    242.92298 
   92900    94.420688   -83.440951    73056.506   -17209.449    1278.9094   -18488.358    365.70738    240.49754 
   92950    96.214313   -747.43269    73059.666   -17213.709    1303.2037   -18516.913    365.85931    245.06605 
   93000    93.102008    -708.5178      73013.1   -17211.038    1261.0482   -18472.086    366.11454    237.13875 
   93050    94.792527   -604.89575    72960.869   -17258.322    1283.9459   -18542.268    365.94203    241.44464 
   93100    93.638661   -254.42119    72981.941   -17268.027     1268.317   -18536.344    366.00082    238.50565 
   93150     94.79733   -220.88006    72947.771   -17257.289     1284.011     -18541.3    366.30357    241.45688 
   93200    98.390119   -385.06118     73001.62   -17268.799    1332.6746   -18601.474    366.10881    250.60802 
   93250    96.032662   -356.47156    72983.375   -17264.926    1300.7433   -18565.669    365.92945    244.60337 
   93300    98.228542   -462.07018    72985.834   -17256.516     1330.486   -18587.003    365.95284    250.19647 
   93350    93.146587   -188.02746    72991.683   -17282.197     1261.652   -18543.849    366.63769    237.25229 
   93400    93.647025   -236.87691    73060.729   -17298.631    1268.4303   -18567.061    366.55374    238.52695 
   93450    94.396547   -341.16422    73053.481   -17315.895    1278.5824   -18594.477     366.9936    240.43605 
   93500    93.507926   -658.74583    73016.014    -17318.54    1266.5462   -18585.087    367.36281    238.17265 
   93550     92.62581   -373.83947    73005.773   -17325.052    1254.5982    -18579.65    367.69791    235.92583 
   93600     91.91472   -161.69096     73011.09   -17317.356    1244.9666   -18562.323    368.03868    234.11462 
   93650    94.497835   -443.64187    73049.987   -17292.136    1279.9544    -18572.09    368.49355    240.69404 
   93700    92.271347   -477.67288     73056.14    -17306.05     1249.797   -18555.847    368.86111    235.02298 
   93750    89.369181   -474.78325    73020.617   -17326.508    1210.4878   -18536.995     368.2574    227.63092 
   93800    91.239174   -818.51608    73002.653    -17325.18    1235.8164   -18560.997    368.36851    232.39395 
   93850    92.105598    -332.5359    73014.119   -17337.726     1247.552   -18585.278    368.02802    234.60081 
   93900    90.718695   -247.66021    73034.855   -17274.987    1228.7667   -18503.754    368.12052    231.06824 
   93950     92.65758   -101.95745    73085.056   -17270.821    1255.0285    -18525.85    368.59494    236.00675 
   94000    95.100744   -459.17742    73194.951   -17259.342    1288.1206   -18547.463      369.147     242.2297 
   94050    96.263294    -495.4789    73239.339   -17262.102    1303.8672   -18565.969     369.3015    245.19081 
   94100    92.487495   -104.54694    73301.468   -17301.235    1252.7247    -18553.96    369.12063    235.57353 
   94150    94.810827   -554.42444    73267.431   -17282.145    1284.1938   -18566.339    369.63512    241.49125 
   94200    94.177617   -722.38394    73205.088   -17313.749    1275.6171   -18589.366    369.59835    239.87841 
   94250    92.894126   -694.35979    73124.943    -17329.93    1258.2324   -18588.162    369.89459    236.60925 
   94300    88.253509   -637.06128    73155.409   -17329.482    1195.3762   -18524.858     370.6465    224.78921 
   94350    94.253324   -388.51253    73173.747   -17310.395    1276.6425   -18587.038    370.70843    240.07125 
   94400    96.771237   -524.36109    73185.079   -17293.866    1310.7471   -18604.613    371.22398    246.48459 
   94450    93.564264   -859.72818    73146.796   -17299.607    1267.3093   -18566.917    372.11004    238.31615 
   94500    93.272745   -570.54095    73033.022   -17290.014    1263.3608   -18553.374    371.85465    237.57363 
   94550    93.607866    -494.7021    72953.163   -17246.657    1267.8999   -18514.557      371.981    238.42721 
   94600    96.670562   -265.22225    72831.695   -17241.956    1309.3835    -18551.34    372.13773    246.22816 
   94650    91.525861   -370.38234    72852.825   -17234.418    1239.6996   -18474.118    372.64246    233.12417 
   94700    94.165947   -477.85339    72841.802   -17284.712     1275.459   -18560.171    372.69152    239.84869 
   94750    93.011162   -785.17183    72805.245   -17305.982    1259.8177     -18565.8    372.90985    236.90736 
   94800    92.687174   -788.51706    72740.363   -17303.392    1255.4293   -18558.821    373.01299    236.08213 
   94850    95.784007   -760.62109    72752.618   -17291.609    1297.3753   -18588.984    373.55553    243.97003 
   94900    91.296818   -410.13005    72751.799   -17300.241    1236.5972   -18536.838    373.61019    232.54077 
   94950    93.510482   -399.90442    72827.049   -17300.702    1266.5809   -18567.283    374.36271    238.17916 
   95000    93.153187   -435.47491    72804.692   -17300.572    1261.7414   -18562.314    374.22489    237.26911 
   95050    94.779758   -492.17695    72794.105   -17298.713    1283.7729   -18582.486    373.57203    241.41212 
   95100    93.304012    -630.4745    72830.601   -17315.799    1263.7843   -18579.583     374.3045    237.65327 
   95150    93.073114    -543.9346    72861.579   -17301.507    1260.6568   -18562.164    374.53234    237.06515 
   95200    95.365354   -448.99113    72886.714    -17284.75    1291.7047   -18576.455    374.07049    242.90368 
   95250    93.073565    -421.2023    72905.334   -17270.279    1260.6629   -18530.942    374.67678     237.0663 
   95300    95.626368   -246.22775     72908.21   -17250.461    1295.2401   -18545.702    374.92192    243.56851 
   95350    94.946884    -207.3464    72926.866   -17278.069    1286.0366   -18564.105    375.38486     241.8378 
   95400    93.108286    -179.5917    72964.913   -17284.381    1261.1332   -18545.514    374.78538    237.15474 
   95450     94.39713   -290.18715    72946.743   -17261.765    1278.5903   -18540.355    375.01191    240.43753 
   95500    92.664204   -584.52834    72965.489   -17291.017    1255.1182   -18546.135    375.13822    236.02362 
   95550    91.985959   -681.22964    72917.045   -17275.945    1245.9315   -18521.877    375.60674    234.29608 
   95600    91.861686   -473.93964     72892.94   -17250.344    1244.2482   -18494.592    375.16779    233.97954 
   95650    92.993347   -212.75864    72935.644   -17259.372    1259.5764   -18518.949    374.85435    236.86198 
   95700    90.508812   -352.36091    73016.792   -17289.412    1225.9238   -18515.335     374.8146    230.53366 
   95750    93.391987   -556.47258    73007.057   -17307.078    1264.9759   -18572.054    375.14545    237.87735 
   95800    92.873496   -487.81923     73002.28   -17280.252     1257.953   -18538.205    375.91722    236.55671 
   95850    92.385227   -282.26601     72970.17    -17261.42    1251.3395    -18512.76     375.9772    235.31304 
   95900    97.104306   -979.61822    72916.135   -17234.555    1315.2585   -18549.813    375.82023    247.33294 
   95950    94.443255   -237.86783    72841.435   -17277.729    1279.2151   -18556.944    375.42204    240.55502 
   96000    94.507029    -379.8482    72792.896   -17240.228    1280.0789   -18520.307     376.1408    240.71746 
   96050     97.48058   -141.94462    72802.589   -17239.482     1320.355   -18559.837     376.2874    248.29134 
   96100     94.38037   -407.25697    72853.947   -17232.222    1278.3633   -18510.585    376.60224    240.39484 
   96150    96.486026   -544.76353     72868.46   -17253.173     1306.884   -18560.057    377.24431    245.75813 
   96200    95.707811   -516.02793     72875.86   -17235.686    1296.3432   -18532.029     377.4551    243.77595 
   96250    93.351163   -475.68987    72903.568   -17230.723    1264.4229   -18495.146    377.89001    237.77337 
   96300    94.120857   -302.57049    72892.848   -17212.201    1274.8483   -18487.049    378.70145    239.73384 
   96350    95.383492   -490.30481    72900.741   -17205.403    1291.9504   -18497.353    377.82668    242.94988 
   96400    94.342344   -188.47164    72934.306   -17207.552    1277.8483   -18485.401    378.14272    240.29799 
   96450    93.389648   -213.04716    72950.663    -17243.38    1264.9442   -18508.324    377.24189    237.87139 
   96500    93.793559    89.471118    72995.793   -17237.358    1270.4151   -18507.773    377.81778    238.90019 
   96550    93.469673   -465.70982    73123.143   -17263.243    1266.0281   -18529.271    377.63462    238.07522 
   96600    94.874035   -528.68633    73149.376   -17267.078    1285.0499   -18552.128    377.36281    241.65225 
   96650    92.279476   -681.21615     73082.77   -17270.515    1249.9071   -18520.422     378.1644    235.04369 
   96700    93.679773   -424.35204    73118.935   -17250.279    1268.8739   -18519.153    378.74412    238.61036 
   96750    91.929737   -663.05131    73076.029   -17260.485      1245.17   -18505.655    379.03375    234.15287 
   96800    92.868104   -233.03605    73043.066    -17249.37      1257.88    -18507.25    379.03087    236.54297 
   96850    93.290605   -683.21442    73061.502   -17232.765    1263.6027   -18496.367    379.35322    237.61912 
   96900    95.284994   -280.36196    73049.264   -17229.834    1290.6163    -18520.45    378.89815      242.699 
   96950    94.298038     -651.831    73044.536   -17240.876    1277.2481   -18518.124    379.64695    240.18514 
   97000    95.051358   -368.50458    72998.336   -17247.748    1287.4517   -18535.199    379.63305    242.10391 
   97050    91.775297   -852.89472    72986.054   -17292.414    1243.0781   -18535.493    379.98558     233.7595 
   97100     94.39876   -909.60063    72892.303   -17241.529    1278.6124   -18520.141    380.49878    240.44168 
   97150    93.268116    -539.8521    72889.817   -17254.152    1263.2981    -18517.45    380.89562    237.56184 
   97200    95.179875   -573.78745    72874.785   -17270.034    1289.1925   -18559.226    381.39031    242.43125 
   97250    94.617013   -700.25786    72852.951   -17299.134    1281.5686   -18580.703    381.68997    240.99759 
   97300    93.306506   -170.33828    72857.131   -17281.275     1263.818   -18545.093    381.53192    237.65962 
   97350    95.700136   -297.87113    72877.124   -17254.663    1296.2393   -18550.902    382.01855     243.7564 
   97400    95.530867   -417.13861     72885.12   -17267.868    1293.9466   -18561.815    382.03975    243.32526 
   97450    93.834849   -491.87125    72818.527   -17317.783    1270.9743   -18588.758    382.46567    239.00536 
   97500    93.161732   -446.41132    72782.411   -17269.892    1261.8571   -18531.749    382.49639    237.29087 
   97550    92.230501   -414.09654    72832.647   -17287.647    1249.2438   -18536.891    382.58669    234.91894 
   97600    93.162487   -388.49375    72887.791   -17286.721    1261.8673   -18548.588    382.36207    237.29279 
   97650    93.934426   -455.24305    72944.274   -17304.431    1272.3231   -18576.754    382.85834    239.25899 
   97700    91.048562    -567.3387    72911.424   -17317.836    1233.2346    -18551.07    383.14411    231.90844 
   97750    93.251768   -379.67362    72898.229   -17330.231    1263.0766   -18593.307    383.69195     237.5202 
   97800    91.915029    -422.8387    72904.927   -17294.589    1244.9708    -18539.56    384.12745    234.11541 
   97850    95.225647   -214.25154    72989.513   -17232.476    1289.8124   -18522.289    384.61324    242.54784 
   97900    96.148936   -496.77315    73010.625   -17228.234    1302.3182   -18530.552     385.8201    244.89953 
   97950    91.445317   -467.62169    73008.494   -17209.968    1238.6086   -18448.576    386.02525    232.91901 
   98000    95.274074   -726.03414    73061.387    -17213.02    1290.4684   -18503.488    385.88988    242.67118 
   98050    95.962418   -505.50327    73089.577   -17237.953    1299.7918   -18537.745    386.06916    244.42446 
   98100    94.996193   -575.09574    73088.459   -17215.461    1286.7045   -18502.166    385.90682     241.9634 
   98150     96.30418   -782.72396    73095.607   -17208.288    1304.4209   -18512.709     386.0398    245.29495 
   98200    93.985678   -728.62827    73022.277   -17226.705    1273.0173   -18499.723     386.2416    239.38953 
   98250    93.435657   -430.29979    72931.633   -17229.237    1265.5674   -18494.804    386.62176    237.98858 
   98300    94.861334   -532.80155    72841.625   -17269.582    1284.8779    -18554.46    386.41226     241.6199 
   98350    95.752366   -460.68701    72899.737   -17274.092    1296.9467   -18571.039    386.69584    243.88944 
   98400     91.63433   -124.35534    72957.891   -17297.081    1241.1688   -18538.249    386.38398    233.40045 
   98450    91.728224   -548.00395    72956.866   -17291.314    1242.4405   -18533.755    385.53969     233.6396 
   98500    95.432192   -167.85062    72960.929   -17278.201      1292.61   -18570.811    386.40559    243.07392 
   98550    96.011218   -578.80954    72961.135   -17254.327    1300.4528    -18554.78    387.28582    244.54875 
   98600    96.654292   -148.35763    72984.831   -17255.678    1309.1631   -18564.841    387.47933    246.18672 
   98650    95.428394   -299.34442    73015.645   -17265.992    1292.5586   -18558.551    387.95462    243.06425 
   98700    95.662847   -267.12002    73040.163       -17258    1295.7342   -18553.734    388.99538    243.66142 
   98750    92.838345   -429.05582    73079.642   -17329.412    1257.4769   -18586.889    388.73214    236.46718 
   98800    92.648658   -597.15176    73066.259   -17328.837    1254.9076   -18583.744     388.7182    235.98403 
   98850    91.453032   -593.18064    72982.785   -17319.992    1238.7131   -18558.705    388.72847    232.93866 
   98900    94.437855   -554.50403    72928.272   -17326.404    1279.1419   -18605.546    388.94313    240.54126 
   98950    93.182279   -656.98068    72908.698   -17327.731    1262.1354   -18589.867    389.78488    237.34321 
   99000    94.405644   -505.95049    72954.071   -17282.359    1278.7056   -18561.065    390.27951    240.45922 
   99050    94.042885   -491.03637    73010.596    -17300.16    1273.7922   -18573.952    390.05781    239.53524 
   99100      93.9029   -491.41701     73012.47    -17327.75    1271.8961   -18599.646    390.28877    239.17869 
   99150    92.813068   -652.71412    73005.544   -17303.918    1257.1345   -18561.052    390.81205    236.40279 
   99200    93.295482   -654.99254    72927.256   -17322.145    1263.6687   -18585.814    390.75022    237.63154 
   99250    93.655904   -212.94765     72929.77   -17330.301    1268.5506   -18598.851    390.94105    238.54957 
   99300    91.007994   -605.31204    72989.799   -17356.629    1232.6852   -18589.314    391.59077    231.80511 
   99350     95.52707   -692.70524    73021.039   -17343.176    1293.8951   -18637.071    391.01263    243.31559 
   99400    91.407046   -759.81619    72992.045   -17371.024    1238.0902   -18609.114    390.87757    232.82153 
   99450    91.753623   -555.15993     72948.68   -17379.147    1242.7845   -18621.932     390.9421    233.70429 
   99500    94.142712   -573.60762    72922.912    -17354.47    1275.1443   -18629.614    391.61176    239.78951 
   99550    92.548721   -413.87949    72881.778    -17328.96     1253.554   -18582.514    391.51539    235.72948 
   99600    92.569312   -478.72904    72873.737   -17343.376    1253.8329   -18597.208     391.3743    235.78192 
   99650    92.079437   -642.13038    72837.867   -17324.667    1247.1976   -18571.864    391.69608    234.53417 
   99700    90.119722   -682.91783    72856.079   -17324.338    1220.6537   -18544.992    391.32512    229.54261 
   99750    91.713681    -367.4669      72869.7   -17310.705    1242.2435   -18552.948    391.29761    233.60256 
   99800    94.462774   -242.90266    72881.955   -17309.614    1279.4795   -18589.093    391.37933    240.60473 
   99850    90.354118   -227.97082    72901.493   -17342.834    1223.8285   -18566.663    392.38173    230.13964 
   99900    92.924929   -438.71053    72892.197   -17320.824    1258.6497   -18579.473    392.28937    236.68771 
   99950    93.361806   -618.98136    72887.077   -17338.988    1264.5671   -18603.555    392.65087    237.80047 
  100000     93.47981   -578.17031    72888.509   -17307.844    1266.1654   -18574.009    392.59725    238.10104 
Loop time of 85.7692 on 128 procs for 100000 steps with 4545 atoms

Performance: 503.677 ns/day, 0.048 hours/ns, 1165.919 timesteps/s
99.2% CPU use with 128 MPI tasks x no OpenMP threads

MPI task timing breakdown:
Section |  min time  |  avg time  |  max time  |%varavg| %total
---------------------------------------------------------------
Pair    | 12.545     | 36.31      | 58.317     | 315.5 | 42.33
Neigh   | 0.26371    | 0.71688    | 2.0529     |  78.0 |  0.84
Comm    | 17.046     | 38.723     | 64.337     | 324.6 | 45.15
Output  | 0.14666    | 0.15055    | 0.28465    |   3.1 |  0.18
Modify  | 6.4089     | 8.8961     | 12.286     |  64.5 | 10.37
Other   |            | 0.9731     |            |       |  1.13

Nlocal:    35.5078 ave 95 max 13 min
Histogram: 85 11 0 0 0 0 0 2 14 16
Nghost:    610.008 ave 790 max 333 min
Histogram: 32 0 0 0 0 12 20 3 29 32
Neighs:    0 ave 0 max 0 min
Histogram: 128 0 0 0 0 0 0 0 0 0
FullNghs:  3653.25 ave 12641 max 607 min
Histogram: 96 0 0 0 0 0 0 2 10 20

Total # of neighbors = 467616
Ave neighs/atom = 102.886
Neighbor list builds = 5673
Dangerous builds = 0

write_data		${DIR}/data.eq-${NAME}-${TEMP}
write_data		run_17/data.eq-${NAME}-${TEMP}
write_data		run_17/data.eq-het_freeze_17-${TEMP}
write_data		run_17/data.eq-het_freeze_17-240
undump          1

reset_timestep  0

unfix           2
unfix           3
unfix           4


################################################
#######         Run Simulation         #########
################################################

log				${DIR}/log.run_${NAME}
log				run_17/log.run_${NAME}
log				run_17/log.run_het_freeze_17
