LAMMPS data file via write_data, version 16 Mar 2018, timestep = 6000000

6736 atoms
2 atom types

0.0000000000000000e+00 4.9219999999999999e+01 xlo xhi
0.0000000000000000e+00 4.9019635930410494e+01 ylo yhi
4.2890665725081689e-01 5.9633093342756261e+01 zlo zhi

Masses

1 18.015
2 12.01

Atoms # atomic

5200 1 3.2061252876573514e+00 1.5504670771612297e+00 2.3757120287143350e+00 1 1 0
2109 1 7.4694220526899946e-01 1.4582470016456921e+00 1.6322710846617994e+00 2 4 0
92 1 4.4258977935249897e+00 3.9494158729607247e+00 1.6969722811877670e+00 0 -1 0
2999 1 6.7898778572403149e+00 4.1976986231867164e+00 2.7089346094159468e+00 1 -5 1
1716 1 7.8055452301116235e+00 1.8752353900944692e+00 1.6552470110724455e+00 1 1 0
3541 1 1.0670505905598752e+01 2.2730246762925548e+00 2.7758344765178169e+00 -2 -2 0
1354 1 3.2693792802141743e+00 6.3161492867931353e+00 2.5104049447049479e+00 3 -5 1
1377 1 7.5965171247220342e-01 5.7242175464195713e+00 1.9295083547673630e+00 -1 0 0
3252 1 8.1194968813815400e+00 6.5115603498853849e+00 2.2370297800520609e+00 2 -1 1
5481 1 1.0614716681908838e+01 6.7483629225967050e+00 2.1205374690399097e+00 1 1 0
5151 1 1.1841313041628892e+01 4.3970318005641600e+00 1.5698447210390876e+00 3 -1 0
6435 1 3.0473249438599539e+00 1.0713666509893100e+01 2.7024764980654790e+00 0 2 1
3574 1 4.2354961017323478e-01 1.0518053707438138e+01 1.9390172486755333e+00 5 2 0
386 1 4.5075562953502502e+00 8.7297055294841410e+00 1.6359330997335522e+00 0 1 0
3271 1 6.9197620280230643e+00 8.7541360253689309e+00 2.8451672057677047e+00 -3 -1 1
1353 1 8.4523213665890964e+00 1.0945466597015685e+01 1.6407189464149095e+00 2 3 1
1502 1 1.0931555083421957e+01 1.1239213858129846e+01 2.8096302130543771e+00 2 1 1
3428 1 7.2140972776617474e-01 1.4931744143493491e+01 1.9228639922825725e+00 3 0 0
4855 1 3.1253697201086790e+00 1.5319080953992275e+01 2.7694370243209558e+00 -1 0 1
3012 1 4.3544520907759550e+00 1.3022075837974803e+01 1.7014095432251266e+00 0 3 1
1915 1 7.0255647064032063e+00 1.3289177926736910e+01 2.2754235102616951e+00 0 -4 0
5243 1 8.1541670945667946e+00 1.5781551495657682e+01 2.1060137622332049e+00 1 0 0
5247 1 1.0663952459835331e+01 1.5825015517792623e+01 2.5969195351149672e+00 0 -1 1
6388 1 3.1813680409105132e+00 1.6958481299284716e+00 5.2868995388801698e+00 4 3 1
6340 1 1.8065274775359488e+00 3.5333718266990459e+00 6.4446212638981955e+00 -1 1 0
1702 1 5.5676279612031294e+00 2.0924962567303012e+00 6.2669336567255147e+00 -2 0 0
6556 1 6.8317220733980299e+00 4.2702903578150133e+00 5.5511119037988710e+00 -2 1 1
140 1 1.0627598920746777e+01 1.9132486868569663e+00 5.6371102978361280e+00 -3 3 0
3500 1 9.3929638849057007e+00 4.3868195045390559e+00 6.2441449145264398e+00 0 1 0
6697 1 3.1344923035624053e+00 5.9332433028787444e+00 5.3626809998705580e+00 3 1 1
3173 1 5.4720191232691802e+00 6.4857405288356675e+00 6.6795914434120789e+00 3 0 0
6336 1 1.0656430719447783e+01 6.5374774799428108e+00 5.0643798276956140e+00 -2 4 1
358 1 1.9768628221842668e+00 8.3103270977847803e+00 6.4651206242207104e+00 1 1 0
1740 1 3.1431856907126940e+00 1.0419810858524965e+01 5.3221031004551582e+00 2 2 1
3162 1 6.6895804036675841e+00 8.7771078723523548e+00 5.4175491599874208e+00 -1 2 1
2982 1 5.4861415169484662e+00 1.0979509900434097e+01 6.3437482587021572e+00 3 2 1
237 1 9.3031976679965496e+00 8.8319306534767819e+00 5.9197629403634275e+00 1 -1 0
320 1 1.0501768717534464e+01 1.1221005346663439e+01 5.3200557534997968e+00 0 0 0
326 1 1.9780406927666612e+00 1.2646357083749111e+01 6.2990363753760450e+00 -2 -1 1
1776 1 3.1101109998797436e+00 1.5098154249347861e+01 5.5073306942474867e+00 -2 3 1
4681 1 6.9677039863378720e+00 1.3179430003776913e+01 5.3893710637376167e+00 0 -1 1
6712 1 5.5282190391686186e+00 1.5346060608935627e+01 6.4640885798944012e+00 1 -2 1
6462 1 9.3241103357206825e+00 1.3421699628452805e+01 6.5492174813995980e+00 0 0 1
3830 1 1.0815915175032556e+01 1.5325233408562557e+01 5.3964074777430335e+00 0 -1 0
6592 1 3.1948414959787570e+00 1.5671141559833439e+00 9.8431997931095658e+00 4 -2 1
2967 1 1.6737039910811466e+00 3.5800048143913896e+00 9.2045572265135878e+00 -2 1 0
384 1 5.7135530648211743e+00 2.1321656372177267e+00 9.1488503580464968e+00 5 1 0
4939 1 6.9561697999306729e+00 4.2536428991955306e+00 1.0258461290445853e+01 0 0 1
6682 1 1.0505588806035949e+01 2.2390377185114470e+00 1.0080671254938164e+01 -2 -1 1
1687 1 3.1402523242857305e+00 5.9334586771981561e+00 1.0254128011890582e+01 2 2 0
5657 1 1.9568902022427839e+00 8.1783128260815445e+00 9.4245253804401141e+00 2 1 1
6685 1 5.3419586070572089e+00 6.4129597949919663e+00 9.3503505947196128e+00 0 4 1
6343 1 9.4473164485280101e+00 4.6136848516577569e+00 8.9845708291654311e+00 -2 2 0
5665 1 1.0618763276310890e+01 6.6807332143676126e+00 1.0151273601386364e+01 -1 2 1
4809 1 3.2570198849229945e+00 1.0453439836739413e+01 1.0227954069494341e+01 4 3 1
3718 1 7.0855515245786194e+00 8.6600927566380452e+00 1.0047177155291292e+01 1 2 0
1435 1 5.6520454359947134e+00 1.0724639021920552e+01 9.0317233135199508e+00 0 6 1
3497 1 9.4694288205627402e+00 8.6147489644163748e+00 8.9090751460893447e+00 1 -2 1
6440 1 1.0683545712598402e+01 1.1028549486239719e+01 1.0033984948052659e+01 0 -1 1
3722 1 1.8646562456180051e+00 1.2908032106428120e+01 9.0760503539092934e+00 0 0 0
3622 1 2.8526214088169626e+00 1.5228787236729351e+01 9.9806731403830362e+00 3 1 0
5077 1 5.2977005394328094e+00 1.5468720893539780e+01 9.0487144954925736e+00 5 1 0
252 1 6.7197631821405439e+00 1.3118994812134929e+01 1.0008579671503568e+01 -1 0 0
398 1 9.2271591731032849e+00 1.3317752563351700e+01 9.2713751003659048e+00 1 3 0
537 1 1.0888218315230716e+01 1.5452900327731804e+01 9.8503725774706670e+00 2 -2 0
3154 1 1.2060527636954111e+01 1.3607098956757724e+01 1.8925304689091567e+00 2 1 1
218 1 1.2236941552285126e+01 8.7854177082279197e+00 1.9597554911643777e+00 2 -3 0
5279 1 1.9705392758714160e+00 3.7351120574597809e+00 1.3642929914503943e+01 0 -3 0
4725 1 4.9862047662328344e+00 6.1104889921852044e+00 2.3472787824628590e+01 3 0 1
1756 1 2.0788183415740948e+00 3.6127388294192024e+00 1.6189502164104034e+01 -1 3 0
3405 1 5.6894647879952061e+00 1.6738053482236819e+00 1.3722703317448103e+01 -2 1 0
6657 1 6.0264644802439920e+00 1.6753163585722384e+00 1.6228933193730633e+01 1 -1 1
5270 1 6.8129417667890211e+00 1.2896192240879845e+01 1.2782606515589981e+01 0 3 0
1585 1 3.3761735812019285e+00 5.9579843959339147e+00 1.2622951120425531e+01 2 2 1
3784 1 1.9669195027473081e+00 8.1115453627188323e+00 1.3368643434936192e+01 -1 4 0
6430 1 2.0798710847534716e+00 8.2644338275601807e+00 1.6290868126303806e+01 2 0 1
3689 1 9.3347498344038993e+00 1.3353614459519207e+01 2.0762895609296059e+01 -1 -1 0
2185 1 5.7682519587116952e+00 6.1445171977364073e+00 1.3634102073971443e+01 -1 1 0
3912 1 5.7667500758774990e+00 1.5136773539690676e+01 2.0551097655085254e+01 -1 -1 0
151 1 5.7465448995180184e+00 6.1061227658668491e+00 1.6197948192321007e+01 3 -1 0
1581 1 9.5403333281655591e+00 4.2487342552083787e+00 1.3959451458919652e+01 1 3 1
3025 1 3.3541209994459082e+00 1.6888881059759235e+00 1.2516692240229313e+01 0 5 1
3102 1 1.2268504448180922e+01 8.9252621590703001e+00 1.6966799519214760e+01 1 3 1
2216 1 5.6631652201702636e+00 1.0625512813987052e+01 1.3488524981827824e+01 2 0 0
1499 1 5.6531687344753143e+00 1.0709165234567385e+01 1.6224169550948481e+01 1 -1 1
2007 1 9.4810089947631671e+00 8.7304209736481599e+00 1.3656373645477558e+01 3 1 0
5482 1 1.1770618595797163e+01 8.9245473167527347e+00 1.9818911859285183e+01 1 -2 0
1943 1 1.3962388267443939e+00 1.2900129937364458e+01 1.3242735600604783e+01 1 2 0
6472 1 1.8077790650406325e+00 1.2645966915151412e+01 1.5985977668327768e+01 3 6 1
1935 1 7.0042972042957565e+00 8.4275583053706669e+00 1.2759236812214146e+01 1 3 0
3227 1 2.9804481783920753e+00 1.0680746274380715e+01 1.2708776233005052e+01 3 1 1
1317 1 5.3065481815694246e+00 1.5196445419859845e+01 1.3669275631143734e+01 -2 3 1
1864 1 5.2902050169694119e+00 1.5164787806710793e+01 1.6279696012884386e+01 1 -1 0
2198 1 9.4693869788590828e+00 1.3058551000468398e+01 1.3746048763384058e+01 -3 0 1
5008 1 9.5876866641393601e+00 1.3076708532526705e+01 1.6282056405841431e+01 3 2 1
3117 1 1.0944250739224794e+01 1.5110924493512842e+01 1.2599422817114602e+01 0 -1 1
5061 1 6.7820512812174683e-01 1.6731113935471986e+00 1.9590835820421667e+01 2 -1 0
6458 1 7.5007714587486141e-01 1.3972206437593446e+00 1.6995402138044561e+01 4 2 0
3685 1 8.2625065485444136e+00 2.1455624692637985e+00 1.9849534478116588e+01 0 -1 0
5127 1 8.4472501275334135e+00 1.7107236195411821e+00 1.7229777187677371e+01 -1 -1 0
2170 1 4.3877481453531573e+00 4.1327630187102793e+00 1.9457002983636848e+01 2 1 0
1483 1 1.0967577618687345e+00 5.9412034088902219e+00 1.6818327487071720e+01 1 0 0
4695 1 5.4941994095345603e-01 6.5968492665995919e+00 1.9703147047568294e+01 0 2 1
3509 1 4.6073749342234462e+00 3.7454471298893690e+00 1.7034610927145504e+01 -3 -1 0
6700 1 8.3333794631458318e+00 6.4648335303013615e+00 1.7314971868664202e+01 2 1 0
6429 1 9.6241050333084335e+00 4.2285765341478472e+00 1.6701974677832510e+01 -5 1 1
414 1 1.0705311846612863e+01 1.0925949292804283e+01 1.2851977886362862e+01 1 2 1
132 1 8.2519002840660409e+00 6.4017112151687918e+00 1.9892234940820167e+01 -2 -2 0
1323 1 1.0714160864629406e+01 6.4707264042621064e+00 1.3000677223311241e+01 2 4 1
4812 1 6.5923502719742921e-01 1.0486661793596298e+01 1.7049067038658457e+01 -2 -1 1
176 1 7.4301121491343258e-01 1.0856016539760446e+01 1.9851776417918845e+01 -2 1 0
2190 1 4.2313200984201753e+00 8.4179294406371046e+00 1.9615863430714462e+01 0 0 0
1880 1 4.7638418119566541e+00 8.4311561421777110e+00 1.7063162730946949e+01 1 4 0
5687 1 8.3553854637796743e+00 1.0745798377101107e+01 1.6953512400606581e+01 -1 6 1
1599 1 6.2718541425445817e+00 1.0139358443688879e+01 2.3306613213418274e+01 -1 1 1
3211 1 9.8369400348988183e+00 8.4170760900268444e+00 1.6179509793595493e+01 2 0 1
1528 1 8.3275013106014395e+00 1.0975510262144320e+01 1.9663078819530181e+01 1 -1 0
3586 1 4.5841449188551736e-01 1.4858146787947435e+01 1.6915236363038670e+01 0 0 0
5535 1 6.3925334431455894e-01 1.5092317341755423e+01 1.9780385345831686e+01 -2 -2 0
5195 1 4.2542939983340755e+00 1.2894067430385538e+01 1.6977052705040492e+01 -3 -2 0
1437 1 4.2667319006674536e+00 1.2694142323781113e+01 1.9901045980075029e+01 1 3 1
506 1 1.2547658509122115e+00 1.0279015669340572e+01 2.3614023329752587e+01 2 0 0
2259 1 7.9453457178920281e+00 1.5116751248082030e+01 1.7174936259490075e+01 0 2 1
10 1 1.0607274079705633e+01 1.3353562930629645e+01 2.3054810205460591e+01 -1 3 1
3801 1 8.0714056332161270e+00 1.5553772234534964e+01 1.9567056725314146e+01 -1 1 1
2118 1 1.6456530531242255e+00 3.9834171868446395e+00 2.0436926420530270e+01 1 3 1
3069 1 1.0533922689354709e+01 2.0166449931380357e+00 1.2927713969253173e+01 1 0 0
70 1 5.2246706890256034e+00 1.8874006369980234e+00 2.3367664073917673e+01 0 2 0
3195 1 5.7190066384367348e+00 1.8504442495697708e+00 2.0595700483837316e+01 -1 2 1
4975 1 1.9871219186660869e+00 8.4561082302561346e+00 2.0954986766200012e+01 2 3 1
1405 1 1.1709286452400711e+01 4.2339344174833506e+00 2.0033382740365276e+01 -1 2 1
6599 1 5.4427492387140095e+00 6.1557417414359268e+00 2.0690334399506458e+01 2 -2 1
1902 1 2.0131731048103618e+00 1.2851728140744076e+01 2.0890233727862096e+01 4 0 0
5117 1 9.3089871782543661e+00 4.1784205901482405e+00 2.1017777028233290e+01 0 2 0
3283 1 1.4057486632696226e+00 7.0555611381284034e-01 2.3331572628254197e+01 -2 1 1
4988 1 2.4043451143465391e+00 1.2742361666809641e+01 2.3502962536145088e+01 3 0 0
1576 1 8.9223873308372603e+00 4.3419500771685549e+00 2.3629985897786646e+01 3 1 0
3930 1 7.0977389102881965e+00 3.9690594730722637e+00 1.2964190927417771e+01 1 3 0
3137 1 1.1798077349926499e+01 1.2843015722671945e+01 1.9472694988373359e+01 1 -1 1
4802 1 5.5905523671679678e+00 1.0313372717630525e+01 2.0701686064801866e+01 0 2 1
3640 1 6.0992978854679807e+00 1.5004948348919264e+01 2.3443065285465256e+01 -1 0 0
3499 1 1.2058181491279081e+01 4.3012717531798454e+00 1.7480597066675333e+01 -1 -4 1
6524 1 9.2109789330742355e+00 8.7231106527485682e+00 2.0546251795582673e+01 1 0 1
416 1 2.7976880438781384e+00 1.4939894304787755e+01 1.2426390369693017e+01 1 0 1
6448 1 9.0089251091735569e+00 8.6768772954049265e+00 2.3200240686573100e+01 1 1 1
1476 1 1.6499172628706580e+00 3.4855627027605487e+00 2.3145187629021642e+01 1 0 1
1488 1 1.2118564629495092e+01 1.2815945922764787e+01 1.6898144074537434e+01 -1 -1 1
243 1 3.4567686050447817e+00 8.6169880072643803e+00 2.3896014871858373e+01 3 1 0
22 1 1.1975295352763739e+01 9.7570373758983919e-02 1.7354345256364642e+01 0 0 0
5519 1 1.1702886990857667e+01 4.4077244160017708e+00 2.4008300425338366e+01 -1 3 0
5425 1 7.7926019453416613e+00 1.9417650253157697e+00 2.3958674347820420e+01 0 1 0
616 2 0.0000000000000000e+00 2.8417180249513345e+00 2.6768185754015462e+01 0 0 0
618 2 0.0000000000000000e+00 0.0000000000000000e+00 2.6768185754015462e+01 0 0 0
620 2 1.2305000000000001e+00 7.1042950623783474e-01 2.6768185754015462e+01 0 0 0
627 2 1.2305000000000001e+00 2.1312885187134998e+00 2.6768185754015462e+01 0 0 0
629 2 2.4610000000000003e+00 2.8417180249513345e+00 2.6768185754015462e+01 0 0 0
631 2 2.4610000000000003e+00 0.0000000000000000e+00 2.6768185754015462e+01 0 0 0
633 2 3.6915000000000004e+00 7.1042950623783474e-01 2.6768185754015462e+01 0 0 0
648 2 3.6914999999999996e+00 2.1312885187134998e+00 2.6768185754015462e+01 0 0 0
1933 1 1.1531303279441438e+01 9.0613814340635486e+00 2.4222784746639022e+01 1 1 0
650 2 4.9220000000000006e+00 2.8417180249513332e+00 2.6768185754015462e+01 0 0 0
652 2 4.9220000000000006e+00 0.0000000000000000e+00 2.6768185754015462e+01 0 0 0
654 2 6.1524999999999999e+00 7.1042950623783407e-01 2.6768185754015462e+01 0 0 0
677 2 6.1524999999999999e+00 2.1312885187134989e+00 2.6768185754015462e+01 0 0 0
679 2 7.3829999999999991e+00 2.8417180249513345e+00 2.6768185754015462e+01 0 0 0
681 2 7.3829999999999991e+00 0.0000000000000000e+00 2.6768185754015462e+01 0 0 0
1338 1 6.9359597431042608e-01 1.4651369523727766e+01 2.4230047784594326e+01 -4 2 1
683 2 8.6134999999999984e+00 7.1042950623783407e-01 2.6768185754015462e+01 0 0 0
714 2 8.6134999999999984e+00 2.1312885187135002e+00 2.6768185754015462e+01 0 0 0
716 2 9.8440000000000012e+00 2.8417180249513332e+00 2.6768185754015462e+01 0 0 0
718 2 9.8440000000000012e+00 0.0000000000000000e+00 2.6768185754015462e+01 0 0 0
720 2 1.1074500000000002e+01 7.1042950623783330e-01 2.6768185754015462e+01 0 0 0
759 2 1.1074500000000002e+01 2.1312885187135002e+00 2.6768185754015462e+01 0 0 0
621 2 0.0000000000000000e+00 7.1042950623783341e+00 2.6768185754015462e+01 0 0 0
623 2 0.0000000000000000e+00 4.2625770374269996e+00 2.6768185754015462e+01 0 0 0
625 2 1.2305000000000001e+00 4.9730065436648339e+00 2.6768185754015462e+01 0 0 0
640 2 1.2305000000000001e+00 6.3938655561404980e+00 2.6768185754015462e+01 0 0 0
642 2 2.4610000000000003e+00 7.1042950623783341e+00 2.6768185754015462e+01 0 0 0
644 2 2.4610000000000003e+00 4.2625770374269996e+00 2.6768185754015462e+01 0 0 0
646 2 3.6914999999999996e+00 4.9730065436648339e+00 2.6768185754015462e+01 0 0 0
669 2 3.6914999999999996e+00 6.3938655561404980e+00 2.6768185754015462e+01 0 0 0
142 1 8.7310763547546397e+00 1.4939446629715977e+01 2.4158098321069652e+01 1 2 1
671 2 4.9220000000000006e+00 7.1042950623783341e+00 2.6768185754015462e+01 0 0 0
673 2 4.9220000000000006e+00 4.2625770374269978e+00 2.6768185754015462e+01 0 0 0
675 2 6.1524999999999999e+00 4.9730065436648339e+00 2.6768185754015462e+01 0 0 0
706 2 6.1524999999999999e+00 6.3938655561404980e+00 2.6768185754015462e+01 0 0 0
708 2 7.3830000000000009e+00 7.1042950623783341e+00 2.6768185754015462e+01 0 0 0
710 2 7.3829999999999991e+00 4.2625770374269996e+00 2.6768185754015462e+01 0 0 0
591 1 7.6506372481111997e+00 6.3001313213327022e+00 2.4525331759862613e+01 -2 1 1
712 2 8.6135000000000002e+00 4.9730065436648339e+00 2.6768185754015462e+01 0 0 0
751 2 8.6135000000000002e+00 6.3938655561404980e+00 2.6768185754015462e+01 0 0 0
753 2 9.8440000000000012e+00 7.1042950623783341e+00 2.6768185754015462e+01 0 0 0
755 2 9.8440000000000012e+00 4.2625770374270004e+00 2.6768185754015462e+01 0 0 0
757 2 1.1074500000000002e+01 4.9730065436648339e+00 2.6768185754015462e+01 0 0 0
798 2 1.1074500000000002e+01 6.3938655561404980e+00 2.6768185754015462e+01 0 0 0
1058 2 1.1074500000000002e+01 1.3498160618518829e+01 3.3293814245966288e+01 0 0 0
634 2 0.0000000000000000e+00 1.1366872099805333e+01 2.6768185754015462e+01 0 0 0
636 2 0.0000000000000000e+00 8.5251540748539991e+00 2.6768185754015462e+01 0 0 0
638 2 1.2305000000000001e+00 9.2355835810918343e+00 2.6768185754015462e+01 0 0 0
661 2 1.2305000000000001e+00 1.0656442593567498e+01 2.6768185754015462e+01 0 0 0
663 2 2.4610000000000003e+00 1.1366872099805333e+01 2.6768185754015462e+01 0 0 0
665 2 2.4610000000000003e+00 8.5251540748539991e+00 2.6768185754015462e+01 0 0 0
667 2 3.6915000000000004e+00 9.2355835810918343e+00 2.6768185754015462e+01 0 0 0
698 2 3.6914999999999996e+00 1.0656442593567499e+01 2.6768185754015462e+01 0 0 0
700 2 4.9220000000000006e+00 1.1366872099805333e+01 2.6768185754015462e+01 0 0 0
702 2 4.9220000000000006e+00 8.5251540748539991e+00 2.6768185754015462e+01 0 0 0
704 2 6.1524999999999999e+00 9.2355835810918343e+00 2.6768185754015462e+01 0 0 0
743 2 6.1524999999999999e+00 1.0656442593567499e+01 2.6768185754015462e+01 0 0 0
745 2 7.3829999999999991e+00 1.1366872099805333e+01 2.6768185754015462e+01 0 0 0
747 2 7.3830000000000009e+00 8.5251540748539991e+00 2.6768185754015462e+01 0 0 0
749 2 8.6134999999999984e+00 9.2355835810918343e+00 2.6768185754015462e+01 0 0 0
790 2 8.6134999999999984e+00 1.0656442593567498e+01 2.6768185754015462e+01 0 0 0
792 2 9.8440000000000012e+00 1.1366872099805333e+01 2.6768185754015462e+01 0 0 0
794 2 9.8440000000000012e+00 8.5251540748539956e+00 2.6768185754015462e+01 0 0 0
796 2 1.1074500000000002e+01 9.2355835810918343e+00 2.6768185754015462e+01 0 0 0
837 2 1.1074500000000002e+01 1.0656442593567498e+01 2.6768185754015462e+01 0 0 0
839 2 1.2304999999999998e+01 1.1366872099805333e+01 2.6768185754015462e+01 0 0 0
1008 2 4.9220000000000006e+00 1.5629449137232333e+01 3.3293814245966288e+01 0 0 0
655 2 0.0000000000000000e+00 1.5629449137232333e+01 2.6768185754015462e+01 0 0 0
657 2 0.0000000000000000e+00 1.2787731112280996e+01 2.6768185754015462e+01 0 0 0
659 2 1.2305000000000001e+00 1.3498160618518829e+01 2.6768185754015462e+01 0 0 0
690 2 1.2305000000000001e+00 1.4919019630994494e+01 2.6768185754015462e+01 0 0 0
692 2 2.4610000000000003e+00 1.5629449137232328e+01 2.6768185754015462e+01 0 0 0
694 2 2.4610000000000003e+00 1.2787731112280996e+01 2.6768185754015462e+01 0 0 0
696 2 3.6915000000000004e+00 1.3498160618518829e+01 2.6768185754015462e+01 0 0 0
735 2 3.6915000000000004e+00 1.4919019630994494e+01 2.6768185754015462e+01 0 0 0
737 2 4.9220000000000006e+00 1.5629449137232333e+01 2.6768185754015462e+01 0 0 0
739 2 4.9220000000000006e+00 1.2787731112280996e+01 2.6768185754015462e+01 0 0 0
741 2 6.1524999999999990e+00 1.3498160618518829e+01 2.6768185754015462e+01 0 0 0
782 2 6.1524999999999990e+00 1.4919019630994494e+01 2.6768185754015462e+01 0 0 0
784 2 7.3829999999999991e+00 1.5629449137232333e+01 2.6768185754015462e+01 0 0 0
786 2 7.3829999999999991e+00 1.2787731112280996e+01 2.6768185754015462e+01 0 0 0
788 2 8.6135000000000002e+00 1.3498160618518835e+01 2.6768185754015462e+01 0 0 0
829 2 8.6135000000000002e+00 1.4919019630994494e+01 2.6768185754015462e+01 0 0 0
831 2 9.8440000000000012e+00 1.5629449137232328e+01 2.6768185754015462e+01 0 0 0
833 2 9.8440000000000012e+00 1.2787731112280996e+01 2.6768185754015462e+01 0 0 0
835 2 1.1074500000000002e+01 1.3498160618518829e+01 2.6768185754015462e+01 0 0 0
871 2 1.1074500000000002e+01 1.4919019630994494e+01 2.6768185754015462e+01 0 0 0
1034 2 8.6135000000000002e+00 1.3498160618518835e+01 3.3293814245966288e+01 0 0 0
617 2 0.0000000000000000e+00 1.4208590124756650e+00 3.0031000000003740e+01 0 0 0
619 2 0.0000000000000000e+00 0.0000000000000000e+00 3.0031000000003740e+01 0 0 0
626 2 1.2305000000000001e+00 3.5521475311891644e+00 3.0031000000003740e+01 0 0 0
628 2 1.2305000000000001e+00 2.1312885187134998e+00 3.0031000000003740e+01 0 0 0
630 2 2.4610000000000003e+00 1.4208590124756650e+00 3.0031000000003740e+01 0 0 0
632 2 2.4610000000000003e+00 0.0000000000000000e+00 3.0031000000003740e+01 0 0 0
647 2 3.6914999999999996e+00 3.5521475311891644e+00 3.0031000000003740e+01 0 0 0
649 2 3.6914999999999996e+00 2.1312885187134998e+00 3.0031000000003740e+01 0 0 0
651 2 4.9220000000000006e+00 1.4208590124756650e+00 3.0031000000003740e+01 0 0 0
653 2 4.9220000000000006e+00 0.0000000000000000e+00 3.0031000000003740e+01 0 0 0
676 2 6.1524999999999999e+00 3.5521475311891644e+00 3.0031000000003740e+01 0 0 0
678 2 6.1524999999999999e+00 2.1312885187134989e+00 3.0031000000003740e+01 0 0 0
680 2 7.3829999999999991e+00 1.4208590124756659e+00 3.0031000000003740e+01 0 0 0
682 2 7.3829999999999991e+00 0.0000000000000000e+00 3.0031000000003740e+01 0 0 0
713 2 8.6134999999999984e+00 3.5521475311891657e+00 3.0031000000003740e+01 0 0 0
715 2 8.6134999999999984e+00 2.1312885187135002e+00 3.0031000000003740e+01 0 0 0
717 2 9.8440000000000012e+00 1.4208590124756659e+00 3.0031000000003740e+01 0 0 0
719 2 9.8440000000000012e+00 0.0000000000000000e+00 3.0031000000003740e+01 0 0 0
758 2 1.1074500000000002e+01 3.5521475311891644e+00 3.0031000000003740e+01 0 0 0
760 2 1.1074500000000002e+01 2.1312885187135002e+00 3.0031000000003740e+01 0 0 0
622 2 0.0000000000000000e+00 5.6834360499026637e+00 3.0031000000003740e+01 0 0 0
624 2 0.0000000000000000e+00 4.2625770374269996e+00 3.0031000000003740e+01 0 0 0
639 2 1.2305000000000001e+00 7.8147245686161639e+00 3.0031000000003740e+01 0 0 0
641 2 1.2305000000000001e+00 6.3938655561404980e+00 3.0031000000003740e+01 0 0 0
643 2 2.4610000000000003e+00 5.6834360499026637e+00 3.0031000000003740e+01 0 0 0
645 2 2.4610000000000003e+00 4.2625770374269996e+00 3.0031000000003740e+01 0 0 0
668 2 3.6914999999999996e+00 7.8147245686161639e+00 3.0031000000003740e+01 0 0 0
670 2 3.6914999999999996e+00 6.3938655561404980e+00 3.0031000000003740e+01 0 0 0
672 2 4.9220000000000006e+00 5.6834360499026637e+00 3.0031000000003740e+01 0 0 0
674 2 4.9220000000000006e+00 4.2625770374269978e+00 3.0031000000003740e+01 0 0 0
705 2 6.1524999999999999e+00 7.8147245686161639e+00 3.0031000000003740e+01 0 0 0
707 2 6.1524999999999999e+00 6.3938655561404980e+00 3.0031000000003740e+01 0 0 0
709 2 7.3829999999999991e+00 5.6834360499026637e+00 3.0031000000003740e+01 0 0 0
711 2 7.3829999999999991e+00 4.2625770374269996e+00 3.0031000000003740e+01 0 0 0
750 2 8.6135000000000002e+00 7.8147245686161639e+00 3.0031000000003740e+01 0 0 0
752 2 8.6135000000000002e+00 6.3938655561404980e+00 3.0031000000003740e+01 0 0 0
754 2 9.8440000000000012e+00 5.6834360499026637e+00 3.0031000000003740e+01 0 0 0
756 2 9.8440000000000012e+00 4.2625770374270004e+00 3.0031000000003740e+01 0 0 0
797 2 1.1074500000000002e+01 7.8147245686161639e+00 3.0031000000003740e+01 0 0 0
799 2 1.1074500000000002e+01 6.3938655561404980e+00 3.0031000000003740e+01 0 0 0
635 2 0.0000000000000000e+00 9.9460130873296642e+00 3.0031000000003740e+01 0 0 0
637 2 0.0000000000000000e+00 8.5251540748539991e+00 3.0031000000003740e+01 0 0 0
660 2 1.2305000000000001e+00 1.2077301606043163e+01 3.0031000000003740e+01 0 0 0
662 2 1.2305000000000001e+00 1.0656442593567498e+01 3.0031000000003740e+01 0 0 0
664 2 2.4610000000000003e+00 9.9460130873296642e+00 3.0031000000003740e+01 0 0 0
666 2 2.4610000000000003e+00 8.5251540748539991e+00 3.0031000000003740e+01 0 0 0
697 2 3.6914999999999996e+00 1.2077301606043163e+01 3.0031000000003740e+01 0 0 0
699 2 3.6914999999999996e+00 1.0656442593567499e+01 3.0031000000003740e+01 0 0 0
701 2 4.9220000000000006e+00 9.9460130873296642e+00 3.0031000000003740e+01 0 0 0
703 2 4.9220000000000006e+00 8.5251540748539991e+00 3.0031000000003740e+01 0 0 0
742 2 6.1524999999999999e+00 1.2077301606043163e+01 3.0031000000003740e+01 0 0 0
744 2 6.1524999999999999e+00 1.0656442593567499e+01 3.0031000000003740e+01 0 0 0
746 2 7.3830000000000009e+00 9.9460130873296642e+00 3.0031000000003740e+01 0 0 0
748 2 7.3830000000000009e+00 8.5251540748539991e+00 3.0031000000003740e+01 0 0 0
789 2 8.6135000000000002e+00 1.2077301606043163e+01 3.0031000000003740e+01 0 0 0
791 2 8.6134999999999984e+00 1.0656442593567498e+01 3.0031000000003740e+01 0 0 0
793 2 9.8440000000000012e+00 9.9460130873296642e+00 3.0031000000003740e+01 0 0 0
795 2 9.8440000000000012e+00 8.5251540748539956e+00 3.0031000000003740e+01 0 0 0
836 2 1.1074500000000002e+01 1.2077301606043163e+01 3.0031000000003740e+01 0 0 0
838 2 1.1074500000000002e+01 1.0656442593567498e+01 3.0031000000003740e+01 0 0 0
656 2 0.0000000000000000e+00 1.4208590124756663e+01 3.0031000000003740e+01 0 0 0
658 2 0.0000000000000000e+00 1.2787731112280996e+01 3.0031000000003740e+01 0 0 0
691 2 1.2305000000000001e+00 1.4919019630994494e+01 3.0031000000003740e+01 0 0 0
693 2 2.4610000000000003e+00 1.4208590124756663e+01 3.0031000000003740e+01 0 0 0
695 2 2.4610000000000003e+00 1.2787731112280996e+01 3.0031000000003740e+01 0 0 0
736 2 3.6915000000000004e+00 1.4919019630994494e+01 3.0031000000003740e+01 0 0 0
738 2 4.9220000000000006e+00 1.4208590124756663e+01 3.0031000000003740e+01 0 0 0
740 2 4.9220000000000006e+00 1.2787731112280996e+01 3.0031000000003740e+01 0 0 0
783 2 6.1524999999999990e+00 1.4919019630994494e+01 3.0031000000003740e+01 0 0 0
785 2 7.3830000000000009e+00 1.4208590124756663e+01 3.0031000000003740e+01 0 0 0
787 2 7.3829999999999991e+00 1.2787731112280996e+01 3.0031000000003740e+01 0 0 0
832 2 9.8440000000000012e+00 1.4208590124756663e+01 3.0031000000003740e+01 0 0 0
830 2 8.6135000000000002e+00 1.4919019630994494e+01 3.0031000000003740e+01 0 0 0
870 2 1.1074500000000002e+01 1.6339878643470161e+01 3.0031000000003740e+01 0 0 0
872 2 1.1074500000000002e+01 1.4919019630994494e+01 3.0031000000003740e+01 0 0 0
834 2 9.8440000000000012e+00 1.2787731112280996e+01 3.0031000000003740e+01 0 0 0
874 2 1.2304999999999998e+01 1.4208590124756658e+01 3.0031000000003740e+01 0 0 0
945 2 0.0000000000000000e+00 2.8417180249513345e+00 3.3293814245966288e+01 0 0 0
946 2 0.0000000000000000e+00 0.0000000000000000e+00 3.3293814245966288e+01 0 0 0
947 2 1.2305000000000001e+00 7.1042950623783474e-01 3.3293814245966288e+01 0 0 0
951 2 1.2305000000000001e+00 2.1312885187134998e+00 3.3293814245966288e+01 0 0 0
952 2 2.4610000000000003e+00 2.8417180249513345e+00 3.3293814245966288e+01 0 0 0
953 2 2.4610000000000003e+00 0.0000000000000000e+00 3.3293814245966288e+01 0 0 0
954 2 3.6915000000000004e+00 7.1042950623783474e-01 3.3293814245966288e+01 0 0 0
962 2 3.6914999999999996e+00 2.1312885187134998e+00 3.3293814245966288e+01 0 0 0
1032 2 7.3829999999999991e+00 1.5629449137232333e+01 3.3293814245966288e+01 0 0 0
963 2 4.9220000000000006e+00 2.8417180249513332e+00 3.3293814245966288e+01 0 0 0
964 2 4.9220000000000006e+00 0.0000000000000000e+00 3.3293814245966288e+01 0 0 0
965 2 6.1524999999999999e+00 7.1042950623783407e-01 3.3293814245966288e+01 0 0 0
977 2 6.1524999999999999e+00 2.1312885187134989e+00 3.3293814245966288e+01 0 0 0
978 2 7.3829999999999991e+00 2.8417180249513345e+00 3.3293814245966288e+01 0 0 0
979 2 7.3829999999999991e+00 0.0000000000000000e+00 3.3293814245966288e+01 0 0 0
980 2 8.6134999999999984e+00 7.1042950623783407e-01 3.3293814245966288e+01 0 0 0
996 2 8.6134999999999984e+00 2.1312885187135002e+00 3.3293814245966288e+01 0 0 0
997 2 9.8440000000000012e+00 2.8417180249513332e+00 3.3293814245966288e+01 0 0 0
998 2 9.8440000000000012e+00 0.0000000000000000e+00 3.3293814245966288e+01 0 0 0
999 2 1.1074500000000002e+01 7.1042950623783330e-01 3.3293814245966288e+01 0 0 0
1019 2 1.1074500000000002e+01 2.1312885187135002e+00 3.3293814245966288e+01 0 0 0
1057 2 9.8440000000000012e+00 1.2787731112280996e+01 3.3293814245966288e+01 0 0 0
1055 2 8.6135000000000002e+00 1.4919019630994494e+01 3.3293814245966288e+01 0 0 0
948 2 0.0000000000000000e+00 7.1042950623783341e+00 3.3293814245966288e+01 0 0 0
949 2 0.0000000000000000e+00 4.2625770374269996e+00 3.3293814245966288e+01 0 0 0
950 2 1.2305000000000001e+00 4.9730065436648339e+00 3.3293814245966288e+01 0 0 0
958 2 1.2305000000000001e+00 6.3938655561404980e+00 3.3293814245966288e+01 0 0 0
959 2 2.4610000000000003e+00 7.1042950623783341e+00 3.3293814245966288e+01 0 0 0
960 2 2.4610000000000003e+00 4.2625770374269996e+00 3.3293814245966288e+01 0 0 0
961 2 3.6914999999999996e+00 4.9730065436648339e+00 3.3293814245966288e+01 0 0 0
973 2 3.6914999999999996e+00 6.3938655561404980e+00 3.3293814245966288e+01 0 0 0
974 2 4.9220000000000006e+00 7.1042950623783341e+00 3.3293814245966288e+01 0 0 0
975 2 4.9220000000000006e+00 4.2625770374269978e+00 3.3293814245966288e+01 0 0 0
976 2 6.1524999999999999e+00 4.9730065436648339e+00 3.3293814245966288e+01 0 0 0
992 2 6.1524999999999999e+00 6.3938655561404980e+00 3.3293814245966288e+01 0 0 0
993 2 7.3830000000000009e+00 7.1042950623783341e+00 3.3293814245966288e+01 0 0 0
994 2 7.3829999999999991e+00 4.2625770374269996e+00 3.3293814245966288e+01 0 0 0
1056 2 9.8440000000000012e+00 1.5629449137232328e+01 3.3293814245966288e+01 0 0 0
995 2 8.6135000000000002e+00 4.9730065436648339e+00 3.3293814245966288e+01 0 0 0
1015 2 8.6135000000000002e+00 6.3938655561404980e+00 3.3293814245966288e+01 0 0 0
1016 2 9.8440000000000012e+00 7.1042950623783341e+00 3.3293814245966288e+01 0 0 0
1017 2 9.8440000000000012e+00 4.2625770374270004e+00 3.3293814245966288e+01 0 0 0
1018 2 1.1074500000000002e+01 4.9730065436648339e+00 3.3293814245966288e+01 0 0 0
1039 2 1.1074500000000002e+01 6.3938655561404980e+00 3.3293814245966288e+01 0 0 0
955 2 0.0000000000000000e+00 1.1366872099805333e+01 3.3293814245966288e+01 0 0 0
956 2 0.0000000000000000e+00 8.5251540748539991e+00 3.3293814245966288e+01 0 0 0
957 2 1.2305000000000001e+00 9.2355835810918343e+00 3.3293814245966288e+01 0 0 0