LAMMPS data file via write_data, version 16 Mar 2018, timestep = 100000

6736 atoms
2 atom types

0.0000000000000000e+00 4.9219999999999999e+01 xlo xhi
0.0000000000000000e+00 4.9019635930410494e+01 ylo yhi
9.1527403577341815e-01 5.9146725964225688e+01 zlo zhi

Masses

1 18.015
2 12.01

Atoms # atomic

4950 1 1.9750022056336289e+00 3.3037820023594833e+00 1.3115414991357923e+00 1 1 1
516 1 9.0659743148107630e-01 3.0396990486450872e+00 3.9094532479813187e+00 0 0 0
362 1 1.9407604028877021e+00 5.8221042185826177e-01 1.0589543108091910e+00 0 1 1
3722 1 5.7094903459805293e+00 2.1652312430882863e+00 2.9560334469453133e+00 0 0 0
293 1 8.3187527149087721e+00 2.3523728777700770e+00 3.2791058014919972e+00 0 0 0
2079 1 1.2231877805287056e+01 2.4720110842845977e+00 4.6625851091656161e+00 0 1 0
3308 1 1.0490108906697381e+01 3.5929162817700924e+00 2.6663127068628043e+00 0 -1 1
5331 1 1.1196572008361052e+00 6.8566384535715379e+00 1.0984554720085919e+00 0 1 0
6512 1 4.1486014842820058e+00 4.4215571518907026e+00 2.5982157890132989e+00 1 1 1
3085 1 7.0433708181111330e+00 5.5494243887070409e+00 2.2381538256334106e+00 0 1 1
21 1 1.0332169723733413e+01 6.2444791955666537e+00 2.3514269496782516e+00 0 0 0
1474 1 3.0945551947090295e+00 8.7714541700692354e+00 4.1801007002216188e+00 0 0 1
3108 1 7.1758839622258785e-01 1.1259857757760374e+01 2.9777657660255215e+00 1 0 1
4664 1 4.1520232598896953e+00 9.3561222712931222e+00 1.6913220959079884e+00 0 0 1
4693 1 6.7866627058662825e+00 8.5216829857096617e+00 2.1522267240323925e+00 1 1 1
2122 1 6.6443688734244581e+00 1.1524016945341252e+01 9.4636696431438194e-01 1 0 0
3109 1 9.3969888034497995e+00 8.8966612568498427e+00 4.7311807350485235e+00 0 1 1
3046 1 9.5851004996400917e+00 1.0439659337217012e+01 2.3171737978916522e+00 0 1 1
1701 1 2.6795810152733028e+00 1.2934169729236901e+01 3.1614906012913195e+00 0 0 1
2090 1 5.3542925406428692e+00 1.2367291424051153e+01 3.4417433676045803e+00 0 0 0
298 1 6.8561735667413153e+00 1.4372943582873155e+01 3.7176367524715217e+00 0 0 0
3290 1 1.2182519192246126e+01 1.4068482501426372e+01 1.0081252062165900e+00 0 1 0
290 1 9.6409490351361793e+00 1.3030522780485175e+01 2.7721840692362822e+00 1 0 0
2035 1 6.0855953602655954e-01 1.7282406215752306e+00 8.1602042722430870e+00 1 1 0
85 1 1.5430555961919199e+00 9.1588373026194980e-01 5.6112890729872476e+00 0 1 0
3368 1 5.7322454440329027e+00 1.1070664795927907e+00 5.7622598770707318e+00 1 0 1
3487 1 4.5465411966864169e+00 2.6916829218304379e+00 7.6790296798388198e+00 1 0 0
5531 1 7.0949794448808978e+00 3.7379581526964634e+00 8.3227741243258588e+00 0 1 0
308 1 8.3645245739451273e+00 4.0790256402090277e+00 5.7858859901280129e+00 1 0 0
6394 1 1.0971788082725160e+01 3.4740942098747363e-01 6.1834818990800224e+00 0 0 1
5111 1 9.9164878988487786e+00 1.0868926331410158e+00 8.5519381873331373e+00 1 1 0
1648 1 3.8941909671552439e+00 4.4068646639912545e+00 5.5240778960754211e+00 0 1 1
1444 1 3.7473783424426625e+00 7.1972593757972918e+00 6.6007163655379069e+00 0 0 1
3551 1 8.2973403514935717e-01 5.3192193272572652e+00 5.6958299976516278e+00 1 0 0
489 1 6.2149934763691919e+00 6.3743433535477640e+00 8.3499850977558978e+00 0 0 0
1919 1 6.5835810818675125e+00 5.6793252050960188e+00 4.9542998226510155e+00 0 0 1
90 1 1.0736561097130496e+01 6.7897650971839898e+00 4.8988294110530806e+00 0 0 0
3323 1 1.0381534076015441e+01 5.2560374657654716e+00 7.3139579343139109e+00 0 1 1
3117 1 3.1806088054889786e-01 9.1938321944543802e+00 5.0705392943801773e+00 0 0 1
1966 1 6.8915654689288308e+00 8.5024074898516169e+00 5.1314441503884503e+00 0 0 1
1986 1 4.6914178590170348e+00 1.0457436900015649e+01 5.3077696146786124e+00 0 0 0
6488 1 8.1022905184463951e+00 8.3020415087545683e+00 8.3206036986260905e+00 0 1 1
142 1 4.4565578605446667e+00 1.1575207031165549e+01 7.8022008310643312e+00 0 1 1
5526 1 7.9846787463970967e+00 1.1037078840025689e+01 7.6943293454178612e+00 0 1 1
1556 1 1.2052626222912719e+01 1.0722366387005332e+01 8.2483976072447209e+00 0 0 1
3863 1 1.0733742046177582e+01 1.1136729650467528e+01 6.0117428356028881e+00 -1 0 0
2065 1 2.6837286693447377e+00 1.5506095512366032e+01 6.7062157944834295e+00 1 0 0
1958 1 9.8198393823688301e-01 1.3944054368791949e+01 5.2921448148688386e+00 1 0 0
505 1 4.9300006688306075e+00 1.4008347888780573e+01 7.6568513929214328e+00 0 0 0
5274 1 7.4180905353789246e+00 1.5150739855692011e+01 6.8477191922996852e+00 1 0 1
1763 1 1.1406160893092117e+01 1.5060046723780109e+01 6.5098122714973590e+00 0 1 1
3523 1 9.3955483510646918e+00 1.3557006686855752e+01 5.6647501740471125e+00 0 0 0
1961 1 2.4822959392664847e+00 3.5579846263131003e+00 9.4163318736709964e+00 -1 0 0
1722 1 5.6154102008507034e-01 2.4695864129385310e+00 1.1669790497198161e+01 0 1 0
4697 1 6.8215516598878274e+00 1.6339648381480374e+00 1.0315950893484391e+01 1 0 1
2016 1 5.2615997851677303e+00 3.8269053896624827e+00 1.1219770410020374e+01 0 1 0
3207 1 4.2000484154202553e+00 3.1915770594059745e-01 9.9827368465568433e+00 1 1 1
1602 1 9.4359048150206029e+00 4.0584270344910456e+00 9.9215131061633777e+00 0 0 0
2054 1 1.1724886585576542e+01 2.8638933891434806e+00 1.2024269511424558e+01 0 0 0
2216 1 8.5087792869607757e+00 3.7934106761645486e-01 1.2250954770025885e+01 0 1 0
123 1 3.5585562765567675e+00 6.7557598157607064e+00 1.2532283471941930e+01 0 0 0
3244 1 1.3911722815718581e+00 5.6668376220622658e+00 1.0692238410124174e+01 0 1 1
1844 1 2.9243899586716520e+00 7.5314947084653774e+00 9.3673266406214566e+00 1 0 0
138 1 7.9975791574630168e+00 4.8087768228328667e+00 1.2113582539431466e+01 0 0 0
3588 1 6.0211092120870964e+00 6.7797880879219008e+00 1.0849824959121293e+01 0 0 0
3281 1 1.0731537013243654e+01 7.9855734041959181e+00 8.8796699143880780e+00 0 1 1
62 1 2.6031121180254075e+00 1.0993747052916722e+01 1.1778867344649244e+01 0 -1 0
1974 1 2.2455009963869990e+00 1.0199286149689160e+01 9.3026561198270503e+00 0 0 0
3339 1 5.3084587696724537e+00 1.2250005892681152e+01 1.1591902523527349e+01 0 0 0
5127 1 7.4592001888956512e+00 8.8987616898329485e+00 1.1308737717194287e+01 1 0 0
1885 1 7.9250211564676531e+00 1.1596085010175365e+01 1.0349736710431667e+01 0 0 0
291 1 1.1736721215582419e+01 1.2198590314991952e+01 1.0860492627368519e+01 1 1 0
285 1 1.0198076106844921e+01 8.1998628693189062e+00 1.1752440651766353e+01 0 0 0
3382 1 6.5022776973153951e+00 1.6141521283773113e+01 1.0990606160280226e+01 0 0 1
3691 1 4.5771437174204390e+00 1.4500831590475970e+01 1.0155324029042669e+01 -1 0 0
1313 1 9.6647677713785693e+00 1.3261679340941754e+01 1.1718062627058837e+01 0 0 0
281 1 1.0584527896033009e+01 1.5830258609652914e+01 1.1803277236103513e+01 -1 0 0
1549 1 1.1780648935536986e+01 1.4676557910722293e+01 9.2727419145470638e+00 0 1 1
2219 1 8.5664294353193462e+00 1.6008611717926950e+01 9.3755239990109480e+00 0 0 0
1988 1 3.2069196940392977e+00 8.7321534030719350e-01 1.4118787969375502e+01 0 0 1
5271 1 4.3337901468846102e-01 5.0389107883080797e-01 1.4951096121939271e+01 1 1 0
5024 1 4.2312899898770562e+00 3.6345240234091598e+00 1.3713496603454134e+01 1 0 1
1888 1 6.7329374454675399e+00 3.8207780712860124e+00 1.5025357005377909e+01 0 0 1
5222 1 6.8780364213335714e+00 1.0429320994686488e+00 1.5514059641299765e+01 0 -1 0
3573 1 1.0153138943526670e+01 3.2356061183944358e+00 1.6165341467654915e+01 0 0 0
335 1 9.2121866852771248e+00 2.7101966909802213e+00 1.3639293232069939e+01 0 0 0
1905 1 1.7531934864805694e+00 5.1993897507571356e+00 1.4337518785932257e+01 0 0 1
545 1 6.6918786650721565e+00 7.1872180171920892e+00 1.5405962965023766e+01 0 0 0
3189 1 9.5430613479830200e+00 6.3691032169403394e+00 1.3953386784343962e+01 0 0 0
3645 1 9.2857549311348020e+00 8.1291303066057985e+00 1.6388538731987818e+01 0 0 0
3832 1 1.1790020347583344e+01 4.8859729792261515e+00 1.4524045463420300e+01 0 1 0
1716 1 2.3460260024798281e+00 8.6101704407804487e+00 1.6366711324668607e+01 0 0 0
6360 1 3.1426460593936851e+00 8.9858165489743058e+00 1.3727643980162680e+01 0 1 1
487 1 5.8600064310280606e+00 9.3378157791758944e+00 1.3695507194580017e+01 0 0 0
1424 1 7.8147998528373028e+00 1.1162036683961468e+01 1.4625893739537519e+01 0 0 1
5563 1 5.0037935192785445e+00 1.1019770173435260e+01 1.6352959793424272e+01 1 0 0
2115 1 1.0147283750759806e+01 1.0165245692971272e+01 1.5165964940794771e+01 0 0 1
198 1 1.1660401216350367e+01 1.0068614961192505e+01 1.2954967180375425e+01 0 0 1
201 1 1.8484686840143936e+00 1.6217402746898149e+01 1.4885920369991442e+01 0 -1 0
1772 1 1.5990103779349045e+00 1.3419373593072326e+01 1.5167529118769606e+01 1 0 0
2130 1 4.7075522270537568e-01 1.2306511691610730e+01 1.2941295814381307e+01 0 1 1
5318 1 4.7160369993432711e+00 1.3091585521169305e+01 1.4416542856672466e+01 0 1 0
5415 1 8.1840211818447717e+00 1.3814576068121742e+01 1.4335517622688611e+01 1 0 0
358 1 6.8091839811635326e+00 1.6111606612886671e+01 1.3670431436147604e+01 0 0 0
2095 1 1.0781603454548611e+01 1.4069005544940026e+01 1.5746686579007289e+01 0 -1 0
196 1 9.5439436277887091e-01 1.8744751708530352e+00 1.7740916683600471e+01 1 0 0
5150 1 3.2627368967171795e+00 3.5683333987106995e+00 1.7806403893806660e+01 0 0 1
2197 1 7.8742460491850101e+00 3.4791779551447775e+00 1.8041086016793070e+01 0 1 0
5454 1 7.9383599800908540e+00 1.7052947819698407e+00 2.0239369308205692e+01 1 1 0
1682 1 4.5191516183532841e+00 9.5914335309843246e-01 1.6837968321011417e+01 1 0 1
5676 1 1.1450732066194686e+01 3.4559343162423622e-02 1.8442488791257286e+01 0 0 0
6541 1 2.0916813291758363e+00 5.6936039071517106e+00 1.6684394806166004e+01 1 1 1
1335 1 3.3167541189921419e+00 7.5607767955889846e+00 2.0147205927502213e+01 0 0 0
5113 1 5.8123113606598329e+00 5.1859043264534215e+00 1.7618525490805663e+01 0 0 0
84 1 5.6842836638313399e+00 7.4649679595339951e+00 1.9015074712549939e+01 0 0 1
4761 1 9.2645372847269218e+00 5.3458943397982948e+00 1.9531652012540164e+01 1 0 1
127 1 1.0904549706399262e+01 6.9340784349856994e+00 1.8458489708878350e+01 0 1 0
204 1 2.2462939644382449e+00 1.1191237796988949e+01 1.7313072344037039e+01 1 0 1
3672 1 1.4258058960614424e+00 9.5379580289211461e+00 2.0133353630933691e+01 1 0 0
341 1 7.1450938061330023e+00 9.6577530228281070e+00 1.8001383053786988e+01 1 0 0
5400 1 9.3527816279635108e+00 1.1821064715930961e+01 1.9428666102193112e+01 0 0 0
5561 1 1.1127084380589466e+01 1.1762428407677300e+01 1.7143568234984127e+01 0 1 0
394 1 1.4899064707398428e+00 1.2351455405728343e+01 1.9763945147063783e+01 0 0 0
1935 1 1.6194769291760143e+00 1.5346537996656865e+01 1.8684906363113537e+01 1 0 0
467 1 6.3508909478042410e+00 1.6191967639665936e+01 1.8189676945528880e+01 0 0 0
2246 1 5.9788697840614260e+00 1.2525804952956335e+01 1.9203913344808601e+01 1 0 0
3727 1 4.5671068243788753e+00 1.4374255806865687e+01 1.7373875265478603e+01 1 0 0
1624 1 8.0370759990175742e+00 1.4277503172796825e+01 1.9599036977735295e+01 0 0 1
1791 1 1.0625215240824522e+01 1.5549446902783055e+01 1.8133108069430506e+01 0 0 0
420 1 3.8543910117986373e+00 8.6964993657612533e-01 2.1134850127078753e+01 1 0 0
5347 1 1.2370770571116045e+00 5.5888477004456583e-01 2.0510845791344952e+01 1 1 0
1671 1 4.1640303361915629e+00 3.3996477231675288e+00 2.0358813302137673e+01 0 0 1
2066 1 6.5829501950879630e+00 3.5240700041669091e+00 2.1356137493443708e+01 1 0 0
2046 1 6.5306113053018269e+00 2.8745384260887152e+00 2.3691974981463943e+01 0 0 0
3605 1 4.1442413173532993e+00 1.4597640638645397e+00 2.4008825463038168e+01 1 0 0
2163 1 1.0815910364954888e+01 3.7451645922860028e+00 2.4120633898835820e+01 1 0 0
5312 1 1.0891015794496083e+01 3.6178900684644599e+00 2.1302248576985431e+01 0 1 0
2047 1 1.0669828304839166e+01 1.0212997245903195e+00 2.1341565187582255e+01 1 1 0
237 1 8.8718073194830911e+00 1.2780137344504434e+00 2.3991746323447231e+01 1 0 0
1551 1 9.5360263387115812e-02 4.9877899743322853e+00 2.0720592406391116e+01 0 0 1
205 1 2.6375786272550430e+00 5.4710879354749657e+00 2.1384552652644491e+01 1 0 1
334 1 2.4905569070933709e+00 5.5623595115423905e+00 2.3991132399862057e+01 0 1 0
1859 1 7.2740288179046653e+00 6.2047017277220560e+00 2.1227914994502701e+01 1 1 0
462 1 9.0740849967175912e+00 8.1044019709640427e+00 2.1839010660462225e+01 0 1 0
3203 1 3.5014757845117406e+00 1.0722457981682101e+01 2.3451917908286745e+01 0 0 0
3289 1 1.0748539764780221e+00 9.8774191812177534e+00 2.2870385503818063e+01 0 0 1
28 1 6.7153362769102731e+00 1.1251129931195338e+01 2.3909679106466889e+01 0 0 0
2025 1 6.8232585384441480e+00 9.7875531507981179e+00 2.1055981891627368e+01 1 0 0
1739 1 4.7135722625008567e+00 8.6024503824411696e+00 2.2555847042946013e+01 1 0 0
3079 1 1.1559281549156806e+01 1.1426971285946481e+01 2.3807613200677828e+01 0 0 1
534 1 1.1292385277717468e+01 9.0091118423903609e+00 2.0374804560337726e+01 0 0 0
3433 1 9.2275010481905433e+00 9.9077352192106485e+00 2.4015656421727105e+01 0 0 1
2077 1 1.5433274559800045e-01 1.5047476133450473e+01 2.3457946705870899e+01 1 0 0
3718 1 2.9500234164632544e+00 1.5612042710589048e+01 2.1250894216488678e+01 1 0 0
1845 1 3.8344997348112551e+00 1.2503064188307796e+01 2.1494158943959615e+01 1 0 0
5106 1 5.2735708651484847e+00 1.3923211442664890e+01 2.3493195176139427e+01 0 0 0
1825 1 7.3232510084882136e+00 1.5362648182238569e+01 2.2368578974159796e+01 0 -1 1
6583 1 1.1388424175357299e+01 1.2402509281977720e+01 2.1124204280018372e+01 1 0 0
5115 1 9.0662368959266662e+00 1.3422873758917738e+01 2.4050264224583710e+01 1 0 1
616 2 0.0000000000000000e+00 2.8417180249513345e+00 2.6821794341519617e+01 0 0 0
618 2 0.0000000000000000e+00 0.0000000000000000e+00 2.6821794341519617e+01 0 0 0
620 2 1.2305000000000001e+00 7.1042950623783474e-01 2.6821794341519617e+01 0 0 0
627 2 1.2305000000000001e+00 2.1312885187134998e+00 2.6821794341519617e+01 0 0 0
629 2 2.4610000000000003e+00 2.8417180249513345e+00 2.6821794341519617e+01 0 0 0
631 2 2.4610000000000003e+00 0.0000000000000000e+00 2.6821794341519617e+01 0 0 0
633 2 3.6915000000000004e+00 7.1042950623783474e-01 2.6821794341519617e+01 0 0 0
648 2 3.6914999999999996e+00 2.1312885187134998e+00 2.6821794341519617e+01 0 0 0
3448 1 1.8227843552698897e+00 2.6494302618760663e+00 2.4380702748798324e+01 0 0 0
650 2 4.9220000000000006e+00 2.8417180249513332e+00 2.6821794341519617e+01 0 0 0
652 2 4.9220000000000006e+00 0.0000000000000000e+00 2.6821794341519617e+01 0 0 0
654 2 6.1524999999999999e+00 7.1042950623783407e-01 2.6821794341519617e+01 0 0 0
677 2 6.1524999999999999e+00 2.1312885187134989e+00 2.6821794341519617e+01 0 0 0
679 2 7.3829999999999991e+00 2.8417180249513345e+00 2.6821794341519617e+01 0 0 0
681 2 7.3829999999999991e+00 0.0000000000000000e+00 2.6821794341519617e+01 0 0 0
683 2 8.6134999999999984e+00 7.1042950623783407e-01 2.6821794341519617e+01 0 0 0
714 2 8.6134999999999984e+00 2.1312885187135002e+00 2.6821794341519617e+01 0 0 0
716 2 9.8440000000000012e+00 2.8417180249513332e+00 2.6821794341519617e+01 0 0 0
718 2 9.8440000000000012e+00 0.0000000000000000e+00 2.6821794341519617e+01 0 0 0
720 2 1.1074500000000002e+01 7.1042950623783330e-01 2.6821794341519617e+01 0 0 0
759 2 1.1074500000000002e+01 2.1312885187135002e+00 2.6821794341519617e+01 0 0 0
621 2 0.0000000000000000e+00 7.1042950623783341e+00 2.6821794341519617e+01 0 0 0
623 2 0.0000000000000000e+00 4.2625770374269996e+00 2.6821794341519617e+01 0 0 0
625 2 1.2305000000000001e+00 4.9730065436648339e+00 2.6821794341519617e+01 0 0 0
640 2 1.2305000000000001e+00 6.3938655561404980e+00 2.6821794341519617e+01 0 0 0
642 2 2.4610000000000003e+00 7.1042950623783341e+00 2.6821794341519617e+01 0 0 0
644 2 2.4610000000000003e+00 4.2625770374269996e+00 2.6821794341519617e+01 0 0 0
646 2 3.6914999999999996e+00 4.9730065436648339e+00 2.6821794341519617e+01 0 0 0
669 2 3.6914999999999996e+00 6.3938655561404980e+00 2.6821794341519617e+01 0 0 0
3404 1 6.7157109283215111e-01 7.6617041056129835e+00 2.4356151791427816e+01 1 0 1
671 2 4.9220000000000006e+00 7.1042950623783341e+00 2.6821794341519617e+01 0 0 0
673 2 4.9220000000000006e+00 4.2625770374269978e+00 2.6821794341519617e+01 0 0 0
675 2 6.1524999999999999e+00 4.9730065436648339e+00 2.6821794341519617e+01 0 0 0
706 2 6.1524999999999999e+00 6.3938655561404980e+00 2.6821794341519617e+01 0 0 0
708 2 7.3830000000000009e+00 7.1042950623783341e+00 2.6821794341519617e+01 0 0 0
710 2 7.3829999999999991e+00 4.2625770374269996e+00 2.6821794341519617e+01 0 0 0
3470 1 7.0869566467645333e+00 5.4583037868736746e+00 2.4253143793887361e+01 1 0 0
315 1 4.9399073908031390e+00 6.9702622951706923e+00 2.4525549303120780e+01 0 0 0
712 2 8.6135000000000002e+00 4.9730065436648339e+00 2.6821794341519617e+01 0 0 0
751 2 8.6135000000000002e+00 6.3938655561404980e+00 2.6821794341519617e+01 0 0 0
753 2 9.8440000000000012e+00 7.1042950623783341e+00 2.6821794341519617e+01 0 0 0
755 2 9.8440000000000012e+00 4.2625770374270004e+00 2.6821794341519617e+01 0 0 0
757 2 1.1074500000000002e+01 4.9730065436648339e+00 2.6821794341519617e+01 0 0 0
798 2 1.1074500000000002e+01 6.3938655561404980e+00 2.6821794341519617e+01 0 0 0
3694 1 1.0314381240833100e+01 6.5251911298276921e+00 2.4306766764825952e+01 0 0 0
634 2 0.0000000000000000e+00 1.1366872099805333e+01 2.6821794341519617e+01 0 0 0
636 2 0.0000000000000000e+00 8.5251540748539991e+00 2.6821794341519617e+01 0 0 0
638 2 1.2305000000000001e+00 9.2355835810918343e+00 2.6821794341519617e+01 0 0 0
661 2 1.2305000000000001e+00 1.0656442593567498e+01 2.6821794341519617e+01 0 0 0
663 2 2.4610000000000003e+00 1.1366872099805333e+01 2.6821794341519617e+01 0 0 0
665 2 2.4610000000000003e+00 8.5251540748539991e+00 2.6821794341519617e+01 0 0 0
667 2 3.6915000000000004e+00 9.2355835810918343e+00 2.6821794341519617e+01 0 0 0
698 2 3.6914999999999996e+00 1.0656442593567499e+01 2.6821794341519617e+01 0 0 0
700 2 4.9220000000000006e+00 1.1366872099805333e+01 2.6821794341519617e+01 0 0 0
702 2 4.9220000000000006e+00 8.5251540748539991e+00 2.6821794341519617e+01 0 0 0
704 2 6.1524999999999999e+00 9.2355835810918343e+00 2.6821794341519617e+01 0 0 0
743 2 6.1524999999999999e+00 1.0656442593567499e+01 2.6821794341519617e+01 0 0 0
745 2 7.3829999999999991e+00 1.1366872099805333e+01 2.6821794341519617e+01 0 0 0
747 2 7.3830000000000009e+00 8.5251540748539991e+00 2.6821794341519617e+01 0 0 0
749 2 8.6134999999999984e+00 9.2355835810918343e+00 2.6821794341519617e+01 0 0 0
790 2 8.6134999999999984e+00 1.0656442593567498e+01 2.6821794341519617e+01 0 0 0
792 2 9.8440000000000012e+00 1.1366872099805333e+01 2.6821794341519617e+01 0 0 0
794 2 9.8440000000000012e+00 8.5251540748539956e+00 2.6821794341519617e+01 0 0 0
796 2 1.1074500000000002e+01 9.2355835810918343e+00 2.6821794341519617e+01 0 0 0
837 2 1.1074500000000002e+01 1.0656442593567498e+01 2.6821794341519617e+01 0 0 0
839 2 1.2304999999999998e+01 1.1366872099805333e+01 2.6821794341519617e+01 0 0 0
655 2 0.0000000000000000e+00 1.5629449137232333e+01 2.6821794341519617e+01 0 0 0
657 2 0.0000000000000000e+00 1.2787731112280996e+01 2.6821794341519617e+01 0 0 0
659 2 1.2305000000000001e+00 1.3498160618518829e+01 2.6821794341519617e+01 0 0 0
690 2 1.2305000000000001e+00 1.4919019630994494e+01 2.6821794341519617e+01 0 0 0
692 2 2.4610000000000003e+00 1.5629449137232328e+01 2.6821794341519617e+01 0 0 0
694 2 2.4610000000000003e+00 1.2787731112280996e+01 2.6821794341519617e+01 0 0 0
696 2 3.6915000000000004e+00 1.3498160618518829e+01 2.6821794341519617e+01 0 0 0
735 2 3.6915000000000004e+00 1.4919019630994494e+01 2.6821794341519617e+01 0 0 0
409 1 3.1831837710510267e+00 1.5628602732464451e+01 2.4467029441537193e+01 0 0 0
737 2 4.9220000000000006e+00 1.5629449137232333e+01 2.6821794341519617e+01 0 0 0
739 2 4.9220000000000006e+00 1.2787731112280996e+01 2.6821794341519617e+01 0 0 0
741 2 6.1524999999999990e+00 1.3498160618518829e+01 2.6821794341519617e+01 0 0 0
782 2 6.1524999999999990e+00 1.4919019630994494e+01 2.6821794341519617e+01 0 0 0
784 2 7.3829999999999991e+00 1.5629449137232333e+01 2.6821794341519617e+01 0 0 0
786 2 7.3829999999999991e+00 1.2787731112280996e+01 2.6821794341519617e+01 0 0 0
788 2 8.6135000000000002e+00 1.3498160618518835e+01 2.6821794341519617e+01 0 0 0
829 2 8.6135000000000002e+00 1.4919019630994494e+01 2.6821794341519617e+01 0 0 0
831 2 9.8440000000000012e+00 1.5629449137232328e+01 2.6821794341519617e+01 0 0 0
833 2 9.8440000000000012e+00 1.2787731112280996e+01 2.6821794341519617e+01 0 0 0
835 2 1.1074500000000002e+01 1.3498160618518829e+01 2.6821794341519617e+01 0 0 0
871 2 1.1074500000000002e+01 1.4919019630994494e+01 2.6821794341519617e+01 0 0 0
617 2 0.0000000000000000e+00 1.4208590124756650e+00 3.0030999999999711e+01 0 0 0
619 2 0.0000000000000000e+00 0.0000000000000000e+00 3.0030999999999711e+01 0 0 0
626 2 1.2305000000000001e+00 3.5521475311891644e+00 3.0030999999999711e+01 0 0 0
628 2 1.2305000000000001e+00 2.1312885187134998e+00 3.0030999999999711e+01 0 0 0
630 2 2.4610000000000003e+00 1.4208590124756650e+00 3.0030999999999711e+01 0 0 0
632 2 2.4610000000000003e+00 0.0000000000000000e+00 3.0030999999999711e+01 0 0 0
647 2 3.6914999999999996e+00 3.5521475311891644e+00 3.0030999999999711e+01 0 0 0
649 2 3.6914999999999996e+00 2.1312885187134998e+00 3.0030999999999711e+01 0 0 0
651 2 4.9220000000000006e+00 1.4208590124756650e+00 3.0030999999999711e+01 0 0 0
653 2 4.9220000000000006e+00 0.0000000000000000e+00 3.0030999999999711e+01 0 0 0
676 2 6.1524999999999999e+00 3.5521475311891644e+00 3.0030999999999711e+01 0 0 0
678 2 6.1524999999999999e+00 2.1312885187134989e+00 3.0030999999999711e+01 0 0 0
680 2 7.3829999999999991e+00 1.4208590124756659e+00 3.0030999999999711e+01 0 0 0
682 2 7.3829999999999991e+00 0.0000000000000000e+00 3.0030999999999711e+01 0 0 0
713 2 8.6134999999999984e+00 3.5521475311891657e+00 3.0030999999999711e+01 0 0 0
715 2 8.6134999999999984e+00 2.1312885187135002e+00 3.0030999999999711e+01 0 0 0
717 2 9.8440000000000012e+00 1.4208590124756659e+00 3.0030999999999711e+01 0 0 0
719 2 9.8440000000000012e+00 0.0000000000000000e+00 3.0030999999999711e+01 0 0 0
758 2 1.1074500000000002e+01 3.5521475311891644e+00 3.0030999999999711e+01 0 0 0
760 2 1.1074500000000002e+01 2.1312885187135002e+00 3.0030999999999711e+01 0 0 0
622 2 0.0000000000000000e+00 5.6834360499026637e+00 3.0030999999999711e+01 0 0 0
624 2 0.0000000000000000e+00 4.2625770374269996e+00 3.0030999999999711e+01 0 0 0
639 2 1.2305000000000001e+00 7.8147245686161639e+00 3.0030999999999711e+01 0 0 0
641 2 1.2305000000000001e+00 6.3938655561404980e+00 3.0030999999999711e+01 0 0 0
643 2 2.4610000000000003e+00 5.6834360499026637e+00 3.0030999999999711e+01 0 0 0
645 2 2.4610000000000003e+00 4.2625770374269996e+00 3.0030999999999711e+01 0 0 0
668 2 3.6914999999999996e+00 7.8147245686161639e+00 3.0030999999999711e+01 0 0 0
670 2 3.6914999999999996e+00 6.3938655561404980e+00 3.0030999999999711e+01 0 0 0
672 2 4.9220000000000006e+00 5.6834360499026637e+00 3.0030999999999711e+01 0 0 0
674 2 4.9220000000000006e+00 4.2625770374269978e+00 3.0030999999999711e+01 0 0 0
705 2 6.1524999999999999e+00 7.8147245686161639e+00 3.0030999999999711e+01 0 0 0
707 2 6.1524999999999999e+00 6.3938655561404980e+00 3.0030999999999711e+01 0 0 0
709 2 7.3829999999999991e+00 5.6834360499026637e+00 3.0030999999999711e+01 0 0 0
711 2 7.3829999999999991e+00 4.2625770374269996e+00 3.0030999999999711e+01 0 0 0
750 2 8.6135000000000002e+00 7.8147245686161639e+00 3.0030999999999711e+01 0 0 0
752 2 8.6135000000000002e+00 6.3938655561404980e+00 3.0030999999999711e+01 0 0 0
754 2 9.8440000000000012e+00 5.6834360499026637e+00 3.0030999999999711e+01 0 0 0
756 2 9.8440000000000012e+00 4.2625770374270004e+00 3.0030999999999711e+01 0 0 0
797 2 1.1074500000000002e+01 7.8147245686161639e+00 3.0030999999999711e+01 0 0 0
799 2 1.1074500000000002e+01 6.3938655561404980e+00 3.0030999999999711e+01 0 0 0
635 2 0.0000000000000000e+00 9.9460130873296642e+00 3.0030999999999711e+01 0 0 0
637 2 0.0000000000000000e+00 8.5251540748539991e+00 3.0030999999999711e+01 0 0 0
660 2 1.2305000000000001e+00 1.2077301606043163e+01 3.0030999999999711e+01 0 0 0
662 2 1.2305000000000001e+00 1.0656442593567498e+01 3.0030999999999711e+01 0 0 0
664 2 2.4610000000000003e+00 9.9460130873296642e+00 3.0030999999999711e+01 0 0 0
666 2 2.4610000000000003e+00 8.5251540748539991e+00 3.0030999999999711e+01 0 0 0
697 2 3.6914999999999996e+00 1.2077301606043163e+01 3.0030999999999711e+01 0 0 0
699 2 3.6914999999999996e+00 1.0656442593567499e+01 3.0030999999999711e+01 0 0 0
701 2 4.9220000000000006e+00 9.9460130873296642e+00 3.0030999999999711e+01 0 0 0
703 2 4.9220000000000006e+00 8.5251540748539991e+00 3.0030999999999711e+01 0 0 0
742 2 6.1524999999999999e+00 1.2077301606043163e+01 3.0030999999999711e+01 0 0 0
744 2 6.1524999999999999e+00 1.0656442593567499e+01 3.0030999999999711e+01 0 0 0
746 2 7.3830000000000009e+00 9.9460130873296642e+00 3.0030999999999711e+01 0 0 0
748 2 7.3830000000000009e+00 8.5251540748539991e+00 3.0030999999999711e+01 0 0 0
789 2 8.6135000000000002e+00 1.2077301606043163e+01 3.0030999999999711e+01 0 0 0
791 2 8.6134999999999984e+00 1.0656442593567498e+01 3.0030999999999711e+01 0 0 0
793 2 9.8440000000000012e+00 9.9460130873296642e+00 3.0030999999999711e+01 0 0 0
795 2 9.8440000000000012e+00 8.5251540748539956e+00 3.0030999999999711e+01 0 0 0
836 2 1.1074500000000002e+01 1.2077301606043163e+01 3.0030999999999711e+01 0 0 0
838 2 1.1074500000000002e+01 1.0656442593567498e+01 3.0030999999999711e+01 0 0 0
656 2 0.0000000000000000e+00 1.4208590124756663e+01 3.0030999999999711e+01 0 0 0
658 2 0.0000000000000000e+00 1.2787731112280996e+01 3.0030999999999711e+01 0 0 0
691 2 1.2305000000000001e+00 1.4919019630994494e+01 3.0030999999999711e+01 0 0 0
693 2 2.4610000000000003e+00 1.4208590124756663e+01 3.0030999999999711e+01 0 0 0
695 2 2.4610000000000003e+00 1.2787731112280996e+01 3.0030999999999711e+01 0 0 0
736 2 3.6915000000000004e+00 1.4919019630994494e+01 3.0030999999999711e+01 0 0 0
738 2 4.9220000000000006e+00 1.4208590124756663e+01 3.0030999999999711e+01 0 0 0
740 2 4.9220000000000006e+00 1.2787731112280996e+01 3.0030999999999711e+01 0 0 0
783 2 6.1524999999999990e+00 1.4919019630994494e+01 3.0030999999999711e+01 0 0 0
785 2 7.3830000000000009e+00 1.4208590124756663e+01 3.0030999999999711e+01 0 0 0
787 2 7.3829999999999991e+00 1.2787731112280996e+01 3.0030999999999711e+01 0 0 0
874 2 1.2304999999999998e+01 1.4208590124756658e+01 3.0030999999999711e+01 0 0 0
830 2 8.6135000000000002e+00 1.4919019630994494e+01 3.0030999999999711e+01 0 0 0
872 2 1.1074500000000002e+01 1.4919019630994494e+01 3.0030999999999711e+01 0 0 0
832 2 9.8440000000000012e+00 1.4208590124756663e+01 3.0030999999999711e+01 0 0 0
870 2 1.1074500000000002e+01 1.6339878643470161e+01 3.0030999999999711e+01 0 0 0
834 2 9.8440000000000012e+00 1.2787731112280996e+01 3.0030999999999711e+01 0 0 0
945 2 0.0000000000000000e+00 2.8417180249513345e+00 3.3240205658477834e+01 0 0 0
946 2 0.0000000000000000e+00 0.0000000000000000e+00 3.3240205658477834e+01 0 0 0
947 2 1.2305000000000001e+00 7.1042950623783474e-01 3.3240205658477834e+01 0 0 0
951 2 1.2305000000000001e+00 2.1312885187134998e+00 3.3240205658477834e+01 0 0 0
952 2 2.4610000000000003e+00 2.8417180249513345e+00 3.3240205658477834e+01 0 0 0
953 2 2.4610000000000003e+00 0.0000000000000000e+00 3.3240205658477834e+01 0 0 0
954 2 3.6915000000000004e+00 7.1042950623783474e-01 3.3240205658477834e+01 0 0 0
962 2 3.6914999999999996e+00 2.1312885187134998e+00 3.3240205658477834e+01 0 0 0
963 2 4.9220000000000006e+00 2.8417180249513332e+00 3.3240205658477834e+01 0 0 0
964 2 4.9220000000000006e+00 0.0000000000000000e+00 3.3240205658477834e+01 0 0 0
965 2 6.1524999999999999e+00 7.1042950623783407e-01 3.3240205658477834e+01 0 0 0
977 2 6.1524999999999999e+00 2.1312885187134989e+00 3.3240205658477834e+01 0 0 0
978 2 7.3829999999999991e+00 2.8417180249513345e+00 3.3240205658477834e+01 0 0 0
979 2 7.3829999999999991e+00 0.0000000000000000e+00 3.3240205658477834e+01 0 0 0
980 2 8.6134999999999984e+00 7.1042950623783407e-01 3.3240205658477834e+01 0 0 0
996 2 8.6134999999999984e+00 2.1312885187135002e+00 3.3240205658477834e+01 0 0 0
997 2 9.8440000000000012e+00 2.8417180249513332e+00 3.3240205658477834e+01 0 0 0
998 2 9.8440000000000012e+00 0.0000000000000000e+00 3.3240205658477834e+01 0 0 0
999 2 1.1074500000000002e+01 7.1042950623783330e-01 3.3240205658477834e+01 0 0 0
1019 2 1.1074500000000002e+01 2.1312885187135002e+00 3.3240205658477834e+01 0 0 0
5216 1 1.1193008150434666e+01 1.4790005667480437e+00 3.5787004747800566e+01 1 1 0
948 2 0.0000000000000000e+00 7.1042950623783341e+00 3.3240205658477834e+01 0 0 0
949 2 0.0000000000000000e+00 4.2625770374269996e+00 3.3240205658477834e+01 0 0 0
950 2 1.2305000000000001e+00 4.9730065436648339e+00 3.3240205658477834e+01 0 0 0
958 2 1.2305000000000001e+00 6.3938655561404980e+00 3.3240205658477834e+01 0 0 0
959 2 2.4610000000000003e+00 7.1042950623783341e+00 3.3240205658477834e+01 0 0 0
960 2 2.4610000000000003e+00 4.2625770374269996e+00 3.3240205658477834e+01 0 0 0
961 2 3.6914999999999996e+00 4.9730065436648339e+00 3.3240205658477834e+01 0 0 0
973 2 3.6914999999999996e+00 6.3938655561404980e+00 3.3240205658477834e+01 0 0 0
4855 1 1.9891132067536124e+00 7.3440908443615953e+00 3.5734786438684381e+01 -1 0 0
974 2 4.9220000000000006e+00 7.1042950623783341e+00 3.3240205658477834e+01 0 0 0
975 2 4.9220000000000006e+00 4.2625770374269978e+00 3.3240205658477834e+01 0 0 0
976 2 6.1524999999999999e+00 4.9730065436648339e+00 3.3240205658477834e+01 0 0 0
992 2 6.1524999999999999e+00 6.3938655561404980e+00 3.3240205658477834e+01 0 0 0
993 2 7.3830000000000009e+00 7.1042950623783341e+00 3.3240205658477834e+01 0 0 0
994 2 7.3829999999999991e+00 4.2625770374269996e+00 3.3240205658477834e+01 0 0 0
995 2 8.6135000000000002e+00 4.9730065436648339e+00 3.3240205658477834e+01 0 0 0
1015 2 8.6135000000000002e+00 6.3938655561404980e+00 3.3240205658477834e+01 0 0 0
1016 2 9.8440000000000012e+00 7.1042950623783341e+00 3.3240205658477834e+01 0 0 0
1017 2 9.8440000000000012e+00 4.2625770374270004e+00 3.3240205658477834e+01 0 0 0
1018 2 1.1074500000000002e+01 4.9730065436648339e+00 3.3240205658477834e+01 0 0 0