
# Create simulation box and atoms

read_data data.graphite_substrate
  orthogonal box = (0 0 0.948137) to (49.22 49.0196 59.1139)
  4 by 3 by 5 MPI processor grid
  reading atoms ...
  6736 atoms
  reading velocities ...
  6736 velocities
group water type 1
3976 atoms in group water
group graphite type 2
2760 atoms in group graphite

# Define potential

pair_style sw
pair_coeff * * mWC.sw mW C
Reading potential file mWC.sw with DATE: 2019-02-27


# Fix graphite atoms in place

fix 5 graphite setforce 0.0 0.0 0.0
velocity graphite set 0.0 0.0 0.0


# Equilibration of molecular water

# Add velocity/set timestep

velocity	    water create ${TEMP} ${SEED} rot yes dist gaussian
velocity	    water create 225 ${SEED} rot yes dist gaussian
velocity	    water create 225 15764 rot yes dist gaussian
timestep	    5.0

# Define output

compute			1 water msd
compute			3 water temp
thermo	    	50
thermo_style	custom step temp press vol etotal ke pe c_1[4] c_3

# Neighbor lists

neigh_modify    delay 0 every 1 check yes

# Set fixes

fix             1 water momentum 10 linear 1 1 1 rescale
fix             2 water nve
fix             3 water temp/csvr ${TEMP} ${TEMP} 500.0 ${SEED}
fix             3 water temp/csvr 225 ${TEMP} 500.0 ${SEED}
fix             3 water temp/csvr 225 225 500.0 ${SEED}
fix             3 water temp/csvr 225 225 500.0 15764
fix             4 water press/berendsen z ${PRES} ${PRES} 1000.0 modulus 20000
fix             4 water press/berendsen z 1 ${PRES} 1000.0 modulus 20000
fix             4 water press/berendsen z 1 1 1000.0 modulus 20000

# Run 0.5 ns equilibration

dump		    1 all atom 2000 ${DIR}/eq.${NAME}-${TEMP}.dump
dump		    1 all atom 2000 run_5/eq.${NAME}-${TEMP}.dump
dump		    1 all atom 2000 run_5/eq.het_freeze_5-${TEMP}.dump
dump		    1 all atom 2000 run_5/eq.het_freeze_5-225.dump

reset_timestep  0

run	            100000
Neighbor list info ...
  update every 1 steps, delay 0 steps, check yes
  max neighbors/atom: 2000, page size: 100000
  master list distance cutoff = 7.76
  ghost atom cutoff = 7.76
  binsize = 3.88, bins = 13 13 15
  1 neighbor lists, perpetual/occasional/extra = 1 0 0
  (1) pair sw, perpetual
      attributes: full, newton on
      pair build: full/bin/atomonly
      stencil: full/bin/3d
      bin: standard
Per MPI rank memory allocation (min/avg/max) = 4.092 | 4.193 | 4.513 Mbytes
Step Temp Press Volume TotEng KinEng PotEng c_1[4] c_3 
       0     132.7951   -270.11621    140339.15    -39492.76     2665.962   -42158.722            0          225 
      50    133.69385   -49.524303    140386.44   -39455.534    2684.0051   -42139.539   0.52504442    226.52279 
     100    132.85758   -50.305583    140455.63   -39497.534    2667.2163    -42164.75   0.88020243    225.10586 
     150    132.31623   -50.827975    140521.49   -39480.232    2656.3482   -42136.581    1.1472666    224.18862 
     200    132.18572   -239.56468    140527.69   -39513.473    2653.7281   -42167.201    1.4161519     223.9675 
     250    131.43982   -264.68586     140497.5   -39490.491    2638.7536   -42129.245    1.6127605    222.70369 
     300    132.99938   -62.951498    140498.57   -39528.456    2670.0631   -42198.519     1.807107    225.34612 
     350    133.13726   -189.84747    140573.29    -39510.56    2672.8311   -42183.391     1.997947    225.57973 
     400    130.96673   -368.85665    140493.78   -39571.547    2629.2561   -42200.803    2.1748157    221.90212 
     450    130.35245   -105.53075     140428.3   -39551.741     2616.924   -42168.665    2.4041568    220.86133 
     500    132.50989    -123.3644    140443.47   -39526.402    2660.2362   -42186.638    2.6357718    224.51676 
     550    131.50893   -135.55073    140462.91   -39567.668    2640.1411   -42207.809    2.8428788    222.82078 
     600    132.46099   -108.64315    140530.47   -39501.581    2659.2545   -42160.836     3.099068    224.43391 
     650    132.60606   -216.50832    140611.48   -39460.399    2662.1669   -42122.566    3.3216708    224.67971 
     700    132.64848   -52.813184     140636.6   -39460.211    2663.0184    -42123.23    3.5210387    224.75157 
     750    133.34278   -50.555575    140666.31   -39443.425    2676.9571   -42120.382    3.6889761    225.92796 
     800    133.71879   -247.24425    140671.27   -39439.583    2684.5058   -42124.089    3.8688931    226.56505 
     850    132.19548   -68.357685    140620.12   -39431.778    2653.9242   -42085.702    4.0910233    223.98404 
     900    131.78405   -224.22103     140618.1   -39470.467    2645.6645   -42116.132    4.2755677    223.28694 
     950    131.42195    -175.6314    140508.01   -39469.177     2638.395   -42107.572    4.5214441    222.67342 
    1000    129.28932   -317.65957    140485.89   -39470.606    2595.5809   -42066.187    4.7972961    219.06002 
    1050    132.19193   -155.01919    140619.39   -39441.852    2653.8529   -42095.705    5.0135104    223.97803 
    1100    130.92021    18.612631    140618.57   -39438.867    2628.3222   -42067.189    5.2404653     221.8233 
    1150    130.57955   -112.51774    140726.73   -39451.657    2621.4831    -42073.14    5.5404329     221.2461 
    1200    131.92136   -96.889887    140737.87   -39453.736     2648.421   -42102.157    5.7233869    223.51959 
    1250     132.6408   -105.71953    140776.88   -39415.124    2662.8642   -42077.988    5.9558664    224.73856 
    1300    133.97127   -161.06244    140836.82    -39414.34    2689.5745   -42103.915    6.2212707    226.99284 
    1350    132.55111   -288.18936    140896.73   -39459.134    2661.0636   -42120.197     6.453196    224.58659 
    1400    134.57551   -368.82266    140877.73   -39421.282    2701.7051   -42122.987     6.698752    228.01663 
    1450    132.67129   -132.14413    140909.14   -39392.272    2663.4763   -42055.748    6.9142512    224.79022 
    1500    135.42402   -354.38849     140881.2   -39374.632    2718.7396   -42093.372     7.158411    229.45429 
    1550    131.61852   -422.68054     140822.4   -39436.451    2642.3412   -42078.792    7.3454676    223.00647 
    1600    133.41151   -380.97305    140808.49   -39448.012    2678.3369   -42126.349    7.6446128    226.04441 
    1650    129.73331   -197.70156    140820.95   -39452.274    2604.4942   -42056.768    7.8705844    219.81228 
    1700    131.17373   -319.59666    140833.85   -39437.677    2633.4117   -42071.088    8.1255687    222.25285 
    1750    132.57491   -228.89303    140740.94   -39441.127    2661.5415   -42102.668    8.2909872    224.62692 
    1800    129.98814   -308.92757    140766.64   -39433.511    2609.6101   -42043.121    8.4444126    220.24406 
    1850    133.88934    67.461385    140886.53   -39436.545    2687.9297   -42124.475    8.5848912    226.85402 
    1900    131.17558   -118.06545    140914.87    -39493.26    2633.4489   -42126.709    8.8209259    222.25599 
    1950    130.88021   -201.82376    140942.57   -39526.713    2627.5191   -42154.232    8.9914238    221.75552 
    2000    132.63818    -250.4581    140999.15   -39464.489    2662.8117     -42127.3      9.27349    224.73412 
    2050    132.29438   -196.34718    141040.42   -39481.115    2655.9096   -42137.025    9.4217804    224.15161 
    2100     132.2137   -139.34935    141041.61   -39473.032      2654.29   -42127.322    9.5999249    224.01492 
    2150    133.99317   -133.58685    141055.44   -39416.976    2690.0142   -42106.991    9.7683078    227.02994 
    2200    133.79392   -208.01248    141017.18   -39399.528     2686.014   -42085.542    9.9991906    226.69234 
    2250    135.17601   -120.92508    141044.88   -39381.484    2713.7607   -42095.245    10.231203    229.03408 
    2300    130.57431   -132.40081    141059.63   -39484.415    2621.3779   -42105.793    10.395126    221.23722 
    2350      132.241   -266.56793    141039.55   -39483.476    2654.8381   -42138.314    10.632352    224.06117 
    2400    136.54176   -99.058288     141018.8   -39447.153    2741.1791   -42188.332    10.892637    231.34812 
    2450    132.75015   -30.622517    141156.09   -39461.668    2665.0595   -42126.728    11.116773    224.92383 
    2500    131.92717   -385.86669    141197.82   -39492.137    2648.5377   -42140.675    11.405949    223.52943 
    2550    133.83569   -223.70039    141250.26   -39443.988    2686.8526   -42130.841    11.658761    226.76311 
    2600    132.46447   -284.96973    141207.02   -39453.088    2659.3244   -42112.412    11.732539    224.43981 
    2650    135.29604   -193.60911    141226.86     -39454.4    2716.1703    -42170.57    11.977955    229.23744 
    2700    133.44325   -177.49475    141208.17   -39487.472    2678.9741   -42166.446    12.233971    226.09819 
    2750    136.22966     -424.075    141239.87   -39441.443    2734.9134   -42176.357    12.542181    230.81931 
    2800    135.66906   -241.20282    141258.22   -39452.235     2723.659   -42175.894     12.63135    229.86947 
    2850    131.78953   -390.04987    141186.55    -39460.27    2645.7744   -42106.044    12.723422    223.29623 
    2900    134.46228   -243.23213     141125.9   -39496.578     2699.432    -42196.01    12.892058    227.82478 
    2950    130.41331   -391.03434    141078.13   -39566.236    2618.1457   -42184.382    13.066675    220.96444 
    3000    130.88105    -341.9425    141049.22   -39511.381     2627.536   -42138.917    13.159712    221.75695 
    3050    135.03898   -350.63776    140995.21   -39455.758    2711.0096   -42166.768    13.380771    228.80189 
    3100     131.1672   -168.50233    141047.59    -39459.39    2633.2806   -42092.671    13.678528    222.24178 
    3150    135.04328   -223.05575    141033.94   -39455.727     2711.096   -42166.823    13.866749    228.80919 
    3200    132.93733   -267.00527       141050   -39456.911    2668.8174   -42125.728    14.097309    225.24099 
    3250    135.35781   -416.72664     141009.8   -39459.363    2717.4104   -42176.773    14.329717     229.3421 
    3300    134.94783   -621.26537    140903.82   -39437.138    2709.1797   -42146.318    14.485377    228.64746 
    3350    135.48616   -299.04842    140806.75   -39428.568     2719.987   -42148.555    14.734035    229.55957 
    3400    134.45061   -118.07278    140744.18   -39477.943    2699.1976   -42177.141    14.852324      227.805 
    3450    131.81375   -62.102894    140831.13   -39500.989    2646.2607    -42147.25    15.094196    223.33726 
    3500    129.22926   -170.73847    140841.11   -39540.528    2594.3751   -42134.903    15.324794    218.95826 
    3550    129.00066   -186.89745    140809.53   -39521.144    2589.7858    -42110.93    15.616507    218.57093 
    3600    133.26961   -316.90157    140692.96   -39509.707    2675.4882   -42185.195    15.860173    225.80398 
    3650    131.55483   -135.36612    140679.89   -39503.514    2641.0626   -42144.576    16.031128    222.89856 
    3700    129.89605     22.54293    140663.15    -39492.05    2607.7613   -42099.811    16.214526    220.08802 
    3750    130.86455   -309.13638    140649.21    -39570.69    2627.2047   -42197.895    16.454661    221.72899 
    3800    127.92426   -335.01199    140678.48   -39573.085    2568.1762   -42141.261    16.734658    216.74714 
    3850    131.66189   -277.79632    140661.26   -39526.712    2643.2119   -42169.924    16.841895    223.07996 
    3900    129.32526   -327.90534    140666.77   -39530.819    2596.3023   -42127.121    17.035867    219.12091 
    3950    130.95925   -186.68593    140662.82   -39498.367    2629.1059   -42127.473    17.119899    221.88945 
    4000    131.24343   -190.08119    140692.69    -39487.53     2634.811   -42122.341    17.312291    222.37094 
    4050    130.66838   -95.317957    140695.33    -39433.64    2623.2664   -42056.906    17.612231    221.39661 
    4100    133.33114    1.8488477     140739.5   -39400.522    2676.7234   -42077.246    17.987477    225.90823 
    4150    132.30768   -304.68217    140701.33   -39347.337    2656.1767   -42003.513    18.210846    224.17414 
    4200    134.32249   -100.18121     140628.9   -39323.833    2696.6254   -42020.458    18.430861    227.58791 
    4250     134.2115   -180.13052    140637.93   -39357.695    2694.3974   -42052.092    18.528692    227.39987 
    4300    135.08665   -273.44703    140723.14   -39383.909    2711.9665   -42095.875    18.797868    228.88266 
    4350     135.4875    -438.0135    140733.92   -39367.838     2720.014   -42087.852    19.143759    229.56184 
    4400    133.12333    -308.6173    140713.33   -39376.974    2672.5514   -42049.525    19.324053    225.55613 
    4450    134.45361   -383.23109    140660.66   -39338.109    2699.2579   -42037.367     19.50815    227.81008 
    4500    135.38104   -105.59014    140639.96   -39307.235    2717.8766   -42025.112    19.791534    229.38145 
    4550    135.41299    12.074851    140710.03   -39330.977     2718.518   -42049.495     20.07678    229.43559 
    4600    136.02848   -336.33109     140677.5   -39308.308    2730.8746   -42039.183    20.389888    230.47845 
    4650     137.8452   -363.06924     140640.5   -39265.781    2767.3465   -42033.128     20.65534    233.55658 
    4700    133.42256   -201.56279    140749.31   -39320.113    2678.5588   -41998.672    20.843753    226.06314 
    4750    133.89527   -268.12786    140686.62   -39342.466    2688.0487   -42030.514    21.043262    226.86406 
    4800    135.56512   -327.49923    140768.47   -39324.335    2721.5723   -42045.907    21.372047    229.69336 
    4850    132.64861   -278.91594    140673.23   -39368.579    2663.0211     -42031.6    21.708031    224.75179 
    4900    131.07393   -336.64489    140666.42   -39409.525    2631.4082   -42040.933    22.030474    222.08376 
    4950    133.87174   -315.46928    140563.93   -39423.774    2687.5762    -42111.35    22.208261    226.82419 
    5000    129.81245   -16.467438    140602.83    -39372.83    2606.0831   -41978.913     22.40043    219.94638 
    5050    135.48847   -482.26959    140649.97   -39304.895    2720.0334   -42024.929    22.693281    229.56348 
    5100    136.15673   -460.27042    140595.48   -39335.197    2733.4491   -42068.646    23.107547    230.69573 
    5150    136.49031    -341.6333    140616.07   -39317.417    2740.1461   -42057.563    23.488435    231.26094 
    5200    134.76548   -463.25048    140507.22   -39299.822    2705.5188   -42005.341     23.86685    228.33849 
    5250    132.03261   -359.64706     140463.4   -39321.243    2650.6544   -41971.897    24.182689    223.70808 
    5300    133.32513   -193.53806    140402.82   -39335.968    2676.6027   -42012.571    24.412383    225.89805 
    5350    132.75437   -45.013239    140373.95   -39376.948    2665.1443   -42042.092    24.670967    224.93099 
    5400    135.45393   -80.634286     140465.2   -39340.952    2719.3399   -42060.292     25.02338    229.50495 
    5450     133.5543   -176.66411    140502.74   -39327.599    2681.2035   -42008.803    25.308042    226.28635 
    5500    132.72671   -36.382051    140451.16   -39352.671     2664.589    -42017.26     25.68955    224.88412 
    5550     135.1428   -119.38042    140474.99    -39324.86    2713.0938   -42037.954     26.05046     228.9778 
    5600    131.42905   -255.78239     140478.8   -39405.887    2638.5375   -42044.424    26.395327    222.68545 
    5650    132.60763   -130.47771    140453.71   -39423.726    2662.1983   -42085.924    26.604873    224.68236 
    5700    134.51338   -10.955773    140431.07   -39410.508    2700.4577   -42110.965    26.840702    227.91134 
    5750    134.52841   -93.077074    140430.45   -39385.198    2700.7594   -42085.958    27.220448    227.93681 
    5800    134.95005   -152.68923    140398.83   -39303.078    2709.2243   -42012.303    27.332999    228.65122 
    5850    134.17894   -90.779997    140430.11   -39323.929    2693.7437   -42017.673    27.520892     227.3447 
    5900    135.70825   -382.50411    140420.58   -39344.241    2724.4458   -42068.686    27.797171    229.93587 
    5950    133.06037   -180.05932    140375.39   -39359.433    2671.2875   -42030.721    27.910446    225.44946 
    6000    132.03819   -192.78694    140368.51   -39363.205    2650.7664   -42013.971    28.002619    223.71753 
    6050    135.27613   -308.70342    140382.69    -39325.57    2715.7705    -42041.34    28.135963    229.20371 
    6100    132.81663    42.870082       140398   -39332.601    2666.3943   -41998.996    28.301156    225.03648 
    6150    134.52729   -66.498574    140522.44   -39327.439    2700.7369   -42028.176    28.441686    227.93491 
    6200    131.93729    23.063546    140606.84   -39367.421    2648.7407   -42016.162    28.733961    223.54657 
    6250    134.35065   -265.21216    140579.34   -39373.682    2697.1908   -42070.873    29.003442    227.63563 
    6300    131.53571   -342.09398    140546.68   -39411.957    2640.6788   -42052.635    29.071809    222.86616 
    6350    131.16047   -318.57503    140460.55   -39379.522    2633.1456   -42012.668    29.178281    222.23039 
    6400    131.42286   -194.34738    140450.48   -39406.122    2638.4132   -42044.535    29.361853    222.67495 
    6450    132.20925   -296.54119    140485.95   -39418.971    2654.2005   -42073.172    29.527662    224.00737 
    6500    132.07671   -134.41561    140518.31   -39469.257    2651.5398   -42120.797    29.608278    223.78281 
    6550    128.85039   -316.99136    140422.74   -39457.862    2586.7688   -42044.631    29.673893    218.31631 
    6600    129.39816   -321.46471    140374.47   -39476.865    2597.7659   -42074.631    29.661948    219.24443 
    6650    130.23705   -281.35506    140332.58   -39473.271    2614.6072   -42087.879    29.781115     220.6658 
    6700    132.28348   -130.09255    140330.54   -39447.335    2655.6909   -42103.026    30.051865    224.13315 
    6750    132.00438    88.786004    140336.53   -39469.222    2650.0877    -42119.31    30.210344    223.66025 
    6800    131.04583   -2.8807764    140472.17     -39475.7     2630.844   -42106.544    30.417815    222.03614 
    6850    131.22645   -174.24158    140519.42   -39494.393    2634.4702   -42128.863    30.729734    222.34217 
    6900    131.49659   -372.69625    140479.77   -39460.445    2639.8934   -42100.338    30.901533    222.79988 
    6950     129.6153   -459.84707    140429.09   -39491.163    2602.1251   -42093.288    31.254428    219.61234 
    7000    131.95012   -63.539648    140358.66   -39390.041    2648.9983   -42039.039    31.560196    223.56831 
    7050    130.46525   -418.57831    140361.94   -39410.823    2619.1886   -42030.012    31.791127    221.05245 
    7100    134.77225   -167.66806    140383.87     -39347.7    2705.6547   -42053.354    31.958935    228.34996 
    7150    135.08006   -140.84103    140352.34   -39358.231    2711.8344   -42070.065    32.081287    228.87151 
    7200    134.82044   -177.17447    140381.24   -39341.707    2706.6222   -42048.329    32.282418    228.43161 
    7250    132.19099   -63.132933    140337.82   -39397.351    2653.8341   -42051.185    32.497593    223.97644 
    7300    133.60599   -317.20018    140273.65   -39437.375    2682.2411   -42119.616    32.626979    226.37392 
    7350    134.84215   -258.44526    140331.17    -39363.73     2707.058   -42070.788    32.789133     228.4684 
    7400    133.83026   -62.539026    140402.37   -39387.951    2686.7436   -42074.694    32.929997    226.75392 
    7450    133.46892   -55.886317    140410.01   -39398.839    2679.4895   -42078.329    33.100063    226.14169 
    7500    134.50476   -10.683814    140486.34    -39425.01    2700.2846   -42125.294    33.328401    227.89674 
    7550    131.47358   -29.393084    140603.77   -39449.848    2639.4314   -42089.279    33.511058    222.76089 
    7600    131.52444   -147.26477    140562.26   -39441.686    2640.4526   -42082.139    33.738938    222.84708 
    7650    130.47533   -37.634413    140569.75   -39377.422    2619.3908   -41996.813    33.875727    221.06952 
    7700    131.17003   -220.71587    140574.73   -39444.026    2633.3375   -42077.364     33.88917    222.24658 
    7750    132.09295   -27.963571    140546.21   -39494.342    2651.8658   -42146.208    34.110286    223.81032 
    7800     132.6594      20.6879    140547.11   -39439.342    2663.2377    -42102.58    34.212173    224.77007 
    7850    135.40226    29.455747    140621.42   -39411.593    2718.3027   -42129.896     34.47629    229.41741 
    7900    131.97876   -8.8952127     140694.4   -39498.633    2649.5733   -42148.207    34.745822    223.61684 
    7950    131.60443   -326.66199    140680.69   -39468.396    2642.0583   -42110.454     34.95965    222.98259 
    8000    131.97854   -79.896531     140679.7   -39446.889     2649.569   -42096.458    35.056771    223.61647 
    8050    131.61765    24.442913    140678.46   -39441.397    2642.3238   -42083.721    35.382438      223.005 
    8100    136.42553    -164.0458    140741.82   -39405.539    2738.8457   -42144.384    35.465616    231.15119 
    8150    134.99431   -173.87079    140831.59   -39385.831    2710.1129   -42095.944    35.558365    228.72622 
    8200    133.04422   -319.50027    140816.14   -39421.912    2670.9632   -42092.875    35.823657    225.42209 
    8250    132.46867   -185.35061    140794.95   -39485.028    2659.4087   -42144.437    35.952534    224.44692 
    8300    131.94879   -318.47464    140723.47   -39481.837    2648.9717   -42130.809    36.150795    223.56607 
    8350    130.24272   -288.62657    140650.14   -39521.268    2614.7211   -42135.989    36.485679    220.67541 
    8400    129.10029   -139.02423    140569.49   -39560.337    2591.7858   -42152.123    36.883758    218.73973 
    8450    130.60285   -190.24174    140590.21   -39557.125     2621.951   -42179.076    37.058151    221.28559 
    8500    131.51176    -315.2086    140527.46   -39530.381    2640.1979   -42170.579    37.216336    222.82558 
    8550    132.14487   -199.21997    140520.73   -39540.991    2652.9081   -42193.899    37.348817    223.89829 
    8600    133.75786   -112.98818    140555.93   -39496.108      2685.29   -42181.398    37.593122    226.63123 
    8650    132.78597   -252.59756    140579.32   -39502.177    2665.7788   -42167.955    38.015667    224.98454 
    8700    132.96801   -162.92407    140655.91   -39508.867    2669.4333   -42178.301    38.284878    225.29297 
    8750    130.61378   -52.353132    140671.07   -39498.438    2622.1704   -42120.608    38.499971    221.30411 
    8800    132.75898    28.967901    140770.67   -39438.352    2665.2369   -42103.589    38.718059     224.9388 
    8850    132.43495   -364.42631    140830.38   -39454.838    2658.7317    -42113.57    38.887733    224.38978 
    8900    132.52028   -229.11056     140775.2   -39471.263    2660.4448   -42131.708    39.023823    224.53436 
    8950    130.05774   -348.39548    140779.69   -39426.429    2611.0074   -42037.436    39.258247    220.36198 
    9000    132.68268    -133.4387    140737.14   -39408.013    2663.7051   -42071.719    39.550993    224.80952 
    9050    131.91161   -412.93244    140699.49   -39378.306    2648.2253   -42026.531    39.749662    223.50307 
    9100    134.62364   -310.70236     140736.1   -39330.967    2702.6714   -42033.638    39.970317    228.09817 
    9150    132.17273    -253.0153    140759.17   -39356.855    2653.4674   -42010.323    40.341521    223.94549 
    9200    133.34853   -148.78971    140665.85   -39337.468    2677.0725    -42014.54    40.557373     225.9377 
    9250    133.60183   -69.106811    140760.54   -39368.758    2682.1577   -42050.916    40.891185    226.36687 
    9300    134.96798   -166.84889    140806.29   -39338.454    2709.5842   -42048.038    41.211376    228.68159 
    9350    133.70556   -180.65894    140791.01   -39343.472    2684.2401   -42027.712    41.551018    226.54263 
    9400    135.16873   -222.79744    140790.98   -39383.903    2713.6144   -42097.517    41.613883    229.02174 
    9450    133.96189   -114.75747    140801.94   -39378.819    2689.3861   -42068.205     41.66516    226.97693 
    9500    133.61223    -159.3911    140811.88    -39347.66    2682.3665   -42030.027    41.914913     226.3845 
    9550    133.27278   -69.077299    140869.06    -39382.27    2675.5517   -42057.821    42.167442    225.80934 
    9600    135.62294   -188.72517    140899.71   -39337.669    2722.7331   -42060.402    42.272162    229.79133 
    9650    135.59095   -105.51561    140902.18   -39332.228    2722.0908   -42054.319    42.391106    229.73712 
    9700    132.54264   -108.44376    140942.97   -39362.723    2660.8937   -42023.616    42.662246    224.57225 
    9750    133.98634   -236.99415    140980.43   -39330.563     2689.877    -42020.44    42.844966    227.01837 
    9800     135.9029   -49.090818       140934   -39360.868    2728.3535   -42089.221    42.799413    230.26568 
    9850    133.11289   -209.95461     140930.6   -39446.271    2672.3418   -42118.613    43.022153    225.53844 
    9900     131.5459   -249.60689    140933.55   -39444.543    2640.8834   -42085.426    43.071046    222.88343 
    9950    132.68437    -137.0801    140904.22   -39455.754    2663.7391   -42119.493    43.180479    224.81239 
   10000    130.83136   -174.01185    140872.75   -39479.661    2626.5384   -42106.199     43.00519    221.67276 
   10050    132.66684   -4.4425717    140886.69   -39452.075     2663.387   -42115.462    43.103557    224.78268 
   10100    133.27207   -5.8647997    140950.47   -39452.736    2675.5374   -42128.274    43.265195    225.80814 
   10150    133.31302    4.3012972    140995.07   -39430.096    2676.3596   -42106.455    43.315364    225.87753 
   10200    134.98535   -111.65204    141077.81   -39440.051    2709.9329   -42149.984    43.585787    228.71103 
   10250     133.9112   -30.122021    141069.46   -39444.676    2688.3685   -42133.045    43.981241    226.89105 
   10300    134.26267   -107.97328    141119.96   -39462.151    2695.4245   -42157.576    44.173373    227.48655 
   10350     131.3211   -231.23424    141143.99    -39524.49    2636.3703    -42160.86    44.384725    222.50254 
   10400    133.36208   -335.92669    141050.36   -39506.964    2677.3446   -42184.309    44.377548    225.96066 
   10450     132.0334   -150.13477    141085.06   -39499.933    2650.6703   -42150.604     44.61087    223.70943 
   10500    132.72032   -270.94367    141096.96   -39514.372    2664.4608   -42178.833    44.712403     224.8733 
   10550    129.71967   -221.25968     141122.3   -39560.136    2604.2205   -42164.357    44.757319    219.78919 
   10600     128.9218   -411.44589    141109.47   -39571.616    2588.2025   -42159.819    44.942598    218.43731 
   10650    129.64158   -305.33486    141073.55   -39597.428    2602.6528   -42200.081    45.052789    219.65687 
   10700    131.40998   -228.83062    140976.11   -39568.578    2638.1546   -42206.733    45.298006    222.65313 
   10750    130.62246   -375.70255    141007.65    -39542.48    2622.3447   -42164.825    45.666776    221.31882 
   10800    131.13018   -158.61166    141017.51   -39517.752    2632.5375    -42150.29    45.843937    222.17906 
   10850    131.33286   -175.10283    141064.37   -39477.962    2636.6065   -42114.568    45.852241    222.52247 
   10900    131.19306   -273.67911    141093.34   -39527.245    2633.7999   -42161.044    46.087566    222.28561 
   10950    133.01345   -99.935693    141107.23   -39498.886    2670.3454   -42169.232    46.262387    225.36995 
   11000    132.91031    45.608812    141215.59   -39488.579    2668.2749   -42156.854    46.523583     225.1952 
   11050    134.13698   -419.83699    141145.27   -39446.921    2692.9012   -42139.823    46.627825    227.27359 
   11100    131.74128   -365.07456    141101.74   -39465.679    2644.8057   -42110.484    47.028477    223.21447 
   11150    132.46966    25.212939     141163.4   -39433.908    2659.4286   -42093.337    47.196459     224.4486 
   11200    131.05499   -273.22551    141237.07   -39472.948     2631.028   -42103.976    47.510533    222.05167 
   11250    133.33274   -247.67775    141212.37   -39509.098    2676.7556   -42185.854     47.46092    225.91095 
   11300    131.83555   -125.06921    141224.68   -39530.903    2646.6983   -42177.602    47.809251     223.3742 
   11350    131.94878   -158.40456    141181.58   -39472.074    2648.9714   -42121.046    48.046034    223.56604 
   11400    134.96917   -243.48708    141188.29   -39415.885    2709.6082   -42125.493    48.255905    228.68362 
   11450    134.37633   -287.04276    141128.02    -39453.17    2697.7063   -42150.876     48.50543    227.67913 
   11500    134.82979   -282.24691    141144.65   -39442.859    2706.8099   -42149.669    48.630706    228.44746 
   11550    130.72141   -342.97084    141040.98   -39428.376    2624.3311   -42052.707    48.946837    221.48647 
   11600     132.3227   -116.27928    140970.74   -39462.986    2656.4783   -42119.464    49.182672     224.1996 
   11650    134.78853   -313.71407    141034.22   -39429.669    2705.9817    -42135.65     49.28793    228.37755 
   11700    133.17101   -254.93544    140991.21   -39412.174    2673.5087   -42085.683    49.397621    225.63692 
   11750    134.16876   -355.08166    140995.66   -39443.559    2693.5393   -42137.098    49.654105    227.32745 
   11800    136.69774   -245.51192    140963.45    -39461.14    2744.3104   -42205.451    49.873754    231.61239 
   11850    135.15562   -421.42403    140934.99   -39443.533    2713.3511   -42156.884    50.155419    228.99952 
   11900      131.993   -150.85865    140969.69   -39452.631    2649.8592    -42102.49     50.40279    223.64097 
   11950     132.8322   -150.62699    140965.87   -39475.212    2666.7068   -42141.919    50.717453    225.06286 
   12000    132.32959   -115.34033    141046.94   -39548.906    2656.6166   -42205.522    51.001192    224.21128 
   12050    133.42541   -215.80848    141137.93   -39541.584    2678.6159     -42220.2    51.503391    226.06795 
   12100    133.72097   -326.61174    141191.29   -39507.665    2684.5496   -42192.214    51.774473    226.56875 
   12150    131.28039    29.430647     141258.2   -39497.496    2635.5531   -42133.049    51.937734    222.43357 
   12200    132.56277   -200.09526    141303.57   -39449.837    2661.2978   -42111.134    52.081423    224.60636 
   12250    131.95929   -292.50389    141271.46    -39485.09    2649.1824   -42134.272     52.12515    223.58385 
   12300     130.7315   -193.79018    141206.05   -39506.611    2624.5336   -42131.144    52.154439    221.50355 
   12350    134.02578   -213.64517    141199.23   -39456.288    2690.6688   -42146.957    52.268625    227.08519 
   12400    132.83536   -349.67418    141179.25   -39480.032    2666.7702   -42146.802    52.377291    225.06821 
   12450    134.47813   -215.63727    141160.85   -39494.267      2699.75   -42194.017    52.395882    227.85162 
   12500    131.17635   -347.45568    141127.18   -39516.217    2633.4643   -42149.682    52.477724    222.25728 
   12550    132.87681   -335.98601    141106.84   -39498.185    2667.6025   -42165.788    52.649466    225.13845 
   12600     133.7917   -67.211055    141120.51   -39492.577    2685.9695   -42178.546    52.712959    226.68858 
   12650    133.72779   -335.10904    141126.81   -39454.223    2684.6865    -42138.91    52.920141     226.5803 
   12700    133.52402   -245.17215    141123.36   -39445.361    2680.5956   -42125.956    53.088616    226.23503 
   12750    130.60907   -353.71647    141038.75   -39494.785    2622.0758   -42116.861    53.196989    221.29612 
   12800    132.94085    -426.8609    141038.74   -39500.119     2668.888   -42169.007     53.44641    225.24694 
   12850    130.49027   -181.19577    141033.09   -39503.491    2619.6908   -42123.181    53.643006    221.09484 
   12900    132.01318   -228.00493    140997.86   -39478.401    2650.2643   -42128.665    53.872158    223.67516 
   12950    136.44538   -273.97376    141007.54   -39419.576    2739.2442    -42158.82    53.978817    231.18482 
   13000    134.73778   -77.992947    140976.76    -39403.97    2704.9627   -42108.932    54.155881    228.29156 
   13050     136.3568   -301.75462     141030.9   -39361.037    2737.4658   -42098.503    54.578833    231.03473 
   13100    133.85596   -333.51235    140983.73   -39393.375    2687.2595   -42080.635    54.778387    226.79745 
   13150    135.21195   -442.94062    140945.77   -39402.392     2714.482   -42116.874    55.104937    229.09496 
   13200    129.66159   -327.12463    140904.46   -39433.189    2603.0544   -42036.243    55.212725    219.69077 
   13250    136.14061   -287.68284    140977.86   -39439.869    2733.1255   -42172.995    55.395551    230.66842 
   13300    130.99084   -25.005113       141045   -39488.436    2629.7401   -42118.176    55.630646    221.94297 
   13350    135.27057   -187.13653    141055.27   -39449.157    2715.6588   -42164.816    55.741514    229.19428 
   13400    133.72442   -113.99994    141092.13   -39437.368    2684.6188   -42121.986    56.125985    226.57459 
   13450    132.90691    -461.0393    141073.41   -39476.953    2668.2067    -42145.16    56.537391    225.18945 
   13500    131.32066   -304.72532    140985.38   -39465.344    2636.3615   -42101.706    56.785819     222.5018 
   13550     132.5776   -184.32119    140952.05   -39462.234    2661.5954   -42123.829    57.035483    224.63148 
   13600    132.69349   -325.44259    140939.84   -39510.433    2663.9221   -42174.355    57.298797    224.82784 
   13650    135.06438   -190.03242    140976.96   -39454.119    2711.5194   -42165.638    57.540273    228.84493 
   13700    131.27108     -208.872    140945.81   -39427.096    2635.3662   -42062.462      57.8087     222.4178 
   13750    134.82968   -246.05509    141001.69   -39332.284    2706.8077   -42039.091    58.130716    228.44726 
   13800    137.01927   -314.99664    141035.48    -39311.82    2750.7654   -42062.585     58.44344    232.15718 
   13850     134.3855   -288.33379    141058.99    -39329.22    2697.8905   -42027.111    58.866531    227.69468 
   13900    136.11056   -103.35024    141040.16   -39328.743    2732.5222   -42061.265    59.020793    230.61751 
   13950    134.99122   -353.73128    141062.81   -39307.849    2710.0507   -42017.899    59.239593    228.72097 
   14000    133.28802   -255.96614    141074.02   -39356.678    2675.8577   -42032.536    59.433866    225.83517 
   14050    133.26698   -274.84919    141079.48   -39337.515    2675.4354    -42012.95    59.689731    225.79953 
   14100    134.82565   -327.91451    141016.54   -39351.912    2706.7268   -42058.639    60.016087    228.44044 
   14150    133.71785    49.405704    140954.52   -39361.297    2684.4869   -42045.784    60.334296    226.56346 
   14200    133.78252    -89.62111    140914.39   -39378.469    2685.7851   -42064.254    60.612944    226.67302 
   14250    133.81795   -321.86188    140857.68   -39358.099    2686.4964   -42044.595    60.722836    226.73305 
   14300    133.72849   -188.54784    140835.33   -39368.803    2684.7005   -42053.503    60.753683    226.58148 
   14350    132.46006   -433.17949    140831.98   -39425.968    2659.2358   -42085.204    61.086326    224.43233 
   14400    133.20945   -328.79047    140826.12   -39400.074    2674.2804   -42074.354    61.250087    225.70205 
   14450    133.96765   -247.77722    140843.76   -39372.293    2689.5018   -42061.794    61.467602     226.9867 
   14500    135.37605   -238.81702    140750.56   -39382.522    2717.7765   -42100.298    61.626343      229.373 
   14550    132.78056   -359.41277    140706.13   -39425.884    2665.6701   -42091.554    61.704466    224.97537 
   14600    132.71465    -442.3283     140689.8   -39358.915    2664.3469   -42023.262    61.866343    224.86369 
   14650     134.7536   -250.26566    140630.16   -39368.771    2705.2803   -42074.052    62.085179    228.31836 
   14700    132.65899   -204.03658    140627.67   -39358.284    2663.2295   -42021.514    62.378209    224.76939 
   14750     133.7938   -390.17158    140545.15   -39354.965    2686.0116   -42040.977    62.566901    226.69213 
   14800    134.75374   -281.02385    140540.54     -39318.4    2705.2831   -42023.683    62.942902    228.31859 
   14850     135.3402   -312.11671    140584.52   -39340.298    2717.0569   -42057.355    63.065893    229.31227 
   14900    133.57359   -197.73515    140565.29   -39330.124    2681.5908   -42011.715    63.354854    226.31903 
   14950    134.55567   -241.47742    140503.01   -39376.192    2701.3067   -42077.498    63.584531      227.983 
   15000    131.13836   -205.86886    140410.61   -39415.028    2632.7016    -42047.73    63.586542    222.19291 
   15050    133.82782   -234.78193    140463.18   -39429.603    2686.6947   -42116.297    63.621508    226.74978 
   15100      133.158    -169.0991    140540.22   -39464.424    2673.2476   -42137.671    64.078333    225.61488 
   15150    135.84291   -224.74191    140556.85   -39386.044    2727.1491   -42113.193    64.399834    230.16402 
   15200    135.55177   -172.50066    140651.88   -39392.108    2721.3042   -42113.413    64.664547    229.67073 
   15250    131.31569   -226.45565    140675.68   -39440.899    2636.2617   -42077.161      64.7063    222.49337 
   15300    131.77284   -36.955948    140685.48   -39483.116    2645.4393   -42128.555    64.921096    223.26794 
   15350    129.39793   -351.00855    140677.69   -39497.663    2597.7611   -42095.424    65.190606    219.24403 
   15400     133.8429   -273.82158    140611.62   -39446.834    2686.9974   -42133.831    65.384699    226.77533 
   15450    133.51101   -256.37666    140580.49   -39462.796    2680.3345    -42143.13    65.519095      226.213 
   15500    132.49871   -202.72186    140595.18   -39460.923    2660.0117   -42120.935    65.810921    224.49781 
   15550    132.43423   -58.251171    140572.24   -39458.575    2658.7173   -42117.292    66.077775    224.38856 
   15600    131.34029   -156.14081    140607.46   -39485.522    2636.7555   -42122.277    66.345667    222.53505 
   15650    130.30912   -180.95288    140553.37   -39481.548    2616.0541   -42097.602    66.396324    220.78791 
   15700    132.21359   -131.49044    140628.71   -39499.302    2654.2878    -42153.59    66.543791    224.01473 
   15750    130.30371   -293.19649    140692.01   -39519.004    2615.9455   -42134.949    66.882147    220.77874 
   15800    134.83224   -241.80821     140689.4   -39480.097    2706.8591   -42186.957    67.046095     228.4516 
   15850     131.4504   -179.58721    140811.27   -39512.026    2638.9661   -42150.992    67.335378    222.72162 
   15900     134.2293   -147.90438    140868.83   -39533.648    2694.7546   -42228.403    67.476867    227.43002 
   15950    133.47555   -179.16021    140913.23   -39563.011    2679.6225   -42242.633    67.586879    226.15291 
   16000    130.53973   -369.52452    140914.46   -39518.144    2620.6837   -42138.828    67.954327    221.17864 
   16050    134.82696    -292.9712    140904.61   -39534.087    2706.7532    -42240.84    68.317572    228.44267 
   16100    134.17127   -336.13613     140890.7   -39505.463    2693.5896   -42199.053    68.558034    227.33169 
   16150    132.10955   -297.16172    140912.16   -39515.784    2652.1991   -42167.983    68.703455    223.83845 
   16200    130.63356   -172.19087    140915.04    -39507.18    2622.5673   -42129.748    69.022246    221.33761 
   16250    133.82054   -150.61383    140920.66   -39490.471    2686.5486    -42177.02    69.215013    226.73745 
   16300    134.63991   -270.05179    140960.11   -39466.111    2702.9979   -42169.109    69.544866    228.12573 
   16350    131.83881   -389.01021    140915.53   -39461.913    2646.7638   -42108.677    69.741781    223.37972 
   16400    133.08471    -212.5751    140827.67   -39445.081    2671.7761   -42116.857    69.805272     225.4907 
   16450    133.79415   -33.256989    140924.16   -39400.893    2686.0186   -42086.911    70.003791    226.69272 
   16500    131.92934    -256.9301    140996.57   -39423.432    2648.5812   -42072.013    70.204192    223.53311 
   16550    136.52218    -238.5384    141069.89   -39423.422    2740.7858   -42164.208    70.413686    231.31493 
   16600      134.361   -267.56021    141031.56   -39454.325    2697.3985   -42151.724    70.705489    227.65316 
   16650    133.32142   -273.07577    140990.66    -39515.87    2676.5282   -42192.398    70.860234    225.89176 
   16700    131.30452   -329.48693    140970.21   -39513.383    2636.0374   -42149.421    71.197251    222.47445 
   16750    133.03473   -130.28832    140913.49   -39531.296    2670.7727   -42202.069    71.329348    225.40601 
   16800    132.28179    -270.1751    140910.36   -39552.916    2655.6569   -42208.573    71.411527    224.13028 
   16850    132.53078   -174.05438    140816.54   -39540.772    2660.6556   -42201.428      71.4594    224.55216 
   16900    131.87918   -306.69967     140773.5   -39535.103    2647.5743   -42182.677    71.688396    223.44813 
   16950    130.98322   -245.85475    140651.42   -39554.771    2629.5871   -42184.358    71.730506    221.93005 
   17000      133.128   -155.54821    140680.61   -39558.802    2672.6451   -42231.447    71.869122    225.56404 
   17050    129.91117   -247.35738    140713.52   -39541.187    2608.0649   -42149.252     72.28335    220.11365 
   17100    134.41712   -144.44963     140713.8   -39534.767    2698.5253   -42233.292    72.505768    227.74825 
   17150    129.38145    -159.7723    140663.39   -39496.644    2597.4304   -42094.074    72.610889    219.21612 
   17200     132.2827   -227.82664     140649.2   -39531.177    2655.6752   -42186.853      72.8121    224.13183 
   17250    130.76348   -96.975493    140576.96   -39558.655    2625.1756   -42183.831    73.151536    221.55774 
   17300    130.95219   -156.29456    140615.47   -39535.587    2628.9642   -42164.552    73.528135    221.87749 
   17350    130.63635   -103.04952       140671   -39566.317    2622.6235   -42188.941    73.643018    221.34235 
   17400    132.25582   -155.66967    140642.59   -39573.269    2655.1355   -42228.404    73.768609    224.08628 
   17450    132.27641    -103.8225    140675.96   -39528.436    2655.5489   -42183.985    74.023418    224.12116 
   17500    132.61735   -138.04013    140682.76   -39520.469    2662.3935   -42182.863    74.051574    224.69883 
   17550    132.76827   -164.67504    140599.09    -39478.13    2665.4234   -42143.554    74.118423    224.95455 
   17600    133.09972   -175.89334    140633.53   -39485.683    2672.0775    -42157.76    74.181302    225.51613 
   17650     131.3467   -98.120939     140743.5   -39540.527    2636.8843   -42177.411    74.473872    222.54592 
   17700    133.08219   -275.34953    140745.76     -39494.5    2671.7255   -42166.226    74.701467    225.48643 
   17750    132.77918   -245.73446    140755.98   -39428.311    2665.6423   -42093.954    74.814804    224.97302 
   17800    132.31454   -268.87817       140726   -39494.948    2656.3144   -42151.262    74.968041    224.18577 
   17850    132.69812   -167.22302    140707.26   -39484.653    2664.0151   -42148.668    75.257382    224.83569 
   17900    131.68056   -197.83096    140707.69   -39482.334    2643.5868   -42125.921    75.436201    223.11159 
   17950     131.4514   -281.67063    140639.92   -39489.993    2638.9862    -42128.98    75.485353    222.72331 
   18000    131.35906   -283.13502    140602.98    -39515.08    2637.1323   -42152.212    75.619468    222.56685 
   18050    133.57557   -153.79594    140563.76   -39450.898    2681.6306   -42132.529    75.759027    226.32238 
   18100    132.36867   -372.88379    140531.98   -39478.843     2657.401   -42136.244    76.170148    224.27747 
   18150    131.14773   -421.41357    140472.07   -39469.933    2632.8898   -42102.822     76.13236    222.20879 
   18200    133.17975   -157.34666    140354.62   -39502.737    2673.6841   -42176.421     75.82707    225.65172 
   18250    131.45533   -146.42501    140319.47   -39487.762     2639.065   -42126.827     75.89477    222.72997 
   18300    130.32863   -217.86225    140309.66   -39495.799    2616.4457   -42112.245    76.124241    220.82096 
   18350    132.86833   -263.57777    140388.29   -39469.513    2667.4321   -42136.945    76.332173    225.12408 
   18400     129.9942   -273.29181    140407.88   -39504.791    2609.7318   -42114.523    76.588386    220.25433 
   18450    131.90354   -260.03461    140399.88   -39479.816    2648.0633   -42127.879    76.837952     223.4894 
   18500    132.51299    -165.4038    140447.45   -39483.024    2660.2984   -42143.322    76.967966    224.52201 
   18550    132.96372     -341.665    140432.45   -39490.503    2669.3472    -42159.85    77.183935     225.2857 
   18600    131.52502   -298.80304    140432.37    -39543.06    2640.4641   -42183.524    77.517251    222.84805 
   18650    128.72514   -199.62831    140421.81   -39534.013    2584.2545   -42118.268    77.687802    218.10411 
   18700    129.11958   -252.27892    140374.12   -39537.033    2592.1731   -42129.206    77.866428    218.77242 
   18750    133.71265   -147.99881    140352.78   -39518.175    2684.3825   -42202.557    78.018269    226.55464 
   18800    135.84374   -172.71619    140332.37    -39474.98    2727.1657   -42202.146    78.135589    230.16543 
   18850    133.86416   -185.88195    140328.56   -39470.732    2687.4241   -42158.156    78.379073    226.81134 
   18900    133.20216    18.909913    140310.58   -39485.793    2674.1341   -42159.927     78.68141     225.6897 
   18950    133.56777    146.04357    140374.19   -39463.788     2681.474   -42145.262    79.054158    226.30917 
   19000    131.72962   -64.208434    140409.73   -39486.483    2644.5717   -42131.055    79.210383    223.19472 
   19050    133.13091   -170.74614    140380.37   -39491.195    2672.7037   -42163.898    79.151193    225.56898 
   19100    131.80878   -24.274338    140400.35   -39463.385    2646.1608   -42109.546     79.44209    223.32883 
   19150    133.20611   -93.747443    140411.07   -39451.955    2674.2134   -42126.169    79.815284    225.69639 
   19200    133.35603   -79.508873    140486.13   -39429.169     2677.223   -42106.392    80.193109     225.9504 
   19250    131.83707   -157.73878    140485.99    -39410.91    2646.7288   -42057.639    80.511504    223.37677 
   19300    134.46107   -247.95774    140508.59   -39416.519    2699.4075   -42115.926    80.888578    227.82271 
   19350    133.16087   -23.621093    140577.92   -39428.232    2673.3051   -42101.537    81.233028    225.61974 
   19400    132.41591   -143.52682     140700.1   -39459.237    2658.3494   -42117.586     81.66578    224.35752 
   19450    130.39282   -249.64708    140710.79   -39461.851    2617.7343   -42079.585    81.965329    220.92972 
   19500    130.72418   -296.75229     140762.7   -39476.881    2624.3866   -42101.268    82.367156    221.49115 
   19550    130.91087   -407.22164    140806.46   -39488.674    2628.1347   -42116.808    82.420611    221.80748 
   19600    129.05668   -195.97531    140841.94   -39511.097    2590.9103   -42102.007    82.992495    218.66584 
   19650    132.39386   -116.48599    140899.05   -39482.548    2657.9069   -42140.455    83.121977    224.32017 
   19700    131.31271   -406.19617     140859.3   -39462.693    2636.2019   -42098.895    83.582579    222.48833 
   19750    131.16732   -145.52025    140881.57   -39452.229    2633.2831   -42085.512    83.642258    222.24199 
   19800    129.71383   -36.756368    140882.38   -39467.692    2604.1032   -42071.795    83.975634    219.77929 
   19850    130.71572   -214.60114    140932.37   -39487.401    2624.2169   -42111.618    84.255818    221.47682 
   19900    130.72829    -129.3751    140977.22   -39483.043    2624.4693   -42107.512    84.305037    221.49813 
   19950    130.87064   -186.47704    140978.97   -39443.474     2627.327   -42070.801     84.47227    221.73931 
   20000    131.59441   -238.09927    140989.22   -39481.277    2641.8572   -42123.134    84.564436    222.96562 
   20050    131.31699   -84.383133    141008.94   -39461.911    2636.2878   -42098.199    84.649939    222.49558 
   20100       131.96   -246.88715    140968.02   -39468.497    2649.1967   -42117.694    84.888926    223.58506 
   20150    132.15088   -214.58758    140990.67   -39424.695    2653.0289   -42077.724    85.099816    223.90848 
   20200    132.96665   -234.10728    140938.75   -39428.335     2669.406   -42097.741    85.465866    225.29066 
   20250    129.92486   -67.039469    140862.64   -39477.862    2608.3398   -42086.202    85.763628    220.13684 
   20300    131.49699   -94.387403    140903.56   -39503.726    2639.9014   -42143.628    86.103951    222.80056 
   20350    129.35599   -243.44067    140918.85   -39543.764    2596.9192   -42140.684    86.426843    219.17297 
   20400    130.88218   -375.78163     140925.6   -39563.354    2627.5586   -42190.913    87.011524    221.75886 
   20450    129.38454   -175.04495    140886.71   -39524.259    2597.4924   -42121.752     87.27681    219.22135 
   20500    131.69355   -105.81516    140984.37   -39394.593    2643.8476   -42038.441    87.597858     223.1336 
   20550    132.76474   -228.34358     141016.5   -39394.787    2665.3524    -42060.14    87.862109    224.94855 
   20600    134.80539    -119.0927    141103.75   -39369.187    2706.3201   -42075.507    88.186879    228.40611 
   20650    135.54388   -399.06983    141252.83   -39341.298    2721.1459   -42062.443    88.414677    229.65737 
   20700    137.51051   -186.03521    141271.63   -39304.531    2760.6273   -42065.158    88.664062     232.9895 
   20750    135.60003   -269.05631    141260.11   -39318.413    2722.2731   -42040.686    89.097648     229.7525 
   20800    136.45608   -130.07844    141281.79   -39347.829    2739.4589   -42087.288    89.425319    231.20294 
   20850    133.10215   -270.09181    141294.32   -39381.402    2672.1263   -42053.529    89.545144    225.52025 
   20900     131.5966   -152.58806     141357.9   -39377.361    2641.9013   -42019.262    89.920835    222.96934 
   20950    131.83827   -281.06966    141313.06   -39428.562    2646.7529   -42075.315     90.08802     223.3788 
   21000    134.30014   -323.76176    141223.71    -39352.18    2696.1768   -42048.357     89.99379    227.55005 
   21050    131.85669    -94.67059    141209.66   -39394.965    2647.1227   -42042.087      90.4381    223.41002 
   21100    132.20736   -161.25397    141220.22   -39407.898    2654.1627   -42062.061    90.583914    224.00417 
   21150    132.34543   -196.07601    141170.22   -39411.236    2656.9345    -42068.17    90.623089    224.23811 
   21200    134.32234   -132.80662    141233.72   -39440.084    2696.6225   -42136.707    90.773311    227.58766 
   21250    132.09453   -345.79272    141180.61   -39471.012    2651.8975   -42122.909    91.006639    223.81299 
   21300     133.3966   -324.15664    141102.67   -39414.471    2678.0376   -42092.509    91.243153    226.01915 
   21350    133.92083   -308.34187    141073.81   -39400.778    2688.5619    -42089.34    91.476312    226.90737 
   21400    133.17789   -337.10773    141013.66   -39393.347    2673.6468   -42066.994    91.682887    225.64858 
   21450    129.48713    -355.4516    140951.78   -39407.067    2599.5521   -42006.619    91.912816    219.39518 
   21500    133.91172   -250.59628    140872.92   -39374.487     2688.379   -42062.866    92.192073    226.89193 
   21550     130.9235   -297.89104    140806.87   -39384.553    2628.3883   -42012.941    92.687017    221.82888 
   21600    133.06744   -280.42519    140753.36   -39395.621    2671.4293   -42067.051    92.907594    225.46143 
   21650    133.11026   -135.12944    140739.03   -39441.357     2672.289   -42113.646    92.871602    225.53399 
   21700    132.60898   -264.18221    140741.28   -39448.208    2662.2256   -42110.433    93.112347    224.68465 
   21750    133.86502   -138.82667    140729.73   -39468.929    2687.4415    -42156.37    93.340322    226.81281 
   21800    134.62552   -224.70997     140748.1   -39461.655     2702.709   -42164.364    93.708185    228.10135 
   21850    132.86135   -101.12829    140743.45   -39471.646    2667.2921   -42138.938    93.981619    225.11225 
   21900    133.52674   -131.75404    140809.87   -39432.809    2680.6503   -42113.459    94.031525    226.23965 
   21950     132.0598   -185.89645    140891.63    -39454.14    2651.2003   -42105.341    94.231557    223.75415 
   22000    130.51107    -218.4445    140828.01   -39460.164    2620.1083   -42080.272    94.319863    221.13008 
   22050     131.4171   -324.26739    140748.68   -39491.888    2638.2976   -42130.186     94.62795     222.6652 
   22100    132.63074   -469.95213    140588.86   -39475.112    2662.6623   -42137.774    94.421169    224.72152 
   22150    132.59179   -245.00213    140630.71   -39471.813    2661.8803   -42133.693    94.667625    224.65552 
   22200    130.83236   -548.89554    140608.73   -39497.431    2626.5584   -42123.989    94.962892    221.67444 
   22250    131.81638   -347.91203     140529.5   -39486.206    2646.3135    -42132.52    95.190237    223.34172 
   22300    130.84594   -242.46293    140518.03   -39462.436    2626.8312   -42089.267    95.545635    221.69747 
   22350    131.81416   -326.66195     140439.1   -39415.545    2646.2689   -42061.814    95.902904    223.33796 
   22400    130.83006   -118.03522    140412.64    -39453.06    2626.5123   -42079.572    96.148352    221.67055 
   22450    130.00299   -123.13883    140454.42   -39470.875    2609.9083   -42080.783    96.108161    220.26922 
   22500    131.08293   -194.46594    140443.67   -39442.848    2631.5889   -42074.437    96.063612      222.099 
   22550    130.32373   -133.03251    140494.05   -39422.056    2616.3473   -42038.404    96.497175    220.81265 
   22600    132.08981   -358.11046    140541.86   -39392.373    2651.8028   -42044.176    96.523368    223.80501 
   22650    132.50135   -164.68396    140577.15   -39453.792    2660.0647   -42113.857    96.473074    224.50228 
   22700     128.5919   -336.24522    140608.75   -39509.266    2581.5796   -42090.846    96.416397    217.87835 
   22750    130.61339   -275.13569    140567.37   -39510.475    2622.1624   -42132.637    96.703414    221.30343 
   22800    130.11589   -166.27229    140562.25   -39499.801    2612.1748   -42111.975    96.835133    220.46051 
   22850    132.55838   -221.93579    140582.36   -39440.758    2661.2096   -42101.968    97.064016    224.59892 
   22900    132.43723   -142.97108    140659.84   -39445.044    2658.7774   -42103.821    97.321477    224.39364 
   22950    130.99828   -104.74482    140680.87   -39428.576    2629.8895   -42058.465    97.691398    221.95558 
   23000    131.54444   -176.48031    140700.38   -39439.168     2640.854   -42080.022    97.654576    222.88095 
   23050    131.00725   -250.48705    140626.04   -39441.483    2630.0695   -42071.552    97.810275    221.97077 
   23100    131.70429   -104.48646    140600.43   -39423.693    2644.0631   -42067.756    98.026351     223.1518 
   23150    133.50555   -168.70526    140663.02   -39386.917    2680.2248   -42067.142    98.048628    226.20374 
   23200    132.82908   -249.06288    140632.63   -39396.087    2666.6441   -42062.731    98.355995    225.05756 
   23250     129.9922    -298.1219     140576.1   -39397.253    2609.6916   -42006.945    98.522591    220.25093 
   23300    135.39269   -386.56903    140480.49   -39373.013    2718.1105   -42091.123    98.837358    229.40119 
   23350    132.19579   -299.09508     140418.6   -39379.624    2653.9303   -42033.554    99.095091    223.98456 
   23400    133.17716   -69.905666     140406.7   -39383.392    2673.6322   -42057.024    99.394941    225.64734 
   23450    132.57622   -11.871302    140458.77   -39402.498    2661.5679   -42064.066    99.565348    224.62915 
   23500    131.46315   -224.51783    140402.42   -39413.115     2639.222   -42052.337    99.731348    222.74322 
   23550    133.80385   -426.76092    140461.49   -39372.801    2686.2135   -42059.015    99.895445    226.70917 
   23600    132.51402   -223.53603    140435.12   -39417.343    2660.3191   -42077.662    99.981248    224.52376 
   23650    131.34016   -17.540219    140453.61   -39403.873    2636.7529   -42040.626     100.3898    222.53483 
   23700    131.28047    -37.81898    140533.62    -39414.21    2635.5547   -42049.765    100.72338    222.43371 
   23750    132.61823   -112.62943    140583.67   -39414.184    2662.4111   -42076.595    100.77564    224.70032 
   23800    132.67722   -408.36994    140582.67   -39407.289    2663.5954   -42070.885    101.13948    224.80027 
   23850     130.8507   -98.148998    140534.66   -39396.339    2626.9267   -42023.266    101.35459    221.70552 
   23900    132.43741   -176.98523    140534.86   -39414.682    2658.7811   -42073.463    101.46348    224.39395 
   23950    132.90364    -273.1182    140569.41   -39351.878    2668.1409   -42020.019    101.73489     225.1839 
   24000    137.60919   -280.63595    140594.03   -39363.218    2762.6085   -42125.826     102.0022     233.1567 
   24050    131.78299    -214.2585    140599.22   -39351.006    2645.6432   -41996.649    102.57183    223.28515 
   24100    135.10164   -318.20561    140510.99   -39334.425    2712.2675   -42046.693    102.95805    228.90806 
   24150    136.07352    -94.10421    140489.78   -39344.316    2731.7787   -42076.095    103.30685    230.55475 
   24200    133.91212   -25.877032    140538.49   -39321.345    2688.3871   -42009.732     103.5907    226.89261 
   24250    135.06049   -144.00515    140582.81   -39328.094    2711.4414   -42039.535    103.57287    228.83834 
   24300    132.34884   -238.68332    140599.97   -39336.338     2657.003   -41993.341    103.85182    224.24389 
   24350    135.18929   -37.739012    140668.92   -39341.172    2714.0273   -42055.199    104.19971    229.05658 
   24400    134.06668   -319.46879    140672.19   -39392.983    2691.4898   -42084.473    104.60834    227.15448 
   24450    133.76456    21.455266    140776.79   -39409.926    2685.4247   -42095.351    105.00543     226.6426 
   24500    133.61273   -218.15798    140813.96   -39402.067    2682.3766   -42084.443    105.38924    226.38535 
   24550    135.41182   -85.593655    140836.86   -39406.433    2718.4945   -42124.927    105.85801    229.43361 
   24600    129.95667    -260.9773    140938.38   -39472.128    2608.9783   -42081.106     106.2562    220.19073 
   24650     132.3889   -342.55388    140942.67    -39482.23    2657.8072   -42140.037    106.20823    224.31176 
   24700    132.73925   -261.57233    140983.58   -39497.144    2664.8408   -42161.985    106.19833    224.90537 
   24750    132.38567   -158.16259    141093.37   -39470.272    2657.7424   -42128.014    106.53816    224.30629 
   24800    132.59707   -147.63716    141094.59   -39468.455    2661.9864   -42130.441    106.85333    224.66447 
   24850    132.96602   -266.93512    141097.15   -39462.647    2669.3934   -42132.041    107.00098     225.2896 
   24900    130.19524    -132.3455    141065.82   -39481.834    2613.7678   -42095.602    107.27237    220.59495 
   24950    130.39717   -281.74405     141051.9   -39491.784    2617.8218   -42109.606    107.56687     220.9371 
   25000    132.55042   -289.95501    140962.28   -39475.691    2661.0499   -42136.741    107.74002    224.58543 
   25050    129.90717   -270.22971    140841.43   -39492.753    2607.9846   -42100.738     107.8418    220.10686 
   25100    132.89536   -208.55995    140775.17   -39483.854    2667.9748   -42151.829    108.00271    225.16987 
   25150    133.88627   -306.93456    140727.27   -39452.037     2687.868   -42139.905    108.28931    226.84881 
   25200    132.42228   -287.85081     140784.1   -39423.849    2658.4773   -42082.326    108.50436    224.36831 
   25250    135.58508    18.806613    140803.53   -39365.782     2721.973   -42087.755    108.75957    229.72718 
   25300    132.88232   -52.720566    140805.72   -39365.283    2667.7129   -42032.996    109.05369    225.14777 
   25350     132.8001   -42.221225     140898.5   -39309.854    2666.0623   -41975.917    109.28617    225.00847 
   25400    135.06031   -129.63389    140921.06   -39319.882    2711.4379    -42031.32    109.57813    228.83804 
   25450    135.75121   -405.48016    140809.11   -39319.172    2725.3082   -42044.481    109.66187    230.00866 
   25500    135.22268   -214.09413    140789.43   -39315.136    2714.6975   -42029.833    109.88957    229.11314 
   25550    133.51442   -251.76047    140842.33   -39310.869    2680.4028   -41991.272    110.06829    226.21876 
   25600    132.76755   -34.948867    140823.17   -39290.881    2665.4088    -41956.29    110.29644    224.95332 
   25650    133.97774   -230.14426    140828.51   -39250.018    2689.7044   -41939.723    110.40164     227.0038 
   25700    132.01243   -250.35472    140863.78   -39315.052    2650.2493   -41965.301    110.43846    223.67389 
   25750     137.6187   -224.23956    140820.65   -39295.255    2762.7993   -42058.054    110.79426    233.17281 
   25800    133.41787   -183.90419    140813.14   -39290.664    2678.4646   -41969.129     110.9288    226.05519 
   25850    134.62367   -263.99412     140769.5   -39324.732     2702.672   -42027.404    111.23043    228.09823 
   25900    133.18648   -451.53274    140690.83   -39361.629    2673.8193   -42035.448    111.69635    225.66313 
   25950    133.58492   -284.07474    140535.77   -39317.602    2681.8182   -41999.421    111.92349    226.33822 
   26000     134.2666   -198.06359    140462.27   -39359.526    2695.5034   -42055.029    111.96916    227.49322 
   26050    132.57831   -306.35645     140438.8   -39393.619    2661.6098   -42055.229    112.12342    224.63269 
   26100    133.30646    51.901408    140430.24   -39397.251     2676.228   -42073.479    112.51128    225.86642 
   26150    134.02771   -212.89408     140430.2   -39362.951    2690.7076   -42053.659    112.78416    227.08846 
   26200    130.52622   -294.76966    140416.01   -39413.259    2620.4125   -42033.672    112.73957    221.15575 
   26250    130.51366   -75.677458    140413.02   -39348.355    2620.1603   -41968.515    112.82676    221.13446 
   26300    132.31075   -206.45704     140381.6   -39393.899    2656.2382   -42050.137     112.7755    224.17934 
   26350    132.07132   -129.26907     140338.8    -39405.26    2651.4316   -42056.691    113.14291    223.77368 
   26400    132.09681   -69.883672    140333.51   -39422.677    2651.9433   -42074.621    113.28903    223.81686 
   26450    133.64388   -97.044582    140339.24   -39416.845     2683.002   -42099.847    113.38317    226.43813 
   26500    131.81852   -299.26939    140291.27    -39378.43    2646.3564   -42024.786    113.88114    223.34534 
   26550    131.73865   -261.22747    140310.36   -39340.441     2644.753   -41985.194    114.39612    223.21002 
   26600    131.45042   -270.22756    140395.37   -39362.227    2638.9665   -42001.193    114.91858    222.72166 
   26650    133.36738   -130.00524    140398.11   -39351.601     2677.451   -42029.052    115.23443    225.96964 
   26700    131.98945   -33.934823    140406.68   -39379.443     2649.788   -42029.231    115.32838    223.63496 
   26750    133.31739   -16.404758    140510.36   -39349.295    2676.4473   -42025.742    115.71284    225.88493 
   26800    136.66786   -12.868651    140611.05   -39307.892    2743.7106   -42051.603     116.0465    231.56177 
   26850    133.08606   -212.47951    140683.75   -39327.711    2671.8033   -41999.514    116.55779    225.49299 
   26900    131.45512   -204.48447    140658.58   -39356.663    2639.0608   -41995.724     116.4446    222.72961 
   26950    133.81597   -316.32953    140602.12   -39354.339    2686.4568   -42040.796    116.52148     226.7297 
   27000    132.39654    83.523326    140560.48   -39370.453    2657.9606   -42028.414    116.75827     224.3247 
   27050    130.73621   -67.625271    140612.69   -39397.043    2624.6282   -42021.671    116.85166    221.51154 
   27100    130.23493   -62.718912    140674.34   -39390.778    2614.5645   -42005.342    117.25275    220.66219 
   27150    132.63982   -79.535327     140784.2   -39312.272    2662.8445   -41975.116    117.65647     224.7369 
   27200    135.42988  -0.60149918    140878.18   -39240.571    2718.8571   -41959.428     117.5735     229.4642 
   27250    132.83067   -203.28855     140974.5   -39272.965    2666.6762   -41939.641    117.83401    225.06028 
   27300    134.41719   -436.87115    140923.71   -39312.191    2698.5268   -42010.718    117.99784    227.74838 
   27350    133.98541   -198.73963    140863.74   -39338.063    2689.8584   -42027.921    118.31807    227.01679 
   27400    132.80827   -148.18665    140835.47   -39351.373    2666.2264   -42017.599    118.35893    225.02232 
   27450     133.8362    -254.1696    140835.33   -39375.803    2686.8628   -42062.666    118.50512    226.76397 
   27500    134.04925   -341.66824    140781.44   -39414.454    2691.1399   -42105.594    118.64798    227.12495 
   27550    132.56082   -252.30974    140734.15   -39345.939    2661.2586   -42007.197    118.98686    224.60304 
   27600    132.12472   -62.533567     140679.4   -39352.009    2652.5036   -42004.513    119.20966    223.86415 
   27650    132.39043   -193.93687    140665.29   -39365.533    2657.8379    -42023.37    119.33463    224.31435 
   27700    132.88521   -130.67811    140712.63   -39382.301    2667.7711   -42050.072    119.61228    225.15268 
   27750    131.89357   -206.32659    140689.08   -39397.784    2647.8632   -42045.647    119.91659    223.47251 
   27800     132.9809   -201.12122    140682.38   -39376.757    2669.6921   -42046.449    119.85526    225.31481 
   27850    133.97582   -268.85474    140707.73   -39418.126    2689.6658   -42107.792    120.13204    227.00054 
   27900    134.36508   -156.06924    140665.04   -39426.616    2697.4804   -42124.096    120.63934    227.66007 
   27950    131.91466   -408.04026    140642.68   -39447.272    2648.2865   -42095.558    121.16862    223.50823 
   28000    132.22763   -253.14282    140555.51   -39438.837    2654.5696   -42093.406    121.56346    224.03851 
   28050    132.38464   -239.93786    140525.14   -39458.648    2657.7217    -42116.37    122.24286    224.30454 
   28100    132.54574   -54.194106    140448.98   -39432.575    2660.9559   -42093.531    122.46515     224.5775 
   28150    132.02449   -64.944289    140446.64   -39421.814    2650.4915   -42072.306     122.5502    223.69433 
   28200    132.24414    7.5655501    140479.82   -39453.936    2654.9011   -42108.838    122.75686    224.06649 
   28250    131.41995   -137.31321    140502.52   -39473.275    2638.3549    -42111.63    123.06649    222.67003 
   28300    131.53426    -254.0513    140465.68   -39408.006    2640.6496   -42048.655    123.02495     222.8637 
   28350    133.07732   -28.489492     140468.8   -39413.569    2671.6278   -42085.197    123.31043    225.47818 
   28400    136.05101     28.97635    140501.52   -39397.064    2731.3269   -42128.391    123.78997    230.51662 
   28450     128.6413   -180.69512    140545.66   -39455.442    2582.5714   -42038.013    123.79242    217.96206 
   28500    134.35377   -119.54926    140454.73   -39426.124    2697.2534   -42123.377     123.8274    227.64091 
   28550     128.4293   -174.62255    140506.66   -39425.272    2578.3152   -42003.587    124.37784    217.60285 
   28600    132.02783    -129.7218    140444.98   -39410.772    2650.5585   -42061.331    124.66311    223.69999 
   28650    131.10337   -44.655061    140480.36   -39454.125    2631.9993   -42086.124    125.14766    222.13364 
   28700    134.18186    42.841697    140483.17   -39402.581    2693.8023   -42096.384    125.36338    227.34965 
   28750    133.17872   -29.837581    140586.64    -39408.94    2673.6635   -42082.603    125.49153    225.64999 
   28800    134.26644   -187.61573    140595.88   -39383.697    2695.5003   -42079.197     125.2147    227.49295 
   28850    132.99393   -4.3964708    140619.04   -39455.869    2669.9536   -42125.823    125.19464    225.33688 
   28900    133.43986    60.984143    140729.46   -39393.391     2678.906   -42072.297    125.37661    226.09244 
   28950    133.57437   -191.81024    140840.63   -39433.047    2681.6064   -42114.654    125.70113    226.32035 
   29000    133.11414   -336.88772    140882.11   -39428.599     2672.367   -42100.966     126.0889    225.54056 
   29050    133.04629   -242.17643    140886.68   -39413.209    2671.0049   -42084.214    126.30326    225.42561 
   29100    131.65627    -241.9006    140899.28    -39464.25     2643.099   -42107.349    126.19405    223.07043 
   29150    131.67478   -119.48335    140945.18   -39467.457    2643.4707   -42110.928    126.31345     223.1018 
   29200    131.15434   -306.03507    140952.01   -39448.578    2633.0225   -42081.601    126.12398       222.22 
   29250    133.70362   -228.11377    140876.24   -39403.866    2684.2012   -42088.067    126.03653    226.53934 
   29300    132.43869   -351.11118    140787.24   -39439.605    2658.8068   -42098.412    126.26516    224.39612 
   29350    132.26936   -235.98769    140614.05   -39430.866    2655.4075   -42086.274    126.23058    224.10923 
   29400    134.08595   -238.83626    140613.86   -39407.614    2691.8767    -42099.49    126.50291    227.18714 
   29450    131.92123   -78.225214     140597.5   -39394.722    2648.4184    -42043.14    126.67434    223.51937 
   29500    132.24429   -84.254318    140653.76   -39421.422    2654.9041   -42076.326    126.72424    224.06675 
   29550    136.08226   -179.99791    140728.46   -39400.808    2731.9543   -42132.762    126.66857    230.56957 
   29600    132.34587   -19.295712    140796.26   -39479.309    2656.9433   -42136.252    126.87092    224.23885 
   29650    130.06702   -227.10637    140775.99   -39469.019    2611.1938   -42080.213    127.21441    220.37771 
   29700    133.20069   -245.54831    140701.99   -39485.192    2674.1046   -42159.296    127.46511    225.68721 
   29750    133.67379   -225.88052    140741.58   -39443.421    2683.6023   -42127.023    127.54137    226.48879 
   29800    131.65964   -282.14294     140735.5   -39426.837    2643.1667   -42070.004    127.74531    223.07614 
   29850    131.86824    -395.0571     140705.3   -39421.083    2647.3546   -42068.438    127.89206    223.42958 
   29900    135.45402   -410.76612    140702.32   -39414.663    2719.3418   -42134.005    128.17326    229.50512 
   29950    131.28169   -302.39029    140625.69   -39420.256    2635.5792   -42055.835    128.08049    222.43577 
   30000    134.10238   -226.25562    140691.68   -39397.357    2692.2066   -42089.564    128.07961    227.21497 
   30050    137.47483   -97.419105    140685.93   -39390.221     2759.911   -42150.132    128.20955    232.92905 
   30100    136.93674   -229.76508    140771.07   -39448.427    2749.1085   -42197.535    128.47987    232.01734 
   30150    134.41557   -213.72902    140751.51   -39468.043    2698.4942   -42166.537    128.70097    227.74563 
   30200    132.82781    12.917538    140809.98   -39482.151    2666.6187    -42148.77    128.83008    225.05542 
   30250    128.26006   -24.996249    140794.75    -39516.06    2574.9177   -42090.978    128.99682    217.31611 
   30300    133.77716   -209.93027    140803.59   -39415.084    2685.6775   -42100.761    129.05021    226.66394 
   30350     135.5081   -149.53584    140788.28    -39415.37    2720.4275   -42135.798    129.12832    229.59674 
   30400    135.63318   -134.41826    140723.99   -39420.097    2722.9386   -42143.035    129.12776    229.80867 
   30450    130.28389   -96.957159    140687.24   -39454.304    2615.5475   -42069.852    129.05745    220.74516 
   30500    130.62353   -294.17492    140686.79   -39494.903     2622.366   -42117.269    129.20291    221.32062 
   30550    134.17281    -311.8713    140664.36   -39490.403    2693.6206   -42184.024    129.35118    227.33431 
   30600     130.7906   -268.01305    140644.21   -39511.795    2625.7201   -42137.516     129.4497    221.60369 
   30650     130.4041   -390.06582    140585.09   -39541.595    2617.9609   -42159.556    129.57144    220.94884 
   30700    133.08663   -73.053434    140610.82    -39465.41    2671.8147   -42137.225    129.88434    225.49395 
   30750    129.16441   -276.20915    140664.56   -39455.447    2593.0732    -42048.52    129.99538    218.84839 
   30800    134.83194   -148.79688    140619.63   -39396.827     2706.853    -42103.68    130.02322    228.45109 
   30850    134.66405   -77.289145    140593.73   -39375.336    2703.4826   -42078.818    130.41365    228.16664 
   30900    133.51991   -88.430991    140585.56   -39413.341     2680.513   -42093.855    130.55153    226.22807 
   30950    132.76215    2.2660917    140605.41   -39443.471    2665.3006   -42108.771    130.91189    224.94418 
   31000     133.8848   -241.10308    140624.47   -39413.995    2687.8386   -42101.833    131.19791    226.84632 
   31050    132.15126   -131.13675     140602.8   -39428.189    2653.0363   -42081.225    131.48177    223.90911 
   31100    133.27355   -174.76382    140586.77   -39427.152    2675.5672    -42102.72    131.39589    225.81066 
   31150    135.04336   -526.76313    140536.02   -39418.577    2711.0975   -42129.674    131.41507    228.80931 
   31200    132.82192   -461.40129    140450.17   -39384.342    2666.5005   -42050.842    131.35323    225.04545 
   31250     131.5024   -224.58582    140392.16   -39414.295    2640.0101   -42054.305    131.34393    222.80973 
   31300    133.95354   -169.95045    140383.27   -39391.551    2689.2186    -42080.77    131.57086    226.96279 
   31350    131.53472   -195.73907    140392.18   -39424.912    2640.6589   -42065.571    131.92789    222.86449 
   31400    133.41494   -211.14968    140453.28   -39484.374    2678.4058    -42162.78    131.85324    226.05022 
   31450    130.57671   -32.586659    140430.98   -39444.335    2621.4262   -42065.761    132.04772     221.2413 
   31500    129.59426   -249.03062    140409.46   -39499.674    2601.7028   -42101.377    132.18001     219.5767 
   31550     133.1129   -228.77146    140379.48   -39459.838    2672.3421    -42132.18    132.35266    225.53847 
   31600    131.75424   -289.45269    140341.78   -39465.164     2645.066    -42110.23    132.54637    223.23643 
   31650    130.14539   -256.59057    140286.36   -39462.295    2612.7671   -42075.062      132.864     220.5105 
   31700    130.51102   -67.366348    140304.13     -39419.7    2620.1073   -42039.807    133.07128    221.12998 
   31750    134.97481    -183.0976    140325.09    -39424.72    2709.7213   -42134.441    133.60242    228.69317 
   31800    129.79781   -121.89943    140351.21   -39402.548    2605.7892   -42008.337    134.04529    219.92158 
   31850    131.77645   -221.63386    140335.14   -39471.708    2645.5117    -42117.22    134.41824    223.27405 
   31900     131.3616   -350.54387     140333.6   -39426.026    2637.1834    -42063.21    134.54368    222.57117 
   31950    132.32347     51.51666    140361.93   -39407.728    2656.4936   -42064.222    135.00573    224.20089 
   32000    134.91631   -191.45875     140411.3   -39397.234     2708.547   -42105.781    135.32602    228.59406 
   32050    134.67717   -168.97842    140489.57   -39404.285     2703.746   -42108.031    135.34735    228.18887 
   32100    135.98323   -64.218987    140513.71   -39407.589    2729.9661   -42137.555    135.67211    230.40177 
   32150    132.78228   -85.668341    140543.55   -39407.162    2665.7045   -42072.867     135.8483    224.97827 
   32200    133.37067   -218.14878    140637.32   -39384.915    2677.5169   -42062.432    136.38247    225.97521 
   32250    134.49746   -262.04323    140630.69    -39379.67    2700.1381   -42079.808    136.40803    227.88437 
   32300     133.9791    -162.5734    140629.67   -39393.779    2689.7316    -42083.51    136.53238    227.00609 
   32350    130.84611   -70.820355     140655.4   -39450.366    2626.8345   -42077.201    136.54148    221.69775 
   32400    133.97667   -178.00473    140637.89   -39441.862    2689.6829   -42131.544    136.63046    227.00198 
   32450    132.65746   -122.49466    140701.41   -39439.543    2663.1988   -42102.741    136.82497    224.76679 
   32500    131.97313    32.024587    140734.91   -39444.571    2649.4603   -42094.031     137.1404     223.6073 
   32550    133.52273    65.223616    140747.11   -39447.193    2680.5697   -42127.762    137.34312    226.23285 
   32600    132.64614   -190.63688    140867.08   -39426.527    2662.9714   -42089.498    137.55952     224.7476 
   32650    132.17057   -253.24365    140774.32   -39419.376     2653.424     -42072.8    137.59136    223.94183 
   32700    134.24422   -224.94357    140723.76   -39430.692    2695.0543   -42125.746    137.44274    227.45531 
   32750    131.56319     -260.104    140678.75   -39421.209    2641.2305    -42062.44    137.75928    222.91273 
   32800     134.0381   -116.91267    140686.61   -39417.287    2690.9161   -42108.203    137.80691    227.10606 
   32850    133.41776   -164.03639    140722.39   -39370.391    2678.4623   -42048.853    138.02624    226.05499 
   32900    132.87503   -191.38442    140740.31   -39386.466    2667.5667   -42054.033    138.10749    225.13543 
   32950    133.00842   -63.838497    140792.22    -39397.11    2670.2446   -42067.355      138.512    225.36144 
   33000     132.7403   -240.16089    140836.56   -39351.851    2664.8618   -42016.713    138.54713    224.90715 
   33050    131.97021   -475.66014    140823.51   -39392.353    2649.4017   -42041.754    138.77379    223.60236 
   33100     133.8549   -44.214447    140891.74   -39361.709    2687.2382   -42048.947    138.97025    226.79565 
   33150    134.78328   -451.36816    140907.65   -39365.028    2705.8762   -42070.904    138.87256    228.36865 
   33200    134.26385    -31.20033    140904.41   -39362.203    2695.4482   -42057.651    139.26223    227.48855 
   33250    135.92312   -118.40386    140917.23   -39315.008    2728.7594   -42043.767    139.63054    230.29993 
   33300    133.98032   -47.229644    140922.16   -39358.492    2689.7561   -42048.249    139.74345    227.00816 
   33350    135.57235   -297.83006    140880.84   -39400.245    2721.7174   -42121.963    140.08027    229.70561 
   33400    131.94045   -142.93317     140833.6   -39410.442    2648.8042   -42059.246    140.33294    223.55193 
   33450    131.03618   -154.93249    140776.62   -39455.115    2630.6504   -42085.765    140.63851     222.0198 
   33500    135.33521   -468.36257    140710.33   -39406.959    2716.9566   -42123.915    140.88668     229.3038 
   33550    132.58421   -36.379747    140696.02   -39329.499    2661.7282   -41991.227    141.35168    224.64268 
   33600    135.09642   -232.10062    140733.08   -39311.708    2712.1626    -42023.87    141.60054    228.89921 
   33650    132.57962    25.881982    140719.54    -39328.31    2661.6361   -41989.946     141.7031     224.6349 
   33700    130.90368    46.484958    140757.53   -39415.502    2627.9903   -42043.492    141.81057    221.79529 
   33750    130.08821   -39.833724    140769.02   -39449.234     2611.619   -42060.853    141.84912     220.4136 
   33800    130.95748   -136.75932    140753.54   -39423.016    2629.0703   -42052.086    141.76711    221.88644 
   33850    130.38895   -137.98576    140773.28   -39428.156    2617.6567   -42045.813      142.143    220.92316 
   33900    131.73408   -284.72275     140867.7   -39442.636    2644.6611   -42087.297    142.38696    223.20226 
   33950     133.0623   -239.71848    140952.94   -39412.828    2671.3263   -42084.154    142.63232    225.45273 
[...]
   92000    135.24375   -192.20507    140924.14   -39367.611    2715.1206   -42082.731    397.37554    229.14885 
   92050    132.24402   -258.70544    140928.16   -39411.719    2654.8987   -42066.618    397.29973    224.06629 
   92100    133.34757   -339.15583     140887.5   -39472.974    2677.0532   -42150.027    397.29773    225.93607 
   92150    132.49729   -285.79009     140804.1   -39466.603    2659.9832   -42126.586    397.53894     224.4954 
   92200    129.54175   -274.32592    140805.84   -39496.538    2600.6485   -42097.187    397.44248    219.48772 
   92250    129.19615   -182.32481    140741.73   -39500.063    2593.7104   -42093.774    397.34046    218.90216 
   92300    129.70869   -140.95242    140751.05   -39510.092         2604   -42114.092    397.18711    219.77057 
   92350     133.9601   -137.99419     140738.3   -39462.773    2689.3501   -42152.123    397.53804     226.9739 
   92400    130.98262   -500.68085    140679.31   -39405.956    2629.5751   -42035.531    397.92098    221.92905 
   92450    131.44324   -194.59444    140608.15   -39402.776    2638.8223   -42041.598    397.79927    222.70949 
   92500     130.9218    -149.0403    140508.33   -39416.007    2628.3541   -42044.361    398.08689    221.82599 
   92550    132.27953   -4.7527812    140506.21   -39445.628    2655.6114   -42101.239    397.62701    224.12644 
   92600    133.55646   -186.78295    140557.61    -39360.82    2681.2469   -42042.067    398.24209       226.29 
   92650    131.62017   -111.51558    140585.79   -39357.024    2642.3743   -41999.398    398.03956    223.00927 
   92700    133.43636   -210.47857    140594.56   -39350.246    2678.8358   -42029.082    397.73895    226.08651 
   92750    133.52852    -104.9766    140604.77   -39365.683    2680.6859   -42046.369    398.02052    226.24266 
   92800    132.74015    -136.1915    140586.62   -39341.349    2664.8587   -42006.207    398.00815    224.90689 
   92850    136.77294   -248.64346    140582.09   -39363.886    2745.8201   -42109.706    397.91649    231.73981 
   92900    134.76366    6.5383463    140656.29   -39337.439    2705.4823   -42042.921    397.80643    228.33541 
   92950    131.87105   -155.41821    140700.64   -39398.003     2647.411   -42045.415    398.09213    223.43435 
   93000    129.73421   -380.97668    140659.79   -39421.788    2604.5123   -42026.301    397.84174    219.81382 
   93050     131.0634   -277.51979    140574.07   -39486.844    2631.1968   -42118.041    398.24792    222.06591 
   93100    133.75708   -235.61373    140538.89   -39446.344    2685.2744   -42131.618    398.58372    226.62992 
   93150    133.68329   -216.49991    140545.99   -39446.689     2683.793   -42130.482    398.53356    226.50489 
   93200    130.34187   -13.718616    140607.51   -39479.542    2616.7115   -42096.253    398.69104     220.8434 
   93250    132.20784   -69.442567    140685.12   -39465.938    2654.1724    -42120.11    399.07624    224.00499 
   93300    131.69771   -263.17287    140744.55    -39457.57    2643.9311   -42101.501    399.59219    223.14066 
   93350     132.5125   -185.93069    140679.69   -39476.979    2660.2886   -42137.268    399.41753    224.52118 
   93400    132.00374   -162.37836    140618.42   -39467.099    2650.0748   -42117.174    399.38487    223.65916 
   93450    133.32218   -194.37737     140589.1   -39447.529    2676.5436   -42124.073    399.55048    225.89306 
   93500    131.23058    25.735435    140642.04   -39433.194    2634.5531   -42067.747    399.79915    222.34917 
   93550    132.72496   -209.43068    140689.94   -39434.307     2664.554   -42098.861    399.95006    224.88117 
   93600    133.02686   -359.12219    140636.16   -39446.831    2670.6148   -42117.445      399.797    225.39268 
   93650    132.78666   -195.02487     140616.1   -39447.493    2665.7926   -42113.285    399.98246     224.9857 
   93700    130.85046   -125.78765    140639.38   -39491.279    2626.9219   -42118.201    400.15051    221.70512 
   93750    130.50415   -110.28875    140617.19   -39474.927    2619.9694   -42094.896    400.54465    221.11835 
   93800      131.593   -150.73547    140627.83   -39436.853     2641.829   -42078.682    400.94537    222.96324 
   93850    131.51159   -251.31416    140612.88   -39431.101    2640.1945   -42071.295    400.69872    222.82529 
   93900    134.04179   -240.47605    140542.85    -39427.77    2690.9903    -42118.76    400.46075    227.11232 
   93950    133.79881   -232.78562    140572.92   -39453.979    2686.1123   -42140.092    401.01503    226.70063 
   94000     133.2236   -75.526485     140619.1   -39456.938    2674.5645   -42131.502     401.3029    225.72603 
   94050    133.49885   -63.525283    140716.88    -39452.51    2680.0903   -42132.601    401.52152    226.19239 
   94100    134.08162   -161.23378    140841.17   -39480.631    2691.7898   -42172.421    402.37138     227.1798 
   94150    129.99852   -442.38347    140778.94   -39499.381    2609.8185   -42109.199    401.95416    220.26164 
   94200    132.65574    -106.4029    140732.98   -39504.522    2663.1641   -42167.686    401.90557    224.76387 
   94250    131.11542   -78.603166    140778.71   -39471.171     2632.241   -42103.412    402.17111    222.15404 
   94300    130.79459   -297.04507    140726.35   -39495.155    2625.8002   -42120.955    402.35413    221.61045 
   94350    134.07141   -194.19028    140687.15   -39440.335     2691.585    -42131.92    402.64374    227.16251 
   94400    134.01523   -35.951178    140675.01   -39475.647    2690.4569   -42166.104    402.57138    227.06731 
   94450    133.07641   -86.517535     140640.3   -39469.639    2671.6095   -42141.248    402.39246    225.47663 
   94500    131.60138    38.012938    140779.38   -39469.465    2641.9972   -42111.462     403.0664    222.97744 
   94550    131.64236   -217.63444    140864.26   -39502.379    2642.8199   -42145.199    403.15498    223.04687 
   94600    131.18709   -239.71012     140844.3   -39474.177      2633.68   -42107.857    402.97937    222.27548 
   94650    131.08856   -327.01544    140747.91   -39455.157     2631.702   -42086.859    402.62571    222.10855 
   94700    130.44102   -163.27994    140746.71   -39452.677     2618.702   -42071.379     402.4793    221.01139 
   94750    133.55922   -286.70619    140739.61   -39455.378    2681.3022    -42136.68    402.63068    226.29468 
   94800    132.58284   -329.97502    140689.84   -39451.316    2661.7007   -42113.016    402.57723    224.64036 
   94850    131.15685   -97.292036    140649.78   -39422.791    2633.0729   -42055.864    402.92038    222.22425 
   94900     133.8576   -311.47744    140648.64   -39402.499    2687.2925   -42089.791    402.99394    226.80024 
   94950    131.41935   -34.482991    140644.01    -39445.68    2638.3429   -42084.023    402.77989    222.66902 
   95000    134.33992   -155.12715    140699.74   -39429.521    2696.9755   -42126.496    403.32742    227.61745 
   95050    133.51076   -127.30375    140741.67   -39426.063    2680.3294   -42106.393    403.88139    226.21257 
   95100    133.58858   -76.331172    140778.01   -39404.253    2681.8918   -42086.145    403.44876    226.34443 
   95150    134.96964   -210.92224    140868.41   -39413.411    2709.6175   -42123.028     404.0387    228.68441 
   95200    131.44779   -172.03837    140923.79   -39414.958    2638.9137   -42053.872     403.9752    222.71719 
   95250    136.42076   -218.29551    140890.05   -39385.885    2738.7498   -42124.635    404.35886    231.14309 
   95300    134.15057   -180.08027    140915.12   -39368.678     2693.174   -42061.852    405.25287    227.29662 
   95350    135.41365   -471.76368     140909.1    -39353.24    2718.5314   -42071.771    405.32928    229.43672 
   95400    134.06554   -199.63071    140913.95   -39349.341    2691.4671   -42040.808    406.00392    227.15256 
   95450    133.56724   -330.39297    140837.67   -39361.028    2681.4632   -42042.491    406.22098    226.30826 
   95500    131.07516   -283.60389    140907.38   -39382.768    2631.4328   -42014.201    406.38451    222.08583 
   95550    134.30718    -71.05737    141074.11   -39376.614    2696.3181   -42072.932    406.85361    227.56198 
   95600    130.88655   -427.79463     141103.2   -39412.182    2627.6465   -42039.828    407.44525    221.76627 
   95650    132.23525   -106.59147    141064.46   -39393.212    2654.7227   -42047.935    407.40402    224.05143 
   95700    131.52766   -441.08115    141047.65   -39427.953    2640.5171    -42068.47    407.77658    222.85252 
   95750    131.57288   -297.21744    141035.49   -39429.119     2641.425   -42070.544    408.03599    222.92914 
   95800    130.85973   -423.19851    140949.38   -39408.717    2627.1079   -42035.825    408.05845    221.72082 
   95850    130.82471   -493.35806    140934.07   -39460.101     2626.405   -42086.506    407.47874    221.66149 
   95900    131.33599   -192.95849    140896.13    -39439.01    2636.6692   -42075.679    407.18739    222.52777 
   95950     130.6653    -155.4204    140867.57     -39390.8    2623.2047   -42014.005    407.30427     221.3914 
   96000    130.07026   -219.50335    140853.33   -39397.736    2611.2588   -42008.995    407.78037     220.3832 
   96050    128.31352   -463.94614    140745.72    -39400.07    2575.9909   -41976.061    407.76331    217.40668 
   96100    130.16058   -313.14367    140617.45   -39356.173    2613.0721   -41969.245    407.69571    220.53623 
   96150    128.76783   -233.34574    140635.47   -39357.067    2585.1115   -41942.178    407.27312    218.17644 
   96200    132.43597   -278.58032    140674.06   -39377.581    2658.7521   -42036.333    406.82714     224.3915 
   96250    134.31148   -236.76576    140738.75   -39396.473    2696.4045   -42092.878    406.96787    227.56927 
   96300     132.4266   -320.06192    140836.85   -39380.138     2658.564   -42038.702    407.32812    224.37563 
   96350    128.96641     -454.402    140836.75   -39431.186    2589.0982   -42020.284    407.70286    218.51291 
   96400    131.62092   -575.40885     140746.5   -39433.197    2642.3895   -42075.586     407.8484    223.01054 
   96450    132.22949   -414.11905    140661.71   -39409.994    2654.6069   -42064.601    407.78088    224.04166 
   96500    131.81074   -262.33394     140664.6   -39468.681    2646.2003   -42114.881    407.73005    223.33216 
   96550    128.07768   -118.43057    140736.67   -39433.591    2571.2561   -42004.847    407.89706    217.00708 
   96600    133.48072   -163.05482    140732.04   -39395.409    2679.7264   -42075.136    408.07417    226.16168 
   96650    135.72492   -161.41218    140797.12   -39382.449    2724.7804   -42107.229    408.27128    229.96411 
   96700    131.73519   -278.99231     140775.4   -39372.071    2644.6836   -42016.754    408.97076    223.20416 
   96750    132.92083   -247.82474    140745.36     -39384.5    2668.4862   -42052.986    409.29768    225.21303 
   96800    131.72973   -211.60584    140686.45   -39368.053    2644.5738   -42012.627    408.98611    223.19489 
   96850    135.34482    -127.3287    140704.07   -39409.354    2717.1496   -42126.504    409.28625     229.3201 
   96900    130.46261   -88.035669    140765.21   -39434.631    2619.1355   -42053.767    409.34182    221.04797 
   96950    132.59753   -279.81214    140773.35   -39479.159    2661.9955   -42141.155    409.51071    224.66524 
   97000      132.667   -27.445768    140868.42   -39422.841    2663.3903   -42086.232    409.59832    224.78296 
   97050     132.6814   -227.25052    140913.23   -39387.099    2663.6793   -42050.779    409.88493    224.80734 
   97100    131.05802   -173.10053     140863.2   -39419.548    2631.0888   -42050.636    410.10386     222.0568 
   97150    130.76728   -159.50594    140755.26   -39417.178    2625.2521    -42042.43    410.02485    221.56419 
   97200    130.84572   -207.28821    140688.82   -39455.788    2626.8267   -42082.615    409.70106    221.69708 
   97250    129.54591   -184.00309    140667.04    -39509.59    2600.7321   -42110.323    409.28447    219.49477 
   97300     129.0208   -88.222252    140671.89   -39489.112    2590.1901   -42079.303    409.63107    218.60506 
   97350    132.36519    -205.2677    140665.53   -39439.872    2657.3312   -42097.203    409.92357    224.27158 
   97400    132.35883   -154.38622    140711.39   -39440.261    2657.2035   -42097.464    410.20687    224.26081 
   97450    131.29279   -195.22963    140697.62   -39487.147    2635.8019   -42122.949    410.09292    222.45457 
   97500     133.4416   -147.87705    140689.21   -39513.873     2678.941   -42192.814    410.40581    226.09539 
   97550    132.43308   -81.929596    140725.74    -39490.34    2658.6942   -42149.034    410.23977    224.38662 
   97600    132.40592   -189.72829    140809.55   -39452.677    2658.1488   -42110.826     410.2037    224.34059 
   97650     132.1928     -126.582    140854.86   -39439.518    2653.8703   -42093.388    410.72455    223.97949 
   97700    131.64867   -138.78371    140841.24   -39446.944    2642.9465    -42089.89    410.96983    223.05755 
   97750    132.53088   -254.84929    140844.22   -39448.599    2660.6576   -42109.257    411.26784    224.55233 
   97800     132.7342   -226.02194    140840.85   -39426.597    2664.7393   -42091.336    411.96746    224.89681 
   97850    131.88647   -88.836074    140804.51   -39404.481    2647.7205   -42052.202     412.1256    223.46047 
   97900    131.37074   -186.50894    140789.89   -39409.317    2637.3668   -42046.684    412.66176    222.58664 
   97950    133.57299   -168.83989    140766.69     -39442.5    2681.5788   -42124.079    413.17511    226.31801 
   98000    133.85651   -132.21826    140799.39   -39419.339    2687.2706    -42106.61    413.23612    226.79839 
   98050    133.02013    -271.6604    140775.43   -39394.478    2670.4796   -42064.957    413.70882    225.38127 
   98100     131.3017    -32.23178    140756.28   -39406.875    2635.9809   -42042.856    413.81273    222.46968 
   98150    136.51304   -349.38535    140852.65   -39372.281    2740.6024   -42112.883    414.56726    231.29945 
   98200    132.35597   -288.67102    140810.94   -39400.595    2657.1461   -42057.741    414.78094    224.25596 
   98250    133.64331    -82.23272    140812.19   -39383.275    2682.9904   -42066.265    414.98748    226.43715 
   98300    133.44556   -150.37568    140873.05   -39423.808    2679.0204   -42102.828     415.4348     226.1021 
   98350    131.18085    -254.5494     140887.2   -39483.835    2633.5548    -42117.39    416.27258    222.26492 
   98400     132.1793   -264.71743    140805.21   -39483.489    2653.5992   -42137.088    416.04845    223.95662 
   98450    129.40947   -256.61953    140778.61   -39495.237    2597.9929    -42093.23    415.88139    219.26359 
   98500     130.6801   -198.77551    140737.11    -39464.94    2623.5018   -42088.442    416.26343    221.41648 
   98550    133.96381   -75.802729    140720.66   -39430.211    2689.4247   -42119.636    416.31804    226.98019 
   98600    132.43928   -281.93356    140758.93   -39355.686    2658.8186   -42014.504    416.93317    224.39712 
   98650    128.69996   -258.56128    140699.65   -39424.647     2583.749   -42008.396    416.84236    218.06144 
   98700    134.50506    6.1402273    140728.38   -39391.142    2700.2908   -42091.433    416.67239    227.89726 
   98750    131.96784   -161.21488    140784.52   -39426.323    2649.3542   -42075.677    417.05146    223.59834 
   98800     133.4176    -106.7572    140790.22   -39407.489    2678.4591   -42085.948    417.35042    226.05473 
   98850    135.58995   -200.75339    140770.96   -39382.844    2722.0706   -42104.915    417.07043    229.73542 
   98900    133.44487   -207.27238    140765.46   -39420.614    2679.0066    -42099.62    417.34679    226.10093 
   98950    132.63904   -167.55833    140816.15   -39388.906     2662.829   -42051.735    417.99382    224.73558 
   99000    134.59029   -91.274262    140795.69   -39398.578    2702.0017    -42100.58    418.06769    228.04166 
   99050    136.63067   -174.19566    140801.88   -39420.248    2742.9639   -42163.212    418.29534    231.49875 
   99100    133.15273   -225.32451    140856.61   -39469.259    2673.1417     -42142.4    418.69605    225.60595 
   99150    133.12859   -130.22161    140922.26   -39474.409    2672.6571   -42147.066    418.46404    225.56505 
   99200    133.11809    -49.99521    140868.31   -39451.865    2672.4462   -42124.311    418.58262    225.54725 
   99250    132.64047   -33.720975    140899.36   -39462.414    2662.8577   -42125.272    418.35194      224.738 
   99300    133.30001   -231.35163    140936.44   -39487.431    2676.0985    -42163.53    419.17694    225.85549 
   99350    131.92667   -113.53611    140964.63   -39506.137    2648.5276   -42154.665    419.29241    223.52858 
   99400    132.36004   -334.87864    140912.11   -39474.784    2657.2278   -42132.012    419.19705    224.26286 
   99450    134.19153   -92.737556     140938.9   -39415.513    2693.9964   -42109.509    418.85997    227.36603 
   99500    133.41998   -210.74316    140956.29   -39409.208     2678.507   -42087.715    418.87333    226.05877 
   99550    132.43966   -229.02607    140956.04   -39384.254    2658.8263    -42043.08    419.34218    224.39777 
   99600    132.79469   -158.02195    140969.49   -39396.414    2665.9537   -42062.367    419.76902     224.9993 
   99650    132.00698   -324.15549    140897.33   -39458.355    2650.1398   -42108.495    419.84839    223.66465 
   99700    131.75569   -329.67476    140833.84   -39453.971    2645.0951   -42099.066    419.81338    223.23889 
   99750    133.56275   -163.02634    140780.86   -39411.751    2681.3732   -42093.124    419.56769    226.30066 
   99800    136.11644   -444.41212    140744.13   -39371.904    2732.6404   -42104.545    420.23008    230.62748 
   99850    132.86112   -467.64142    140647.64   -39375.177    2667.2874   -42042.464    420.56247    225.11186 
   99900    131.83654   -287.27099    140578.94   -39428.154    2646.7182   -42074.873    420.40746    223.37587 
   99950    132.47778   -212.55309    140536.86   -39401.388    2659.5916    -42060.98    420.68355    224.46236 
  100000    132.24093   -334.63345    140497.73   -39428.484    2654.8367    -42083.32    421.42244    224.06105 
Loop time of 220.045 on 60 procs for 100000 steps with 6736 atoms

Performance: 196.324 ns/day, 0.122 hours/ns, 454.453 timesteps/s
99.5% CPU use with 60 MPI tasks x no OpenMP threads

MPI task timing breakdown:
Section |  min time  |  avg time  |  max time  |%varavg| %total
---------------------------------------------------------------
Pair    | 38.561     | 98.05      | 164.33     | 491.8 | 44.56
Neigh   | 1.3518     | 2.7445     | 7.7116     | 132.8 |  1.25
Comm    | 35.692     | 85.652     | 116.65     | 295.5 | 38.92
Output  | 0.21093    | 0.21493    | 0.23062    |   0.5 |  0.10
Modify  | 10.248     | 31.966     | 62.905     | 427.9 | 14.53
Other   |            | 1.418      |            |       |  0.64

Nlocal:    112.267 ave 250 max 72 min
Histogram: 48 0 0 0 0 0 0 0 2 10
Nghost:    1034.35 ave 1349 max 704 min
Histogram: 24 0 0 0 0 0 0 20 4 12
Neighs:    0 ave 0 max 0 min
Histogram: 60 0 0 0 0 0 0 0 0 0
FullNghs:  13517.2 ave 45964 max 4545 min
Histogram: 48 0 0 0 0 0 0 0 1 11

Total # of neighbors = 811032
Ave neighs/atom = 120.403
Neighbor list builds = 6131
Dangerous builds = 0

write_data		${DIR}/data.eq-${NAME}-${TEMP}
write_data		run_5/data.eq-${NAME}-${TEMP}
write_data		run_5/data.eq-het_freeze_5-${TEMP}
write_data		run_5/data.eq-het_freeze_5-225
undump          1

reset_timestep  0

unfix           2
unfix           3
unfix           4


################################################
#######         Run Simulation         #########
################################################

log				${DIR}/log.run_${NAME}
log				run_5/log.run_${NAME}
log				run_5/log.run_het_freeze_5
