LAMMPS data file via write_data, version 16 Mar 2018, timestep = 100000

4537 atoms
2 atom types

0.0000000000000000e+00 4.9219999999999999e+01 xlo xhi
0.0000000000000000e+00 4.9019635930410494e+01 ylo yhi
1.5919813869633170e+00 3.2348018613037546e+01 zlo zhi

Masses

1 18.015
2 12.01

Atoms # atomic

96 2 0.0000000000000000e+00 2.8417180249513345e+00 3.2473635700059300e+00 0 0 0
98 2 0.0000000000000000e+00 0.0000000000000000e+00 3.2473635700059300e+00 0 0 0
100 2 1.2305000000000001e+00 7.1042950623783474e-01 3.2473635700059300e+00 0 0 0
107 2 1.2305000000000001e+00 2.1312885187134998e+00 3.2473635700059300e+00 0 0 0
109 2 2.4610000000000003e+00 2.8417180249513345e+00 3.2473635700059300e+00 0 0 0
111 2 2.4610000000000003e+00 0.0000000000000000e+00 3.2473635700059300e+00 0 0 0
113 2 3.6915000000000004e+00 7.1042950623783474e-01 3.2473635700059300e+00 0 0 0
128 2 3.6914999999999996e+00 2.1312885187134998e+00 3.2473635700059300e+00 0 0 0
130 2 4.9220000000000006e+00 2.8417180249513332e+00 3.2473635700059300e+00 0 0 0
132 2 4.9220000000000006e+00 0.0000000000000000e+00 3.2473635700059300e+00 0 0 0
134 2 6.1524999999999999e+00 7.1042950623783407e-01 3.2473635700059300e+00 0 0 0
157 2 6.1524999999999999e+00 2.1312885187134989e+00 3.2473635700059300e+00 0 0 0
159 2 7.3829999999999991e+00 2.8417180249513345e+00 3.2473635700059300e+00 0 0 0
161 2 7.3829999999999991e+00 0.0000000000000000e+00 3.2473635700059300e+00 0 0 0
163 2 8.6134999999999984e+00 7.1042950623783407e-01 3.2473635700059300e+00 0 0 0
194 2 8.6134999999999984e+00 2.1312885187135002e+00 3.2473635700059300e+00 0 0 0
196 2 9.8440000000000012e+00 2.8417180249513332e+00 3.2473635700059300e+00 0 0 0
198 2 9.8440000000000012e+00 0.0000000000000000e+00 3.2473635700059300e+00 0 0 0
200 2 1.1074500000000002e+01 7.1042950623783330e-01 3.2473635700059300e+00 0 0 0
239 2 1.1074500000000002e+01 2.1312885187135002e+00 3.2473635700059300e+00 0 0 0
103 2 0.0000000000000000e+00 4.2625770374269996e+00 3.2473635700059300e+00 0 0 0
105 2 1.2305000000000001e+00 4.9730065436648339e+00 3.2473635700059300e+00 0 0 0
120 2 1.2305000000000001e+00 6.3938655561404980e+00 3.2473635700059300e+00 0 0 0
124 2 2.4610000000000003e+00 4.2625770374269996e+00 3.2473635700059300e+00 0 0 0
126 2 3.6914999999999996e+00 4.9730065436648339e+00 3.2473635700059300e+00 0 0 0
149 2 3.6914999999999996e+00 6.3938655561404980e+00 3.2473635700059300e+00 0 0 0
101 2 0.0000000000000000e+00 7.1042950623783341e+00 3.2473635700059300e+00 0 0 0
122 2 2.4610000000000003e+00 7.1042950623783341e+00 3.2473635700059300e+00 0 0 0
153 2 4.9220000000000006e+00 4.2625770374269978e+00 3.2473635700059300e+00 0 0 0
155 2 6.1524999999999999e+00 4.9730065436648339e+00 3.2473635700059300e+00 0 0 0
186 2 6.1524999999999999e+00 6.3938655561404980e+00 3.2473635700059300e+00 0 0 0
190 2 7.3829999999999991e+00 4.2625770374269996e+00 3.2473635700059300e+00 0 0 0
151 2 4.9220000000000006e+00 7.1042950623783341e+00 3.2473635700059300e+00 0 0 0
188 2 7.3830000000000009e+00 7.1042950623783341e+00 3.2473635700059300e+00 0 0 0
192 2 8.6135000000000002e+00 4.9730065436648339e+00 3.2473635700059300e+00 0 0 0
231 2 8.6135000000000002e+00 6.3938655561404980e+00 3.2473635700059300e+00 0 0 0
235 2 9.8440000000000012e+00 4.2625770374270004e+00 3.2473635700059300e+00 0 0 0
237 2 1.1074500000000002e+01 4.9730065436648339e+00 3.2473635700059300e+00 0 0 0
278 2 1.1074500000000002e+01 6.3938655561404980e+00 3.2473635700059300e+00 0 0 0
233 2 9.8440000000000012e+00 7.1042950623783341e+00 3.2473635700059300e+00 0 0 0
116 2 0.0000000000000000e+00 8.5251540748539991e+00 3.2473635700059300e+00 0 0 0
118 2 1.2305000000000001e+00 9.2355835810918343e+00 3.2473635700059300e+00 0 0 0
145 2 2.4610000000000003e+00 8.5251540748539991e+00 3.2473635700059300e+00 0 0 0
147 2 3.6915000000000004e+00 9.2355835810918343e+00 3.2473635700059300e+00 0 0 0
114 2 0.0000000000000000e+00 1.1366872099805333e+01 3.2473635700059300e+00 0 0 0
141 2 1.2305000000000001e+00 1.0656442593567498e+01 3.2473635700059300e+00 0 0 0
143 2 2.4610000000000003e+00 1.1366872099805333e+01 3.2473635700059300e+00 0 0 0
178 2 3.6914999999999996e+00 1.0656442593567499e+01 3.2473635700059300e+00 0 0 0
182 2 4.9220000000000006e+00 8.5251540748539991e+00 3.2473635700059300e+00 0 0 0
184 2 6.1524999999999999e+00 9.2355835810918343e+00 3.2473635700059300e+00 0 0 0
227 2 7.3830000000000009e+00 8.5251540748539991e+00 3.2473635700059300e+00 0 0 0
180 2 4.9220000000000006e+00 1.1366872099805333e+01 3.2473635700059300e+00 0 0 0
223 2 6.1524999999999999e+00 1.0656442593567499e+01 3.2473635700059300e+00 0 0 0
225 2 7.3829999999999991e+00 1.1366872099805333e+01 3.2473635700059300e+00 0 0 0
229 2 8.6134999999999984e+00 9.2355835810918343e+00 3.2473635700059300e+00 0 0 0
274 2 9.8440000000000012e+00 8.5251540748539956e+00 3.2473635700059300e+00 0 0 0
276 2 1.1074500000000002e+01 9.2355835810918343e+00 3.2473635700059300e+00 0 0 0
270 2 8.6134999999999984e+00 1.0656442593567498e+01 3.2473635700059300e+00 0 0 0
272 2 9.8440000000000012e+00 1.1366872099805333e+01 3.2473635700059300e+00 0 0 0
317 2 1.1074500000000002e+01 1.0656442593567498e+01 3.2473635700059300e+00 0 0 0
319 2 1.2304999999999998e+01 1.1366872099805333e+01 3.2473635700059300e+00 0 0 0
97 2 0.0000000000000000e+00 1.4208590124756650e+00 6.2569576709805785e+00 0 0 0
99 2 0.0000000000000000e+00 0.0000000000000000e+00 6.2569576709805785e+00 0 0 0
108 2 1.2305000000000001e+00 2.1312885187134998e+00 6.2569576709805785e+00 0 0 0
110 2 2.4610000000000003e+00 1.4208590124756650e+00 6.2569576709805785e+00 0 0 0
112 2 2.4610000000000003e+00 0.0000000000000000e+00 6.2569576709805785e+00 0 0 0
129 2 3.6914999999999996e+00 2.1312885187134998e+00 6.2569576709805785e+00 0 0 0
425 2 0.0000000000000000e+00 2.8417180249513345e+00 9.2665517719549513e+00 0 0 0
426 2 0.0000000000000000e+00 0.0000000000000000e+00 9.2665517719549513e+00 0 0 0
427 2 1.2305000000000001e+00 7.1042950623783474e-01 9.2665517719549513e+00 0 0 0
431 2 1.2305000000000001e+00 2.1312885187134998e+00 9.2665517719549513e+00 0 0 0
432 2 2.4610000000000003e+00 2.8417180249513345e+00 9.2665517719549513e+00 0 0 0
433 2 2.4610000000000003e+00 0.0000000000000000e+00 9.2665517719549513e+00 0 0 0
434 2 3.6915000000000004e+00 7.1042950623783474e-01 9.2665517719549513e+00 0 0 0
442 2 3.6914999999999996e+00 2.1312885187134998e+00 9.2665517719549513e+00 0 0 0
106 2 1.2305000000000001e+00 3.5521475311891644e+00 6.2569576709805785e+00 0 0 0
127 2 3.6914999999999996e+00 3.5521475311891644e+00 6.2569576709805785e+00 0 0 0
131 2 4.9220000000000006e+00 1.4208590124756650e+00 6.2569576709805785e+00 0 0 0
133 2 4.9220000000000006e+00 0.0000000000000000e+00 6.2569576709805785e+00 0 0 0
158 2 6.1524999999999999e+00 2.1312885187134989e+00 6.2569576709805785e+00 0 0 0
160 2 7.3829999999999991e+00 1.4208590124756659e+00 6.2569576709805785e+00 0 0 0
162 2 7.3829999999999991e+00 0.0000000000000000e+00 6.2569576709805785e+00 0 0 0
443 2 4.9220000000000006e+00 2.8417180249513332e+00 9.2665517719549513e+00 0 0 0
444 2 4.9220000000000006e+00 0.0000000000000000e+00 9.2665517719549513e+00 0 0 0
445 2 6.1524999999999999e+00 7.1042950623783407e-01 9.2665517719549513e+00 0 0 0
457 2 6.1524999999999999e+00 2.1312885187134989e+00 9.2665517719549513e+00 0 0 0
458 2 7.3829999999999991e+00 2.8417180249513345e+00 9.2665517719549513e+00 0 0 0
459 2 7.3829999999999991e+00 0.0000000000000000e+00 9.2665517719549513e+00 0 0 0
156 2 6.1524999999999999e+00 3.5521475311891644e+00 6.2569576709805785e+00 0 0 0
195 2 8.6134999999999984e+00 2.1312885187135002e+00 6.2569576709805785e+00 0 0 0
197 2 9.8440000000000012e+00 1.4208590124756659e+00 6.2569576709805785e+00 0 0 0
199 2 9.8440000000000012e+00 0.0000000000000000e+00 6.2569576709805785e+00 0 0 0
240 2 1.1074500000000002e+01 2.1312885187135002e+00 6.2569576709805785e+00 0 0 0
460 2 8.6134999999999984e+00 7.1042950623783407e-01 9.2665517719549513e+00 0 0 0
476 2 8.6134999999999984e+00 2.1312885187135002e+00 9.2665517719549513e+00 0 0 0
477 2 9.8440000000000012e+00 2.8417180249513332e+00 9.2665517719549513e+00 0 0 0
478 2 9.8440000000000012e+00 0.0000000000000000e+00 9.2665517719549513e+00 0 0 0
479 2 1.1074500000000002e+01 7.1042950623783330e-01 9.2665517719549513e+00 0 0 0
499 2 1.1074500000000002e+01 2.1312885187135002e+00 9.2665517719549513e+00 0 0 0
193 2 8.6134999999999984e+00 3.5521475311891657e+00 6.2569576709805785e+00 0 0 0
238 2 1.1074500000000002e+01 3.5521475311891644e+00 6.2569576709805785e+00 0 0 0
102 2 0.0000000000000000e+00 5.6834360499026637e+00 6.2569576709805785e+00 0 0 0
104 2 0.0000000000000000e+00 4.2625770374269996e+00 6.2569576709805785e+00 0 0 0
121 2 1.2305000000000001e+00 6.3938655561404980e+00 6.2569576709805785e+00 0 0 0
123 2 2.4610000000000003e+00 5.6834360499026637e+00 6.2569576709805785e+00 0 0 0
125 2 2.4610000000000003e+00 4.2625770374269996e+00 6.2569576709805785e+00 0 0 0
150 2 3.6914999999999996e+00 6.3938655561404980e+00 6.2569576709805785e+00 0 0 0
429 2 0.0000000000000000e+00 4.2625770374269996e+00 9.2665517719549513e+00 0 0 0
430 2 1.2305000000000001e+00 4.9730065436648339e+00 9.2665517719549513e+00 0 0 0
438 2 1.2305000000000001e+00 6.3938655561404980e+00 9.2665517719549513e+00 0 0 0
440 2 2.4610000000000003e+00 4.2625770374269996e+00 9.2665517719549513e+00 0 0 0
441 2 3.6914999999999996e+00 4.9730065436648339e+00 9.2665517719549513e+00 0 0 0
453 2 3.6914999999999996e+00 6.3938655561404980e+00 9.2665517719549513e+00 0 0 0
119 2 1.2305000000000001e+00 7.8147245686161639e+00 6.2569576709805785e+00 0 0 0
148 2 3.6914999999999996e+00 7.8147245686161639e+00 6.2569576709805785e+00 0 0 0
428 2 0.0000000000000000e+00 7.1042950623783341e+00 9.2665517719549513e+00 0 0 0
439 2 2.4610000000000003e+00 7.1042950623783341e+00 9.2665517719549513e+00 0 0 0
152 2 4.9220000000000006e+00 5.6834360499026637e+00 6.2569576709805785e+00 0 0 0
154 2 4.9220000000000006e+00 4.2625770374269978e+00 6.2569576709805785e+00 0 0 0
187 2 6.1524999999999999e+00 6.3938655561404980e+00 6.2569576709805785e+00 0 0 0
189 2 7.3829999999999991e+00 5.6834360499026637e+00 6.2569576709805785e+00 0 0 0
191 2 7.3829999999999991e+00 4.2625770374269996e+00 6.2569576709805785e+00 0 0 0
455 2 4.9220000000000006e+00 4.2625770374269978e+00 9.2665517719549513e+00 0 0 0
456 2 6.1524999999999999e+00 4.9730065436648339e+00 9.2665517719549513e+00 0 0 0
472 2 6.1524999999999999e+00 6.3938655561404980e+00 9.2665517719549513e+00 0 0 0
474 2 7.3829999999999991e+00 4.2625770374269996e+00 9.2665517719549513e+00 0 0 0
185 2 6.1524999999999999e+00 7.8147245686161639e+00 6.2569576709805785e+00 0 0 0
454 2 4.9220000000000006e+00 7.1042950623783341e+00 9.2665517719549513e+00 0 0 0
473 2 7.3830000000000009e+00 7.1042950623783341e+00 9.2665517719549513e+00 0 0 0
232 2 8.6135000000000002e+00 6.3938655561404980e+00 6.2569576709805785e+00 0 0 0
234 2 9.8440000000000012e+00 5.6834360499026637e+00 6.2569576709805785e+00 0 0 0
236 2 9.8440000000000012e+00 4.2625770374270004e+00 6.2569576709805785e+00 0 0 0
279 2 1.1074500000000002e+01 6.3938655561404980e+00 6.2569576709805785e+00 0 0 0
475 2 8.6135000000000002e+00 4.9730065436648339e+00 9.2665517719549513e+00 0 0 0
495 2 8.6135000000000002e+00 6.3938655561404980e+00 9.2665517719549513e+00 0 0 0
497 2 9.8440000000000012e+00 4.2625770374270004e+00 9.2665517719549513e+00 0 0 0
498 2 1.1074500000000002e+01 4.9730065436648339e+00 9.2665517719549513e+00 0 0 0
519 2 1.1074500000000002e+01 6.3938655561404980e+00 9.2665517719549513e+00 0 0 0
230 2 8.6135000000000002e+00 7.8147245686161639e+00 6.2569576709805785e+00 0 0 0
277 2 1.1074500000000002e+01 7.8147245686161639e+00 6.2569576709805785e+00 0 0 0
496 2 9.8440000000000012e+00 7.1042950623783341e+00 9.2665517719549513e+00 0 0 0
115 2 0.0000000000000000e+00 9.9460130873296642e+00 6.2569576709805785e+00 0 0 0
117 2 0.0000000000000000e+00 8.5251540748539991e+00 6.2569576709805785e+00 0 0 0
144 2 2.4610000000000003e+00 9.9460130873296642e+00 6.2569576709805785e+00 0 0 0
146 2 2.4610000000000003e+00 8.5251540748539991e+00 6.2569576709805785e+00 0 0 0
436 2 0.0000000000000000e+00 8.5251540748539991e+00 9.2665517719549513e+00 0 0 0
437 2 1.2305000000000001e+00 9.2355835810918343e+00 9.2665517719549513e+00 0 0 0
451 2 2.4610000000000003e+00 8.5251540748539991e+00 9.2665517719549513e+00 0 0 0
452 2 3.6915000000000004e+00 9.2355835810918343e+00 9.2665517719549513e+00 0 0 0
140 2 1.2305000000000001e+00 1.2077301606043163e+01 6.2569576709805785e+00 0 0 0
142 2 1.2305000000000001e+00 1.0656442593567498e+01 6.2569576709805785e+00 0 0 0
177 2 3.6914999999999996e+00 1.2077301606043163e+01 6.2569576709805785e+00 0 0 0
179 2 3.6914999999999996e+00 1.0656442593567499e+01 6.2569576709805785e+00 0 0 0
435 2 0.0000000000000000e+00 1.1366872099805333e+01 9.2665517719549513e+00 0 0 0
449 2 1.2305000000000001e+00 1.0656442593567498e+01 9.2665517719549513e+00 0 0 0
450 2 2.4610000000000003e+00 1.1366872099805333e+01 9.2665517719549513e+00 0 0 0
468 2 3.6914999999999996e+00 1.0656442593567499e+01 9.2665517719549513e+00 0 0 0
181 2 4.9220000000000006e+00 9.9460130873296642e+00 6.2569576709805785e+00 0 0 0
183 2 4.9220000000000006e+00 8.5251540748539991e+00 6.2569576709805785e+00 0 0 0
226 2 7.3830000000000009e+00 9.9460130873296642e+00 6.2569576709805785e+00 0 0 0
228 2 7.3830000000000009e+00 8.5251540748539991e+00 6.2569576709805785e+00 0 0 0
470 2 4.9220000000000006e+00 8.5251540748539991e+00 9.2665517719549513e+00 0 0 0
471 2 6.1524999999999999e+00 9.2355835810918343e+00 9.2665517719549513e+00 0 0 0
493 2 7.3830000000000009e+00 8.5251540748539991e+00 9.2665517719549513e+00 0 0 0
222 2 6.1524999999999999e+00 1.2077301606043163e+01 6.2569576709805785e+00 0 0 0
224 2 6.1524999999999999e+00 1.0656442593567499e+01 6.2569576709805785e+00 0 0 0
469 2 4.9220000000000006e+00 1.1366872099805333e+01 9.2665517719549513e+00 0 0 0
491 2 6.1524999999999999e+00 1.0656442593567499e+01 9.2665517719549513e+00 0 0 0
492 2 7.3829999999999991e+00 1.1366872099805333e+01 9.2665517719549513e+00 0 0 0
273 2 9.8440000000000012e+00 9.9460130873296642e+00 6.2569576709805785e+00 0 0 0
275 2 9.8440000000000012e+00 8.5251540748539956e+00 6.2569576709805785e+00 0 0 0
494 2 8.6134999999999984e+00 9.2355835810918343e+00 9.2665517719549513e+00 0 0 0
517 2 9.8440000000000012e+00 8.5251540748539956e+00 9.2665517719549513e+00 0 0 0
518 2 1.1074500000000002e+01 9.2355835810918343e+00 9.2665517719549513e+00 0 0 0
269 2 8.6135000000000002e+00 1.2077301606043163e+01 6.2569576709805785e+00 0 0 0
271 2 8.6134999999999984e+00 1.0656442593567498e+01 6.2569576709805785e+00 0 0 0
316 2 1.1074500000000002e+01 1.2077301606043163e+01 6.2569576709805785e+00 0 0 0
318 2 1.1074500000000002e+01 1.0656442593567498e+01 6.2569576709805785e+00 0 0 0
515 2 8.6134999999999984e+00 1.0656442593567498e+01 9.2665517719549513e+00 0 0 0
516 2 9.8440000000000012e+00 1.1366872099805333e+01 9.2665517719549513e+00 0 0 0
539 2 1.1074500000000002e+01 1.0656442593567498e+01 9.2665517719549513e+00 0 0 0
540 2 1.2304999999999998e+01 1.1366872099805333e+01 9.2665517719549513e+00 0 0 0
1537 1 3.5020886028040001e+00 1.4478624005529253e+00 1.2015604315607943e+01 1 1 0
86 1 1.2855624342100411e+00 3.1592070787836453e+00 1.2020990049328882e+01 0 -1 0
1448 1 6.0338892581877035e+00 3.2224004407050368e+00 1.2526022722157448e+01 0 1 0
2974 1 8.0849510683388282e+00 1.2632150544373641e+00 1.2248230492884115e+01 1 0 -1
3076 1 1.0505822938362360e+01 2.3755745340957146e+00 1.1909072347216979e+01 0 -1 -1
1341 1 1.2284800817220740e+00 6.1234275938660678e+00 1.1656117007020345e+01 1 1 0
3610 1 3.5396903136095550e+00 7.9320611044071381e+00 1.1825587606447808e+01 1 0 -1
4462 1 8.1440218870735670e+00 6.8606063976378744e+00 1.1521498813943968e+01 1 1 -1
4513 1 5.7837588903872650e+00 5.8631640143939654e+00 1.1758582668771396e+01 1 0 -1
2131 1 1.0589845713773437e+01 5.5142968502413332e+00 1.1893540892548423e+01 0 1 0
1618 1 3.0401752872561207e+00 1.0732793993122336e+01 1.1882618068596235e+01 0 0 0
72 1 5.9521478621499639e+00 1.1188882382239605e+01 1.1897646370238270e+01 -1 -1 -1
691 1 7.9675976162522160e+00 9.3187474725643149e+00 1.2588053736181877e+01 0 1 1
696 1 1.0609308914763782e+01 9.6613978496411423e+00 1.1774010051215475e+01 0 1 -1
791 1 3.5865067196222160e+00 3.5826133462712182e+00 1.4687777056121439e+01 2 -1 0
2933 1 5.7070630962530522e-01 3.3403293498623690e+00 1.4719864248690021e+01 1 0 -1
587 1 3.7214839816847758e+00 3.1792859329454676e-01 1.4429467752492037e+01 0 1 0
3690 1 7.8864544880024257e+00 3.7533027395124507e-01 1.4860829659317982e+01 0 0 0
1562 1 1.1304058191997566e+01 2.7199842206054168e+00 1.5914913074266378e+01 0 0 0
2395 1 1.0524825294109096e+01 1.8710043028220502e-01 1.4638468618350768e+01 1 0 0
4471 1 1.3637882788479652e+00 6.5541814576100830e+00 1.4567785469944710e+01 1 0 -1
2277 1 4.2887986738352568e+00 6.5145972596830894e+00 1.4414443140549189e+01 0 0 -1
2905 1 6.9099772760354092e+00 4.5661131659080123e+00 1.4929742192068586e+01 0 1 0
3074 1 1.0100642091815835e+01 6.5883061626627741e+00 1.5987089058034520e+01 1 1 0
3739 1 9.6555613142431387e+00 4.2902233737041939e+00 1.4289029059837086e+01 0 0 0
3590 1 1.2185881889020012e+01 8.0381700982219204e+00 1.4881732245760087e+01 0 0 0
3731 1 3.8085035461526204e+00 1.0959670926086666e+01 1.6061442205877832e+01 0 0 -1
2994 1 2.7461654148392256e-01 9.9388608107382463e+00 1.6661286569723707e+01 1 1 0
2142 1 1.8407476632061317e+00 9.4112313060539794e+00 1.4302500016790439e+01 1 1 -1
1508 1 6.2953876769987538e+00 1.1252409211255275e+01 1.4985567136909770e+01 0 0 -1
4421 1 1.1556719209177404e+01 1.0947899077127076e+01 1.4721882321845825e+01 1 0 0
4508 1 8.2172242019751813e+00 8.8285226888745747e+00 1.5434296612612647e+01 0 0 0
3600 1 1.0845466176111429e+00 5.8717710396184086e-01 1.9678850315349678e+01 0 0 1
3585 1 2.8090287291743028e+00 3.4413962841144108e+00 1.7478238382004015e+01 0 0 -1
2181 1 7.6512071134936033e-01 1.4534653882507123e+00 1.6991275056303557e+01 0 -1 0
788 1 6.9087085490095967e+00 3.7347535472293907e+00 1.9626630759301719e+01 1 1 0
3805 1 4.2798422208476392e+00 3.4940221543374039e+00 1.9820153240185419e+01 0 1 1
3688 1 4.7140750990133853e+00 7.1175480198403673e-01 1.7116668645236032e+01 1 0 0
3645 1 7.1883448534219596e+00 2.2255143929172494e+00 1.7029303371994729e+01 1 0 0
766 1 1.1310207524442660e+01 1.4979148254955548e+00 1.8591463855064177e+01 0 0 -1
2180 1 8.8360203616954642e+00 7.9604892763073143e-02 1.8673326266039524e+01 -1 0 -1
3668 1 1.7954121664699583e+00 6.1298271129196413e+00 1.7518519896239411e+01 0 1 0
1595 1 3.2356628910905902e+00 6.1979268804464720e+00 2.0110086697970281e+01 1 0 0
2158 1 3.8963097214034033e+00 7.7960572880618404e+00 1.7060391838749851e+01 1 1 0
2211 1 6.8025920071915165e+00 7.0790305494980341e+00 1.7227755446555712e+01 0 0 0
4384 1 8.2807806740500638e+00 5.8331042330697800e+00 1.9343420587720132e+01 0 1 -1
4433 1 1.0574750247552888e+01 4.8500802660723670e+00 1.7991356353299409e+01 0 0 0
777 1 7.0868267965366227e-01 8.4265528153270814e+00 1.9252814376647173e+01 0 1 -1
3754 1 4.0781268664917540e+00 8.9489578505722598e+00 1.9679349041505155e+01 1 0 -1
3801 1 3.5935223094940070e+00 1.1811289007578605e+01 1.8964491633866530e+01 -1 1 0
2378 1 7.2155489184698816e+00 9.4510997304819195e+00 1.8713941074785488e+01 1 0 0
3769 1 1.0141534949162615e+01 1.0906929745211100e+01 1.7118518554978554e+01 1 0 -1
3781 1 1.0150318765759163e+01 8.5902245624844529e+00 1.8602566000815969e+01 -1 1 -1
2921 1 2.6397263264013007e+00 1.5769602860046203e+00 2.1986175744953044e+01 0 -1 0
594 1 2.0731328654621117e-01 3.4711786641015068e+00 2.2474734989922176e+01 1 0 -1
610 1 4.9490230221963101e+00 3.3874215259307960e+00 2.2951379318761390e+01 0 0 0
3112 1 7.6172877676985298e+00 2.8083513074419155e+00 2.2164802269848970e+01 0 1 0
704 1 1.0386293255504055e+01 7.0306542447325582e-01 2.3058499115921663e+01 1 1 -1
1489 1 1.1493000744321028e+01 2.5754367187868543e+00 2.1214581794128485e+01 0 1 -1
1503 1 8.6926098750278005e+00 2.4902575829167310e+00 2.4535500832481233e+01 0 0 -1
4469 1 8.6098293232798528e-01 6.1053003321692962e+00 2.1355759088832293e+01 0 0 -1
619 1 5.3832321447956899e-01 7.1883448585462135e+00 2.3839920883446126e+01 0 1 -1
35 1 5.3320320513287944e+00 7.4655508428853263e+00 2.2272712357490100e+01 0 0 0
3643 1 9.5755309654576628e+00 8.1279376768539073e+00 2.3132234290416605e+01 1 0 0
21 1 1.1740924310903683e+01 7.4809945028766398e+00 2.0950050365305444e+01 1 0 0
3855 1 9.7785787456109716e+00 4.6247981915619274e+00 2.1714401723861478e+01 1 1 0
4396 1 1.1744408574702964e+01 5.7439974201802793e+00 2.3615351439800996e+01 1 1 0
818 1 1.6087391282906478e+00 9.2481652814466848e+00 2.1977442591559516e+01 0 1 0
2880 1 2.7157914785607424e+00 1.2048188842818943e+01 2.1969341639983973e+01 1 0 0
714 1 7.5901228613227509e+00 8.3913286097724455e+00 2.1044893737001495e+01 1 0 0
840 1 5.3812464564674674e+00 1.1654735472835958e+01 2.2820911963720917e+01 1 1 0
3081 1 4.3180415151369367e+00 9.4723447624088539e+00 2.4123894930358873e+01 1 0 0
1624 1 7.3958943933183656e+00 1.1617192074464130e+01 2.1130495971139986e+01 0 1 0
3042 1 7.9535097759220967e+00 1.1498493157902395e+01 2.4598541802702933e+01 2 1 0
2271 1 4.0748841178677306e+00 2.2380998547913222e+00 2.5137224450991511e+01 0 0 0
2843 1 1.2250332136243942e+00 2.1334442682500097e+00 2.4933107769888231e+01 -1 1 0
2153 1 7.9556033880595614e+00 2.8203509897928258e+00 2.7775474352095586e+01 1 0 0
2333 1 1.0924204628289427e+01 3.8847373500339297e+00 2.5471533876270868e+01 -1 -1 0
4440 1 1.4912522446799488e+00 4.9242763489224677e+00 2.6764800189784012e+01 0 1 0
1540 1 2.7992900850580176e+00 7.0901446998347684e+00 2.5680623829960872e+01 -1 -1 -1
3703 1 5.4539273246314091e+00 4.0889085384154367e+00 2.7251793423237707e+01 -1 0 0
741 1 7.5854197148759397e+00 7.1005263473362117e+00 2.4930534591072472e+01 0 1 0
646 1 6.0306065899311943e+00 6.6197754687710999e+00 2.8450484827516320e+01 0 0 0
2842 1 5.2259535948553104e+00 5.6214572803332583e+00 2.4796374946592600e+01 1 -1 -1
2329 1 8.2422086967842478e+00 7.4697752579996486e+00 2.7662067598660229e+01 0 0 0
629 1 9.9936039806838100e+00 5.3027550891387856e+00 2.7832685200352984e+01 1 1 -1
2929 1 2.6636403759441571e+00 1.0326675638299012e+01 2.6523866846330122e+01 0 0 -1
3632 1 1.6703616569944131e+00 8.2141246869026876e+00 2.8374799409563686e+01 1 0 0
3663 1 1.9656147298633292e-01 1.1458117689574602e+01 2.5617923116932374e+01 2 0 1
2168 1 4.8007995666123948e+00 9.1197735615074684e+00 2.8255388001748912e+01 1 1 -1
862 1 6.4868746981748728e+00 9.5613739281327828e+00 2.5570444822276748e+01 0 0 0
3027 1 1.0178781623523390e+01 9.8990003649222391e+00 2.5269205224847006e+01 1 -1 0
4528 1 9.8389291837938480e+00 9.6982347181832314e+00 2.8173651737781441e+01 1 -1 -1
802 1 1.1887960145557415e+01 1.2074065241094047e+01 2.5093473576830348e+01 0 1 1
4397 1 3.0776675148415222e-01 1.6086705974338369e+00 2.8611974212253642e+01 0 0 0
4489 1 3.0862345640909745e+00 3.6538994491149559e+00 2.8545752783075081e+01 1 -1 -1
47 1 1.4641857018165716e+00 9.9032717670459047e-01 3.1386613699427500e+01 0 1 0
4424 1 3.2458564786092619e+00 7.4462151874756322e-01 2.8873767657087804e+01 0 0 0
4359 1 3.9635252944574999e+00 2.2977396518027446e+00 3.1971479974117678e+01 0 1 0
1522 1 6.4686354610570600e+00 1.4410057960526705e+00 3.1195253820375882e+01 0 1 -1
3000 1 8.3045234418932772e+00 3.1023080167876449e+00 3.0543139630695272e+01 0 0 0
1343 1 1.0903568982556376e+01 2.3391286659402173e+00 3.1319016015173538e+01 1 1 0
4451 1 3.2282080329113145e+00 4.7530961063057067e+00 3.1080817912074224e+01 -1 0 -1
3666 1 1.1893643230637232e+00 6.8609300019813437e+00 3.1399812711672098e+01 1 0 -1
687 1 8.0090700560175865e+00 5.4261854286200579e+00 3.1574036066622625e+01 0 0 -1
1384 1 5.5414233712651315e+00 6.4670484991437034e+00 3.1016936524373250e+01 1 0 0
3638 1 1.0081328470588732e+01 7.1639153781847016e+00 3.1567871591541191e+01 0 0 0
2253 1 1.9954379868250374e+00 9.4542346771853492e+00 3.1429931124669864e+01 0 0 0
1518 1 8.7059356041184255e-01 1.2062358398128712e+01 3.0894233785567735e+01 0 0 -1
626 1 5.7394217194477477e+00 1.1595363986635476e+01 3.0253184152934736e+01 0 0 0
3799 1 4.8167428354957673e+00 9.0561677037174917e+00 3.0958240831567551e+01 0 0 0
1369 1 9.2737834558118273e+00 1.0158372150240943e+01 3.1085898067939752e+01 1 1 0
3644 1 1.1778805203966815e+01 1.1069147155814065e+01 3.1724952515629141e+01 1 0 0
137 2 0.0000000000000000e+00 1.2787731112280996e+01 3.2473635700059300e+00 0 0 0
139 2 1.2305000000000001e+00 1.3498160618518829e+01 3.2473635700059300e+00 0 0 0
174 2 2.4610000000000003e+00 1.2787731112280996e+01 3.2473635700059300e+00 0 0 0
176 2 3.6915000000000004e+00 1.3498160618518829e+01 3.2473635700059300e+00 0 0 0
135 2 0.0000000000000000e+00 1.5629449137232333e+01 3.2473635700059300e+00 0 0 0
170 2 1.2305000000000001e+00 1.4919019630994494e+01 3.2473635700059300e+00 0 0 0
172 2 2.4610000000000003e+00 1.5629449137232328e+01 3.2473635700059300e+00 0 0 0
215 2 3.6915000000000004e+00 1.4919019630994494e+01 3.2473635700059300e+00 0 0 0
219 2 4.9220000000000006e+00 1.2787731112280996e+01 3.2473635700059300e+00 0 0 0
221 2 6.1524999999999990e+00 1.3498160618518829e+01 3.2473635700059300e+00 0 0 0
266 2 7.3829999999999991e+00 1.2787731112280996e+01 3.2473635700059300e+00 0 0 0
217 2 4.9220000000000006e+00 1.5629449137232333e+01 3.2473635700059300e+00 0 0 0
262 2 6.1524999999999990e+00 1.4919019630994494e+01 3.2473635700059300e+00 0 0 0
264 2 7.3829999999999991e+00 1.5629449137232333e+01 3.2473635700059300e+00 0 0 0
268 2 8.6135000000000002e+00 1.3498160618518835e+01 3.2473635700059300e+00 0 0 0
313 2 9.8440000000000012e+00 1.2787731112280996e+01 3.2473635700059300e+00 0 0 0
315 2 1.1074500000000002e+01 1.3498160618518829e+01 3.2473635700059300e+00 0 0 0
309 2 8.6135000000000002e+00 1.4919019630994494e+01 3.2473635700059300e+00 0 0 0
311 2 9.8440000000000012e+00 1.5629449137232328e+01 3.2473635700059300e+00 0 0 0
351 2 1.1074500000000002e+01 1.4919019630994494e+01 3.2473635700059300e+00 0 0 0
166 2 0.0000000000000000e+00 1.7050308149707998e+01 3.2473635700059300e+00 0 0 0
211 2 2.4610000000000003e+00 1.7050308149707998e+01 3.2473635700059300e+00 0 0 0
164 2 0.0000000000000000e+00 1.9892026174659328e+01 3.2473635700059300e+00 0 0 0
168 2 1.2305000000000001e+00 1.7760737655945832e+01 3.2473635700059300e+00 0 0 0
207 2 1.2305000000000001e+00 1.9181596668421495e+01 3.2473635700059300e+00 0 0 0
209 2 2.4610000000000003e+00 1.9892026174659328e+01 3.2473635700059300e+00 0 0 0
213 2 3.6914999999999996e+00 1.7760737655945832e+01 3.2473635700059300e+00 0 0 0
254 2 3.6914999999999996e+00 1.9181596668421495e+01 3.2473635700059300e+00 0 0 0
258 2 4.9220000000000006e+00 1.7050308149707998e+01 3.2473635700059300e+00 0 0 0
305 2 7.3830000000000009e+00 1.7050308149707998e+01 3.2473635700059300e+00 0 0 0
256 2 4.9220000000000006e+00 1.9892026174659328e+01 3.2473635700059300e+00 0 0 0
260 2 6.1524999999999999e+00 1.7760737655945832e+01 3.2473635700059300e+00 0 0 0
301 2 6.1524999999999999e+00 1.9181596668421495e+01 3.2473635700059300e+00 0 0 0
303 2 7.3829999999999991e+00 1.9892026174659328e+01 3.2473635700059300e+00 0 0 0
347 2 9.8440000000000012e+00 1.7050308149707998e+01 3.2473635700059300e+00 0 0 0
381 2 1.2304999999999998e+01 1.7050308149707998e+01 3.2473635700059300e+00 0 0 0
307 2 8.6134999999999984e+00 1.7760737655945832e+01 3.2473635700059300e+00 0 0 0
343 2 8.6135000000000002e+00 1.9181596668421495e+01 3.2473635700059300e+00 0 0 0
345 2 9.8440000000000012e+00 1.9892026174659335e+01 3.2473635700059300e+00 0 0 0
349 2 1.1074500000000002e+01 1.7760737655945835e+01 3.2473635700059300e+00 0 0 0
377 2 1.1074500000000002e+01 1.9181596668421495e+01 3.2473635700059300e+00 0 0 0
201 2 0.0000000000000000e+00 2.4154603212086325e+01 3.2473635700059300e+00 0 0 0
203 2 0.0000000000000000e+00 2.1312885187134999e+01 3.2473635700059300e+00 0 0 0
205 2 1.2304999999999993e+00 2.2023314693372832e+01 3.2473635700059300e+00 0 0 0
246 2 1.2304999999999993e+00 2.3444173705848499e+01 3.2473635700059300e+00 0 0 0
248 2 2.4610000000000003e+00 2.4154603212086325e+01 3.2473635700059300e+00 0 0 0
250 2 2.4610000000000003e+00 2.1312885187134995e+01 3.2473635700059300e+00 0 0 0
252 2 3.6914999999999996e+00 2.2023314693372832e+01 3.2473635700059300e+00 0 0 0
293 2 3.6915000000000004e+00 2.3444173705848499e+01 3.2473635700059300e+00 0 0 0
295 2 4.9220000000000006e+00 2.4154603212086325e+01 3.2473635700059300e+00 0 0 0
297 2 4.9220000000000006e+00 2.1312885187134995e+01 3.2473635700059300e+00 0 0 0
299 2 6.1524999999999990e+00 2.2023314693372832e+01 3.2473635700059300e+00 0 0 0
335 2 6.1524999999999999e+00 2.3444173705848499e+01 3.2473635700059300e+00 0 0 0
337 2 7.3830000000000009e+00 2.4154603212086336e+01 3.2473635700059300e+00 0 0 0
339 2 7.3829999999999991e+00 2.1312885187134999e+01 3.2473635700059300e+00 0 0 0
341 2 8.6135000000000002e+00 2.2023314693372832e+01 3.2473635700059300e+00 0 0 0
369 2 8.6134999999999984e+00 2.3444173705848499e+01 3.2473635700059300e+00 0 0 0
371 2 9.8440000000000012e+00 2.4154603212086336e+01 3.2473635700059300e+00 0 0 0
373 2 9.8440000000000012e+00 2.1312885187134999e+01 3.2473635700059300e+00 0 0 0
375 2 1.1074500000000002e+01 2.2023314693372832e+01 3.2473635700059300e+00 0 0 0
395 2 1.1074500000000002e+01 2.3444173705848499e+01 3.2473635700059300e+00 0 0 0
138 2 0.0000000000000000e+00 1.2787731112280996e+01 6.2569576709805785e+00 0 0 0
175 2 2.4610000000000003e+00 1.2787731112280996e+01 6.2569576709805785e+00 0 0 0
447 2 0.0000000000000000e+00 1.2787731112280996e+01 9.2665517719549513e+00 0 0 0
448 2 1.2305000000000001e+00 1.3498160618518829e+01 9.2665517719549513e+00 0 0 0
466 2 2.4610000000000003e+00 1.2787731112280996e+01 9.2665517719549513e+00 0 0 0
467 2 3.6915000000000004e+00 1.3498160618518829e+01 9.2665517719549513e+00 0 0 0
136 2 0.0000000000000000e+00 1.4208590124756663e+01 6.2569576709805785e+00 0 0 0
171 2 1.2305000000000001e+00 1.4919019630994494e+01 6.2569576709805785e+00 0 0 0