LAMMPS data file via write_data, version 16 Mar 2018, timestep = 100000

4078 atoms
2 atom types

0.0000000000000000e+00 4.9219999999999999e+01 xlo xhi
0.0000000000000000e+00 4.9019635930410494e+01 ylo yhi
1.3737154654316264e+00 2.6566284534569029e+01 zlo zhi

Masses

1 18.015
2 12.01

Atoms # atomic

52 2 0.0000000000000000e+00 2.8417180249513345e+00 3.1200773474783356e+00 0 0 0
54 2 0.0000000000000000e+00 0.0000000000000000e+00 3.1200773474783356e+00 0 0 0
56 2 1.2305000000000001e+00 7.1042950623783474e-01 3.1200773474783356e+00 0 0 0
63 2 1.2305000000000001e+00 2.1312885187134998e+00 3.1200773474783356e+00 0 0 0
65 2 2.4610000000000003e+00 2.8417180249513345e+00 3.1200773474783356e+00 0 0 0
67 2 2.4610000000000003e+00 0.0000000000000000e+00 3.1200773474783356e+00 0 0 0
69 2 3.6915000000000004e+00 7.1042950623783474e-01 3.1200773474783356e+00 0 0 0
84 2 3.6914999999999996e+00 2.1312885187134998e+00 3.1200773474783356e+00 0 0 0
86 2 4.9220000000000006e+00 2.8417180249513332e+00 3.1200773474783356e+00 0 0 0
88 2 4.9220000000000006e+00 0.0000000000000000e+00 3.1200773474783356e+00 0 0 0
90 2 6.1524999999999999e+00 7.1042950623783407e-01 3.1200773474783356e+00 0 0 0
113 2 6.1524999999999999e+00 2.1312885187134989e+00 3.1200773474783356e+00 0 0 0
115 2 7.3829999999999991e+00 2.8417180249513345e+00 3.1200773474783356e+00 0 0 0
117 2 7.3829999999999991e+00 0.0000000000000000e+00 3.1200773474783356e+00 0 0 0
119 2 8.6134999999999984e+00 7.1042950623783407e-01 3.1200773474783356e+00 0 0 0
150 2 8.6134999999999984e+00 2.1312885187135002e+00 3.1200773474783356e+00 0 0 0
152 2 9.8440000000000012e+00 2.8417180249513332e+00 3.1200773474783356e+00 0 0 0
154 2 9.8440000000000012e+00 0.0000000000000000e+00 3.1200773474783356e+00 0 0 0
156 2 1.1074500000000002e+01 7.1042950623783330e-01 3.1200773474783356e+00 0 0 0
195 2 1.1074500000000002e+01 2.1312885187135002e+00 3.1200773474783356e+00 0 0 0
59 2 0.0000000000000000e+00 4.2625770374269996e+00 3.1200773474783356e+00 0 0 0
61 2 1.2305000000000001e+00 4.9730065436648339e+00 3.1200773474783356e+00 0 0 0
76 2 1.2305000000000001e+00 6.3938655561404980e+00 3.1200773474783356e+00 0 0 0
80 2 2.4610000000000003e+00 4.2625770374269996e+00 3.1200773474783356e+00 0 0 0
82 2 3.6914999999999996e+00 4.9730065436648339e+00 3.1200773474783356e+00 0 0 0
105 2 3.6914999999999996e+00 6.3938655561404980e+00 3.1200773474783356e+00 0 0 0
57 2 0.0000000000000000e+00 7.1042950623783341e+00 3.1200773474783356e+00 0 0 0
78 2 2.4610000000000003e+00 7.1042950623783341e+00 3.1200773474783356e+00 0 0 0
109 2 4.9220000000000006e+00 4.2625770374269978e+00 3.1200773474783356e+00 0 0 0
111 2 6.1524999999999999e+00 4.9730065436648339e+00 3.1200773474783356e+00 0 0 0
142 2 6.1524999999999999e+00 6.3938655561404980e+00 3.1200773474783356e+00 0 0 0
146 2 7.3829999999999991e+00 4.2625770374269996e+00 3.1200773474783356e+00 0 0 0
107 2 4.9220000000000006e+00 7.1042950623783341e+00 3.1200773474783356e+00 0 0 0
144 2 7.3830000000000009e+00 7.1042950623783341e+00 3.1200773474783356e+00 0 0 0
148 2 8.6135000000000002e+00 4.9730065436648339e+00 3.1200773474783356e+00 0 0 0
187 2 8.6135000000000002e+00 6.3938655561404980e+00 3.1200773474783356e+00 0 0 0
191 2 9.8440000000000012e+00 4.2625770374270004e+00 3.1200773474783356e+00 0 0 0
193 2 1.1074500000000002e+01 4.9730065436648339e+00 3.1200773474783356e+00 0 0 0
234 2 1.1074500000000002e+01 6.3938655561404980e+00 3.1200773474783356e+00 0 0 0
189 2 9.8440000000000012e+00 7.1042950623783341e+00 3.1200773474783356e+00 0 0 0
72 2 0.0000000000000000e+00 8.5251540748539991e+00 3.1200773474783356e+00 0 0 0
74 2 1.2305000000000001e+00 9.2355835810918343e+00 3.1200773474783356e+00 0 0 0
101 2 2.4610000000000003e+00 8.5251540748539991e+00 3.1200773474783356e+00 0 0 0
103 2 3.6915000000000004e+00 9.2355835810918343e+00 3.1200773474783356e+00 0 0 0
70 2 0.0000000000000000e+00 1.1366872099805333e+01 3.1200773474783356e+00 0 0 0
97 2 1.2305000000000001e+00 1.0656442593567498e+01 3.1200773474783356e+00 0 0 0
99 2 2.4610000000000003e+00 1.1366872099805333e+01 3.1200773474783356e+00 0 0 0
134 2 3.6914999999999996e+00 1.0656442593567499e+01 3.1200773474783356e+00 0 0 0
138 2 4.9220000000000006e+00 8.5251540748539991e+00 3.1200773474783356e+00 0 0 0
140 2 6.1524999999999999e+00 9.2355835810918343e+00 3.1200773474783356e+00 0 0 0
183 2 7.3830000000000009e+00 8.5251540748539991e+00 3.1200773474783356e+00 0 0 0
136 2 4.9220000000000006e+00 1.1366872099805333e+01 3.1200773474783356e+00 0 0 0
179 2 6.1524999999999999e+00 1.0656442593567499e+01 3.1200773474783356e+00 0 0 0
181 2 7.3829999999999991e+00 1.1366872099805333e+01 3.1200773474783356e+00 0 0 0
185 2 8.6134999999999984e+00 9.2355835810918343e+00 3.1200773474783356e+00 0 0 0
230 2 9.8440000000000012e+00 8.5251540748539956e+00 3.1200773474783356e+00 0 0 0
232 2 1.1074500000000002e+01 9.2355835810918343e+00 3.1200773474783356e+00 0 0 0
226 2 8.6134999999999984e+00 1.0656442593567498e+01 3.1200773474783356e+00 0 0 0
228 2 9.8440000000000012e+00 1.1366872099805333e+01 3.1200773474783356e+00 0 0 0
273 2 1.1074500000000002e+01 1.0656442593567498e+01 3.1200773474783356e+00 0 0 0
275 2 1.2304999999999998e+01 1.1366872099805333e+01 3.1200773474783356e+00 0 0 0
53 2 0.0000000000000000e+00 1.4208590124756650e+00 6.0803507206631346e+00 0 0 0
55 2 0.0000000000000000e+00 0.0000000000000000e+00 6.0803507206631346e+00 0 0 0
64 2 1.2305000000000001e+00 2.1312885187134998e+00 6.0803507206631346e+00 0 0 0
66 2 2.4610000000000003e+00 1.4208590124756650e+00 6.0803507206631346e+00 0 0 0
68 2 2.4610000000000003e+00 0.0000000000000000e+00 6.0803507206631346e+00 0 0 0
85 2 3.6914999999999996e+00 2.1312885187134998e+00 6.0803507206631346e+00 0 0 0
381 2 0.0000000000000000e+00 2.8417180249513345e+00 9.0406240938487983e+00 0 0 0
382 2 0.0000000000000000e+00 0.0000000000000000e+00 9.0406240938487983e+00 0 0 0
383 2 1.2305000000000001e+00 7.1042950623783474e-01 9.0406240938487983e+00 0 0 0
387 2 1.2305000000000001e+00 2.1312885187134998e+00 9.0406240938487983e+00 0 0 0
388 2 2.4610000000000003e+00 2.8417180249513345e+00 9.0406240938487983e+00 0 0 0
389 2 2.4610000000000003e+00 0.0000000000000000e+00 9.0406240938487983e+00 0 0 0
390 2 3.6915000000000004e+00 7.1042950623783474e-01 9.0406240938487983e+00 0 0 0
398 2 3.6914999999999996e+00 2.1312885187134998e+00 9.0406240938487983e+00 0 0 0
62 2 1.2305000000000001e+00 3.5521475311891644e+00 6.0803507206631346e+00 0 0 0
83 2 3.6914999999999996e+00 3.5521475311891644e+00 6.0803507206631346e+00 0 0 0
87 2 4.9220000000000006e+00 1.4208590124756650e+00 6.0803507206631346e+00 0 0 0
89 2 4.9220000000000006e+00 0.0000000000000000e+00 6.0803507206631346e+00 0 0 0
114 2 6.1524999999999999e+00 2.1312885187134989e+00 6.0803507206631346e+00 0 0 0
116 2 7.3829999999999991e+00 1.4208590124756659e+00 6.0803507206631346e+00 0 0 0
118 2 7.3829999999999991e+00 0.0000000000000000e+00 6.0803507206631346e+00 0 0 0
399 2 4.9220000000000006e+00 2.8417180249513332e+00 9.0406240938487983e+00 0 0 0
400 2 4.9220000000000006e+00 0.0000000000000000e+00 9.0406240938487983e+00 0 0 0
401 2 6.1524999999999999e+00 7.1042950623783407e-01 9.0406240938487983e+00 0 0 0
413 2 6.1524999999999999e+00 2.1312885187134989e+00 9.0406240938487983e+00 0 0 0
414 2 7.3829999999999991e+00 2.8417180249513345e+00 9.0406240938487983e+00 0 0 0
415 2 7.3829999999999991e+00 0.0000000000000000e+00 9.0406240938487983e+00 0 0 0
112 2 6.1524999999999999e+00 3.5521475311891644e+00 6.0803507206631346e+00 0 0 0
151 2 8.6134999999999984e+00 2.1312885187135002e+00 6.0803507206631346e+00 0 0 0
153 2 9.8440000000000012e+00 1.4208590124756659e+00 6.0803507206631346e+00 0 0 0
155 2 9.8440000000000012e+00 0.0000000000000000e+00 6.0803507206631346e+00 0 0 0
196 2 1.1074500000000002e+01 2.1312885187135002e+00 6.0803507206631346e+00 0 0 0
416 2 8.6134999999999984e+00 7.1042950623783407e-01 9.0406240938487983e+00 0 0 0
432 2 8.6134999999999984e+00 2.1312885187135002e+00 9.0406240938487983e+00 0 0 0
433 2 9.8440000000000012e+00 2.8417180249513332e+00 9.0406240938487983e+00 0 0 0
434 2 9.8440000000000012e+00 0.0000000000000000e+00 9.0406240938487983e+00 0 0 0
435 2 1.1074500000000002e+01 7.1042950623783330e-01 9.0406240938487983e+00 0 0 0
455 2 1.1074500000000002e+01 2.1312885187135002e+00 9.0406240938487983e+00 0 0 0
149 2 8.6134999999999984e+00 3.5521475311891657e+00 6.0803507206631346e+00 0 0 0
194 2 1.1074500000000002e+01 3.5521475311891644e+00 6.0803507206631346e+00 0 0 0
58 2 0.0000000000000000e+00 5.6834360499026637e+00 6.0803507206631346e+00 0 0 0
60 2 0.0000000000000000e+00 4.2625770374269996e+00 6.0803507206631346e+00 0 0 0
77 2 1.2305000000000001e+00 6.3938655561404980e+00 6.0803507206631346e+00 0 0 0
79 2 2.4610000000000003e+00 5.6834360499026637e+00 6.0803507206631346e+00 0 0 0
81 2 2.4610000000000003e+00 4.2625770374269996e+00 6.0803507206631346e+00 0 0 0
106 2 3.6914999999999996e+00 6.3938655561404980e+00 6.0803507206631346e+00 0 0 0
385 2 0.0000000000000000e+00 4.2625770374269996e+00 9.0406240938487983e+00 0 0 0
386 2 1.2305000000000001e+00 4.9730065436648339e+00 9.0406240938487983e+00 0 0 0
394 2 1.2305000000000001e+00 6.3938655561404980e+00 9.0406240938487983e+00 0 0 0
396 2 2.4610000000000003e+00 4.2625770374269996e+00 9.0406240938487983e+00 0 0 0
397 2 3.6914999999999996e+00 4.9730065436648339e+00 9.0406240938487983e+00 0 0 0
409 2 3.6914999999999996e+00 6.3938655561404980e+00 9.0406240938487983e+00 0 0 0
75 2 1.2305000000000001e+00 7.8147245686161639e+00 6.0803507206631346e+00 0 0 0
104 2 3.6914999999999996e+00 7.8147245686161639e+00 6.0803507206631346e+00 0 0 0
384 2 0.0000000000000000e+00 7.1042950623783341e+00 9.0406240938487983e+00 0 0 0
395 2 2.4610000000000003e+00 7.1042950623783341e+00 9.0406240938487983e+00 0 0 0
108 2 4.9220000000000006e+00 5.6834360499026637e+00 6.0803507206631346e+00 0 0 0
110 2 4.9220000000000006e+00 4.2625770374269978e+00 6.0803507206631346e+00 0 0 0
143 2 6.1524999999999999e+00 6.3938655561404980e+00 6.0803507206631346e+00 0 0 0
145 2 7.3829999999999991e+00 5.6834360499026637e+00 6.0803507206631346e+00 0 0 0
147 2 7.3829999999999991e+00 4.2625770374269996e+00 6.0803507206631346e+00 0 0 0
411 2 4.9220000000000006e+00 4.2625770374269978e+00 9.0406240938487983e+00 0 0 0
412 2 6.1524999999999999e+00 4.9730065436648339e+00 9.0406240938487983e+00 0 0 0
428 2 6.1524999999999999e+00 6.3938655561404980e+00 9.0406240938487983e+00 0 0 0
430 2 7.3829999999999991e+00 4.2625770374269996e+00 9.0406240938487983e+00 0 0 0
141 2 6.1524999999999999e+00 7.8147245686161639e+00 6.0803507206631346e+00 0 0 0
410 2 4.9220000000000006e+00 7.1042950623783341e+00 9.0406240938487983e+00 0 0 0
429 2 7.3830000000000009e+00 7.1042950623783341e+00 9.0406240938487983e+00 0 0 0
188 2 8.6135000000000002e+00 6.3938655561404980e+00 6.0803507206631346e+00 0 0 0
190 2 9.8440000000000012e+00 5.6834360499026637e+00 6.0803507206631346e+00 0 0 0
192 2 9.8440000000000012e+00 4.2625770374270004e+00 6.0803507206631346e+00 0 0 0
235 2 1.1074500000000002e+01 6.3938655561404980e+00 6.0803507206631346e+00 0 0 0
431 2 8.6135000000000002e+00 4.9730065436648339e+00 9.0406240938487983e+00 0 0 0
451 2 8.6135000000000002e+00 6.3938655561404980e+00 9.0406240938487983e+00 0 0 0
453 2 9.8440000000000012e+00 4.2625770374270004e+00 9.0406240938487983e+00 0 0 0
454 2 1.1074500000000002e+01 4.9730065436648339e+00 9.0406240938487983e+00 0 0 0
475 2 1.1074500000000002e+01 6.3938655561404980e+00 9.0406240938487983e+00 0 0 0
186 2 8.6135000000000002e+00 7.8147245686161639e+00 6.0803507206631346e+00 0 0 0
233 2 1.1074500000000002e+01 7.8147245686161639e+00 6.0803507206631346e+00 0 0 0
452 2 9.8440000000000012e+00 7.1042950623783341e+00 9.0406240938487983e+00 0 0 0
71 2 0.0000000000000000e+00 9.9460130873296642e+00 6.0803507206631346e+00 0 0 0
73 2 0.0000000000000000e+00 8.5251540748539991e+00 6.0803507206631346e+00 0 0 0
100 2 2.4610000000000003e+00 9.9460130873296642e+00 6.0803507206631346e+00 0 0 0
102 2 2.4610000000000003e+00 8.5251540748539991e+00 6.0803507206631346e+00 0 0 0
392 2 0.0000000000000000e+00 8.5251540748539991e+00 9.0406240938487983e+00 0 0 0
393 2 1.2305000000000001e+00 9.2355835810918343e+00 9.0406240938487983e+00 0 0 0
407 2 2.4610000000000003e+00 8.5251540748539991e+00 9.0406240938487983e+00 0 0 0
408 2 3.6915000000000004e+00 9.2355835810918343e+00 9.0406240938487983e+00 0 0 0
96 2 1.2305000000000001e+00 1.2077301606043163e+01 6.0803507206631346e+00 0 0 0
98 2 1.2305000000000001e+00 1.0656442593567498e+01 6.0803507206631346e+00 0 0 0
133 2 3.6914999999999996e+00 1.2077301606043163e+01 6.0803507206631346e+00 0 0 0
135 2 3.6914999999999996e+00 1.0656442593567499e+01 6.0803507206631346e+00 0 0 0
391 2 0.0000000000000000e+00 1.1366872099805333e+01 9.0406240938487983e+00 0 0 0
405 2 1.2305000000000001e+00 1.0656442593567498e+01 9.0406240938487983e+00 0 0 0
406 2 2.4610000000000003e+00 1.1366872099805333e+01 9.0406240938487983e+00 0 0 0
424 2 3.6914999999999996e+00 1.0656442593567499e+01 9.0406240938487983e+00 0 0 0
137 2 4.9220000000000006e+00 9.9460130873296642e+00 6.0803507206631346e+00 0 0 0
139 2 4.9220000000000006e+00 8.5251540748539991e+00 6.0803507206631346e+00 0 0 0
182 2 7.3830000000000009e+00 9.9460130873296642e+00 6.0803507206631346e+00 0 0 0
184 2 7.3830000000000009e+00 8.5251540748539991e+00 6.0803507206631346e+00 0 0 0
426 2 4.9220000000000006e+00 8.5251540748539991e+00 9.0406240938487983e+00 0 0 0
427 2 6.1524999999999999e+00 9.2355835810918343e+00 9.0406240938487983e+00 0 0 0
449 2 7.3830000000000009e+00 8.5251540748539991e+00 9.0406240938487983e+00 0 0 0
178 2 6.1524999999999999e+00 1.2077301606043163e+01 6.0803507206631346e+00 0 0 0
180 2 6.1524999999999999e+00 1.0656442593567499e+01 6.0803507206631346e+00 0 0 0
425 2 4.9220000000000006e+00 1.1366872099805333e+01 9.0406240938487983e+00 0 0 0
447 2 6.1524999999999999e+00 1.0656442593567499e+01 9.0406240938487983e+00 0 0 0
448 2 7.3829999999999991e+00 1.1366872099805333e+01 9.0406240938487983e+00 0 0 0
229 2 9.8440000000000012e+00 9.9460130873296642e+00 6.0803507206631346e+00 0 0 0
231 2 9.8440000000000012e+00 8.5251540748539956e+00 6.0803507206631346e+00 0 0 0
450 2 8.6134999999999984e+00 9.2355835810918343e+00 9.0406240938487983e+00 0 0 0
473 2 9.8440000000000012e+00 8.5251540748539956e+00 9.0406240938487983e+00 0 0 0
474 2 1.1074500000000002e+01 9.2355835810918343e+00 9.0406240938487983e+00 0 0 0
225 2 8.6135000000000002e+00 1.2077301606043163e+01 6.0803507206631346e+00 0 0 0
227 2 8.6134999999999984e+00 1.0656442593567498e+01 6.0803507206631346e+00 0 0 0
272 2 1.1074500000000002e+01 1.2077301606043163e+01 6.0803507206631346e+00 0 0 0
274 2 1.1074500000000002e+01 1.0656442593567498e+01 6.0803507206631346e+00 0 0 0
471 2 8.6134999999999984e+00 1.0656442593567498e+01 9.0406240938487983e+00 0 0 0
472 2 9.8440000000000012e+00 1.1366872099805333e+01 9.0406240938487983e+00 0 0 0
495 2 1.1074500000000002e+01 1.0656442593567498e+01 9.0406240938487983e+00 0 0 0
496 2 1.2304999999999998e+01 1.1366872099805333e+01 9.0406240938487983e+00 0 0 0
3963 1 9.0405196001287500e+00 5.8202685304232764e+00 1.1103111925606974e+01 0 1 0
1297 1 3.4681095424190533e+00 1.2793403497225124e+00 1.1499541392514351e+01 1 1 -1
2759 1 8.4980032793906339e+00 1.0683285861025718e+01 1.2634553401451916e+01 0 0 0
2607 1 1.0663639689494090e+01 3.2592986628271148e-01 1.1799388605761235e+01 1 1 0
3914 1 7.4652487832099190e+00 4.4471063662773025e-01 1.1617256828873160e+01 1 -1 -1
3900 1 1.0546751121573650e+00 1.4039867602308176e+00 1.3210694437679718e+01 1 -1 -1
1960 1 5.6888238361850740e-01 6.2479087579296886e+00 1.2002139139939240e+01 1 0 0
534 1 4.1821508266323368e+00 3.9276343256423032e+00 1.2432141520455167e+01 1 1 0
642 1 9.5507998781771288e+00 3.2347912483612351e+00 1.1962487652735744e+01 -1 0 0
606 1 7.6328625106744221e+00 8.1423922957607804e+00 1.2300817910611094e+01 1 0 0
3920 1 6.6885788276415052e+00 3.0975278237090893e+00 1.1599245345938279e+01 -1 1 0
2710 1 4.4701977297117450e+00 1.1120456438300964e+01 1.1744650341172274e+01 0 1 0
1338 1 3.2927390472990656e+00 6.3833245240105354e+00 1.1456072973287519e+01 1 0 0
1453 1 4.7934956745688577e+00 8.4589795834262347e+00 1.2166551884302811e+01 0 0 0
2059 1 1.0850044318229235e+01 7.8494978962556781e+00 1.2572327919621380e+01 0 1 0
2658 1 1.1077450192025342e+01 1.0751213737364754e+01 1.1440115765237737e+01 0 0 0
2749 1 1.2244517429263377e+01 5.2320061481733955e+00 1.1494942133452138e+01 -1 1 1
2756 1 1.8878574364458696e+00 6.3895575969056253e+00 1.8431356134138120e+01 1 1 0
3342 1 1.0071943963492453e+01 3.9159375798961893e-02 1.6408161436073783e+01 -1 0 0
1270 1 2.5986969845789160e-01 7.0166042598365301e+00 2.2639670941232517e+01 1 0 0
3316 1 1.2115239169101906e+00 1.5427387396613457e+00 1.7395980334572560e+01 1 0 -1
2703 1 4.4015411910045570e+00 1.1835938811157664e+01 1.4751804730147107e+01 1 0 1
645 1 4.8847762590069899e-01 1.1385510701212107e+01 1.9312239420605145e+01 0 -1 0
3347 1 1.9746938830665239e+00 8.1790827135659150e+00 1.6360434155756451e+01 0 0 0
1984 1 2.4607740565245155e+00 5.7919792530324674e+00 1.4399815890711132e+01 0 0 0
2677 1 4.4373526475480629e+00 8.9120811453495943e+00 1.4876225872534285e+01 0 0 -1
1404 1 5.1121613160191597e+00 5.6684132117586881e+00 1.5460899004496403e+01 1 1 0
2071 1 1.1346538664905847e+01 1.2132948561323662e+01 1.5929659441161867e+01 0 0 0
3260 1 2.6268591536620969e+00 5.5576395321826721e+00 2.1006803021914877e+01 2 1 -1
3997 1 7.0132849698775335e-01 4.2951133900346736e+00 2.6039619641156911e+01 0 1 -1
1308 1 5.0055608784676875e-01 8.9729778996383658e-01 2.0087069077270332e+01 0 0 1
1979 1 1.1016610849938770e+01 5.6084743321829056e-01 2.2799393118063065e+01 -1 0 1
546 1 4.1811299927398338e+00 2.0250917687447454e+00 1.7762650225441899e+01 0 0 0
3337 1 2.7415864454851855e+00 8.9762603163152441e+00 2.5567855203085976e+01 1 -1 -1
16 1 1.0795815809153014e+01 8.7543853480439608e+00 1.7878967201735932e+01 0 0 -1
2644 1 4.3432609414164256e+00 4.9130761756111117e+00 1.8012575083451605e+01 0 -1 0
2034 1 9.4334626640958774e+00 7.9947166023354121e+00 2.5443476325638748e+01 -1 -1 -1
599 1 6.0833761317045223e+00 1.6086383729248581e+00 1.9751829731640850e+01 0 0 0
2086 1 4.5521684305025421e+00 1.0799067525720663e+01 2.5680243163029527e+01 1 0 -1
2714 1 1.1971139537009162e+01 3.3685090850585082e+00 1.8621996442164367e+01 0 0 -1
3318 1 1.3347715594746647e+00 9.6818649485918744e+00 2.2619702144441721e+01 0 0 -1
2077 1 4.9240465460423772e+00 6.7050616247550048e+00 2.2110200473083161e+01 0 0 1
11 1 7.1514685023183260e+00 5.3715126526731360e+00 2.3057311709900702e+01 0 0 0
4025 1 7.9907577607808973e+00 8.2460619186436119e+00 1.8607525555924155e+01 0 1 -1
2032 1 6.5160873346410755e+00 5.9175044634799852e+00 1.9779274551107083e+01 1 0 -1
3464 1 6.6468323495548587e+00 1.0928757479623833e+01 2.2924015881055595e+01 -1 0 0
3267 1 3.5543198362237480e+00 2.3164284565054621e-01 2.2981972143046399e+01 1 0 1
3903 1 1.2055764321152695e+01 1.1595403029816154e+01 1.8642744296142205e+01 0 0 0
2688 1 3.1215275651740089e+00 1.1056312867046547e+01 2.0394134584921520e+01 2 1 0
2109 1 1.1394749092156809e+01 1.1071227069482658e+01 2.1233147869469690e+01 0 0 0
3370 1 8.4581624657737819e+00 9.9042210390736116e+00 2.0896096131260880e+01 1 0 1
3405 1 1.1299440901599381e+01 9.8680619273583972e+00 2.5867426548010016e+01 -1 1 0
1397 1 8.4269948204202407e+00 1.1250234576122974e+01 1.5330792304399836e+01 0 0 0
692 1 5.5142942741213190e+00 2.8785793733551950e+00 2.5961868176927091e+01 0 0 0
3442 1 6.1483570321287262e+00 2.4696672236154522e+00 2.2886786802908535e+01 0 0 1
605 1 7.8967857712645602e+00 3.8398025918931173e+00 2.0957888843379262e+01 1 0 0
4028 1 5.3429542905248875e+00 1.6888858678624350e+00 1.5205761643863035e+01 0 2 0
653 1 7.0131504831465747e+00 3.8175789528948876e+00 1.4519832697188901e+01 0 1 0
1339 1 3.1676259230086288e+00 3.0651430416024601e+00 2.2658468737574385e+01 1 1 -1
675 1 1.0616772407058651e+01 4.7798434774807603e+00 1.6304357018272889e+01 1 1 1
1423 1 3.2616382915299615e+00 4.3601046526894347e+00 2.5069784858855275e+01 -1 0 0
14 1 7.6628883161301884e+00 4.7808215165838090e+00 2.5695542221414129e+01 0 0 1
1368 1 1.0365930254220098e+01 4.9223573496064814e+00 2.5389108134412695e+01 0 -1 -2
2614 1 1.0007708818598365e+01 1.7202369453770876e+00 2.0364337091374679e+01 0 0 -1
2664 1 1.1502845079955897e+01 2.3178175410207333e+00 2.5403157671925836e+01 0 0 1
2028 1 1.1490974700529730e+01 5.8951537962023695e+00 2.2821752316542508e+01 0 1 0
3309 1 4.3996304076739676e+00 9.2959905835621583e+00 2.2556716439203353e+01 0 -1 -1
2766 1 2.5938025910194518e+00 2.8813637969142980e+00 1.4761287357848342e+01 0 0 0
2145 1 4.0751593650149553e+00 6.8220642210128046e+00 2.5161147257994632e+01 1 0 0
657 1 7.2299280112260922e+00 1.0108900431740903e+01 2.5598280478525229e+01 0 0 -1
2088 1 6.8286268588932924e+00 9.1731946199796788e+00 1.6263636007536000e+01 0 0 0
1354 1 9.5336974785503852e+00 2.6350244559939946e+00 1.4774056956542006e+01 -1 1 1
3308 1 8.9689487871545559e+00 7.8339395305001291e+00 2.2696256354939315e+01 0 0 0
33 1 6.3458650186348731e+00 7.1757790364930862e+00 2.6326835910578154e+01 0 2 0
3440 1 1.0537009419920331e+01 7.3959200694716332e+00 1.5377939687579110e+01 -1 0 0
548 1 7.8419618851689226e+00 7.0138425928187154e+00 1.4807233732261215e+01 1 0 0
614 1 6.3943323773374672e-01 2.5868274532879139e+00 2.2585582611072116e+01 -1 1 1
3294 1 4.3473624029775140e+00 1.3289553403553792e-01 2.5830747895508164e+01 0 0 0
729 1 1.3344008725979961e-01 9.1017373599159122e+00 2.5754609084554016e+01 1 0 0
93 2 0.0000000000000000e+00 1.2787731112280996e+01 3.1200773474783356e+00 0 0 0
95 2 1.2305000000000001e+00 1.3498160618518829e+01 3.1200773474783356e+00 0 0 0
130 2 2.4610000000000003e+00 1.2787731112280996e+01 3.1200773474783356e+00 0 0 0
132 2 3.6915000000000004e+00 1.3498160618518829e+01 3.1200773474783356e+00 0 0 0
91 2 0.0000000000000000e+00 1.5629449137232333e+01 3.1200773474783356e+00 0 0 0
126 2 1.2305000000000001e+00 1.4919019630994494e+01 3.1200773474783356e+00 0 0 0
128 2 2.4610000000000003e+00 1.5629449137232328e+01 3.1200773474783356e+00 0 0 0
171 2 3.6915000000000004e+00 1.4919019630994494e+01 3.1200773474783356e+00 0 0 0
175 2 4.9220000000000006e+00 1.2787731112280996e+01 3.1200773474783356e+00 0 0 0
177 2 6.1524999999999990e+00 1.3498160618518829e+01 3.1200773474783356e+00 0 0 0
222 2 7.3829999999999991e+00 1.2787731112280996e+01 3.1200773474783356e+00 0 0 0
173 2 4.9220000000000006e+00 1.5629449137232333e+01 3.1200773474783356e+00 0 0 0
218 2 6.1524999999999990e+00 1.4919019630994494e+01 3.1200773474783356e+00 0 0 0
220 2 7.3829999999999991e+00 1.5629449137232333e+01 3.1200773474783356e+00 0 0 0
224 2 8.6135000000000002e+00 1.3498160618518835e+01 3.1200773474783356e+00 0 0 0
269 2 9.8440000000000012e+00 1.2787731112280996e+01 3.1200773474783356e+00 0 0 0
271 2 1.1074500000000002e+01 1.3498160618518829e+01 3.1200773474783356e+00 0 0 0
265 2 8.6135000000000002e+00 1.4919019630994494e+01 3.1200773474783356e+00 0 0 0
267 2 9.8440000000000012e+00 1.5629449137232328e+01 3.1200773474783356e+00 0 0 0
307 2 1.1074500000000002e+01 1.4919019630994494e+01 3.1200773474783356e+00 0 0 0
122 2 0.0000000000000000e+00 1.7050308149707998e+01 3.1200773474783356e+00 0 0 0
167 2 2.4610000000000003e+00 1.7050308149707998e+01 3.1200773474783356e+00 0 0 0
120 2 0.0000000000000000e+00 1.9892026174659328e+01 3.1200773474783356e+00 0 0 0
124 2 1.2305000000000001e+00 1.7760737655945832e+01 3.1200773474783356e+00 0 0 0
163 2 1.2305000000000001e+00 1.9181596668421495e+01 3.1200773474783356e+00 0 0 0
165 2 2.4610000000000003e+00 1.9892026174659328e+01 3.1200773474783356e+00 0 0 0
169 2 3.6914999999999996e+00 1.7760737655945832e+01 3.1200773474783356e+00 0 0 0
210 2 3.6914999999999996e+00 1.9181596668421495e+01 3.1200773474783356e+00 0 0 0
214 2 4.9220000000000006e+00 1.7050308149707998e+01 3.1200773474783356e+00 0 0 0
261 2 7.3830000000000009e+00 1.7050308149707998e+01 3.1200773474783356e+00 0 0 0
212 2 4.9220000000000006e+00 1.9892026174659328e+01 3.1200773474783356e+00 0 0 0
216 2 6.1524999999999999e+00 1.7760737655945832e+01 3.1200773474783356e+00 0 0 0
257 2 6.1524999999999999e+00 1.9181596668421495e+01 3.1200773474783356e+00 0 0 0
259 2 7.3829999999999991e+00 1.9892026174659328e+01 3.1200773474783356e+00 0 0 0
303 2 9.8440000000000012e+00 1.7050308149707998e+01 3.1200773474783356e+00 0 0 0
337 2 1.2304999999999998e+01 1.7050308149707998e+01 3.1200773474783356e+00 0 0 0
263 2 8.6134999999999984e+00 1.7760737655945832e+01 3.1200773474783356e+00 0 0 0
299 2 8.6135000000000002e+00 1.9181596668421495e+01 3.1200773474783356e+00 0 0 0
301 2 9.8440000000000012e+00 1.9892026174659335e+01 3.1200773474783356e+00 0 0 0
305 2 1.1074500000000002e+01 1.7760737655945835e+01 3.1200773474783356e+00 0 0 0
333 2 1.1074500000000002e+01 1.9181596668421495e+01 3.1200773474783356e+00 0 0 0
157 2 0.0000000000000000e+00 2.4154603212086325e+01 3.1200773474783356e+00 0 0 0
159 2 0.0000000000000000e+00 2.1312885187134999e+01 3.1200773474783356e+00 0 0 0
161 2 1.2304999999999993e+00 2.2023314693372832e+01 3.1200773474783356e+00 0 0 0
202 2 1.2304999999999993e+00 2.3444173705848499e+01 3.1200773474783356e+00 0 0 0
204 2 2.4610000000000003e+00 2.4154603212086325e+01 3.1200773474783356e+00 0 0 0
206 2 2.4610000000000003e+00 2.1312885187134995e+01 3.1200773474783356e+00 0 0 0
208 2 3.6914999999999996e+00 2.2023314693372832e+01 3.1200773474783356e+00 0 0 0
249 2 3.6915000000000004e+00 2.3444173705848499e+01 3.1200773474783356e+00 0 0 0
251 2 4.9220000000000006e+00 2.4154603212086325e+01 3.1200773474783356e+00 0 0 0
253 2 4.9220000000000006e+00 2.1312885187134995e+01 3.1200773474783356e+00 0 0 0
255 2 6.1524999999999990e+00 2.2023314693372832e+01 3.1200773474783356e+00 0 0 0
291 2 6.1524999999999999e+00 2.3444173705848499e+01 3.1200773474783356e+00 0 0 0
293 2 7.3830000000000009e+00 2.4154603212086336e+01 3.1200773474783356e+00 0 0 0
295 2 7.3829999999999991e+00 2.1312885187134999e+01 3.1200773474783356e+00 0 0 0
297 2 8.6135000000000002e+00 2.2023314693372832e+01 3.1200773474783356e+00 0 0 0
325 2 8.6134999999999984e+00 2.3444173705848499e+01 3.1200773474783356e+00 0 0 0
327 2 9.8440000000000012e+00 2.4154603212086336e+01 3.1200773474783356e+00 0 0 0
329 2 9.8440000000000012e+00 2.1312885187134999e+01 3.1200773474783356e+00 0 0 0
331 2 1.1074500000000002e+01 2.2023314693372832e+01 3.1200773474783356e+00 0 0 0
351 2 1.1074500000000002e+01 2.3444173705848499e+01 3.1200773474783356e+00 0 0 0
94 2 0.0000000000000000e+00 1.2787731112280996e+01 6.0803507206631346e+00 0 0 0
131 2 2.4610000000000003e+00 1.2787731112280996e+01 6.0803507206631346e+00 0 0 0
403 2 0.0000000000000000e+00 1.2787731112280996e+01 9.0406240938487983e+00 0 0 0
404 2 1.2305000000000001e+00 1.3498160618518829e+01 9.0406240938487983e+00 0 0 0
422 2 2.4610000000000003e+00 1.2787731112280996e+01 9.0406240938487983e+00 0 0 0
423 2 3.6915000000000004e+00 1.3498160618518829e+01 9.0406240938487983e+00 0 0 0
92 2 0.0000000000000000e+00 1.4208590124756663e+01 6.0803507206631346e+00 0 0 0
127 2 1.2305000000000001e+00 1.4919019630994494e+01 6.0803507206631346e+00 0 0 0
129 2 2.4610000000000003e+00 1.4208590124756663e+01 6.0803507206631346e+00 0 0 0
172 2 3.6915000000000004e+00 1.4919019630994494e+01 6.0803507206631346e+00 0 0 0
402 2 0.0000000000000000e+00 1.5629449137232333e+01 9.0406240938487983e+00 0 0 0
420 2 1.2305000000000001e+00 1.4919019630994494e+01 9.0406240938487983e+00 0 0 0
421 2 2.4610000000000003e+00 1.5629449137232328e+01 9.0406240938487983e+00 0 0 0
443 2 3.6915000000000004e+00 1.4919019630994494e+01 9.0406240938487983e+00 0 0 0
176 2 4.9220000000000006e+00 1.2787731112280996e+01 6.0803507206631346e+00 0 0 0
223 2 7.3829999999999991e+00 1.2787731112280996e+01 6.0803507206631346e+00 0 0 0
445 2 4.9220000000000006e+00 1.2787731112280996e+01 9.0406240938487983e+00 0 0 0
446 2 6.1524999999999990e+00 1.3498160618518829e+01 9.0406240938487983e+00 0 0 0
469 2 7.3829999999999991e+00 1.2787731112280996e+01 9.0406240938487983e+00 0 0 0
174 2 4.9220000000000006e+00 1.4208590124756663e+01 6.0803507206631346e+00 0 0 0
219 2 6.1524999999999990e+00 1.4919019630994494e+01 6.0803507206631346e+00 0 0 0
221 2 7.3830000000000009e+00 1.4208590124756663e+01 6.0803507206631346e+00 0 0 0
444 2 4.9220000000000006e+00 1.5629449137232333e+01 9.0406240938487983e+00 0 0 0
467 2 6.1524999999999990e+00 1.4919019630994494e+01 9.0406240938487983e+00 0 0 0
468 2 7.3829999999999991e+00 1.5629449137232333e+01 9.0406240938487983e+00 0 0 0
270 2 9.8440000000000012e+00 1.2787731112280996e+01 6.0803507206631346e+00 0 0 0
470 2 8.6135000000000002e+00 1.3498160618518835e+01 9.0406240938487983e+00 0 0 0
493 2 9.8440000000000012e+00 1.2787731112280996e+01 9.0406240938487983e+00 0 0 0
494 2 1.1074500000000002e+01 1.3498160618518829e+01 9.0406240938487983e+00 0 0 0
266 2 8.6135000000000002e+00 1.4919019630994494e+01 6.0803507206631346e+00 0 0 0
268 2 9.8440000000000012e+00 1.4208590124756663e+01 6.0803507206631346e+00 0 0 0
306 2 1.1074500000000002e+01 1.6339878643470161e+01 6.0803507206631346e+00 0 0 0
308 2 1.1074500000000002e+01 1.4919019630994494e+01 6.0803507206631346e+00 0 0 0
310 2 1.2304999999999998e+01 1.4208590124756658e+01 6.0803507206631346e+00 0 0 0
491 2 8.6135000000000002e+00 1.4919019630994494e+01 9.0406240938487983e+00 0 0 0
492 2 9.8440000000000012e+00 1.5629449137232328e+01 9.0406240938487983e+00 0 0 0
512 2 1.1074500000000002e+01 1.4919019630994494e+01 9.0406240938487983e+00 0 0 0
123 2 0.0000000000000000e+00 1.7050308149707998e+01 6.0803507206631346e+00 0 0 0
125 2 1.2305000000000001e+00 1.6339878643470165e+01 6.0803507206631346e+00 0 0 0
168 2 2.4610000000000003e+00 1.7050308149707998e+01 6.0803507206631346e+00 0 0 0
170 2 3.6915000000000004e+00 1.6339878643470165e+01 6.0803507206631346e+00 0 0 0
418 2 0.0000000000000000e+00 1.7050308149707998e+01 9.0406240938487983e+00 0 0 0
441 2 2.4610000000000003e+00 1.7050308149707998e+01 9.0406240938487983e+00 0 0 0
121 2 0.0000000000000000e+00 1.8471167162183658e+01 6.0803507206631346e+00 0 0 0