LAMMPS data file via write_data, version 16 Mar 2018, timestep = 8000000

4078 atoms
2 atom types

0.0000000000000000e+00 4.9219999999999999e+01 xlo xhi
0.0000000000000000e+00 4.9019635930410494e+01 ylo yhi
9.3300226271398223e-01 2.7006997737282493e+01 zlo zhi

Masses

1 18.015
2 12.01

Atoms # atomic

52 2 0.0000000000000000e+00 2.8417180249513345e+00 2.7404650778215096e+00 0 0 0
54 2 0.0000000000000000e+00 0.0000000000000000e+00 2.7404650778215096e+00 0 0 0
56 2 1.2305000000000001e+00 7.1042950623783474e-01 2.7404650778215096e+00 0 0 0
63 2 1.2305000000000001e+00 2.1312885187134998e+00 2.7404650778215096e+00 0 0 0
65 2 2.4610000000000003e+00 2.8417180249513345e+00 2.7404650778215096e+00 0 0 0
67 2 2.4610000000000003e+00 0.0000000000000000e+00 2.7404650778215096e+00 0 0 0
69 2 3.6915000000000004e+00 7.1042950623783474e-01 2.7404650778215096e+00 0 0 0
84 2 3.6914999999999996e+00 2.1312885187134998e+00 2.7404650778215096e+00 0 0 0
86 2 4.9220000000000006e+00 2.8417180249513332e+00 2.7404650778215096e+00 0 0 0
88 2 4.9220000000000006e+00 0.0000000000000000e+00 2.7404650778215096e+00 0 0 0
90 2 6.1524999999999999e+00 7.1042950623783407e-01 2.7404650778215096e+00 0 0 0
113 2 6.1524999999999999e+00 2.1312885187134989e+00 2.7404650778215096e+00 0 0 0
115 2 7.3829999999999991e+00 2.8417180249513345e+00 2.7404650778215096e+00 0 0 0
117 2 7.3829999999999991e+00 0.0000000000000000e+00 2.7404650778215096e+00 0 0 0
119 2 8.6134999999999984e+00 7.1042950623783407e-01 2.7404650778215096e+00 0 0 0
150 2 8.6134999999999984e+00 2.1312885187135002e+00 2.7404650778215096e+00 0 0 0
152 2 9.8440000000000012e+00 2.8417180249513332e+00 2.7404650778215096e+00 0 0 0
154 2 9.8440000000000012e+00 0.0000000000000000e+00 2.7404650778215096e+00 0 0 0
156 2 1.1074500000000002e+01 7.1042950623783330e-01 2.7404650778215096e+00 0 0 0
195 2 1.1074500000000002e+01 2.1312885187135002e+00 2.7404650778215096e+00 0 0 0
59 2 0.0000000000000000e+00 4.2625770374269996e+00 2.7404650778215096e+00 0 0 0
61 2 1.2305000000000001e+00 4.9730065436648339e+00 2.7404650778215096e+00 0 0 0
76 2 1.2305000000000001e+00 6.3938655561404980e+00 2.7404650778215096e+00 0 0 0
80 2 2.4610000000000003e+00 4.2625770374269996e+00 2.7404650778215096e+00 0 0 0
82 2 3.6914999999999996e+00 4.9730065436648339e+00 2.7404650778215096e+00 0 0 0
105 2 3.6914999999999996e+00 6.3938655561404980e+00 2.7404650778215096e+00 0 0 0
57 2 0.0000000000000000e+00 7.1042950623783341e+00 2.7404650778215096e+00 0 0 0
78 2 2.4610000000000003e+00 7.1042950623783341e+00 2.7404650778215096e+00 0 0 0
109 2 4.9220000000000006e+00 4.2625770374269978e+00 2.7404650778215096e+00 0 0 0
111 2 6.1524999999999999e+00 4.9730065436648339e+00 2.7404650778215096e+00 0 0 0
142 2 6.1524999999999999e+00 6.3938655561404980e+00 2.7404650778215096e+00 0 0 0
146 2 7.3829999999999991e+00 4.2625770374269996e+00 2.7404650778215096e+00 0 0 0
107 2 4.9220000000000006e+00 7.1042950623783341e+00 2.7404650778215096e+00 0 0 0
144 2 7.3830000000000009e+00 7.1042950623783341e+00 2.7404650778215096e+00 0 0 0
148 2 8.6135000000000002e+00 4.9730065436648339e+00 2.7404650778215096e+00 0 0 0
187 2 8.6135000000000002e+00 6.3938655561404980e+00 2.7404650778215096e+00 0 0 0
191 2 9.8440000000000012e+00 4.2625770374270004e+00 2.7404650778215096e+00 0 0 0
193 2 1.1074500000000002e+01 4.9730065436648339e+00 2.7404650778215096e+00 0 0 0
234 2 1.1074500000000002e+01 6.3938655561404980e+00 2.7404650778215096e+00 0 0 0
189 2 9.8440000000000012e+00 7.1042950623783341e+00 2.7404650778215096e+00 0 0 0
72 2 0.0000000000000000e+00 8.5251540748539991e+00 2.7404650778215096e+00 0 0 0
74 2 1.2305000000000001e+00 9.2355835810918343e+00 2.7404650778215096e+00 0 0 0
101 2 2.4610000000000003e+00 8.5251540748539991e+00 2.7404650778215096e+00 0 0 0
103 2 3.6915000000000004e+00 9.2355835810918343e+00 2.7404650778215096e+00 0 0 0
70 2 0.0000000000000000e+00 1.1366872099805333e+01 2.7404650778215096e+00 0 0 0
97 2 1.2305000000000001e+00 1.0656442593567498e+01 2.7404650778215096e+00 0 0 0
99 2 2.4610000000000003e+00 1.1366872099805333e+01 2.7404650778215096e+00 0 0 0
134 2 3.6914999999999996e+00 1.0656442593567499e+01 2.7404650778215096e+00 0 0 0
138 2 4.9220000000000006e+00 8.5251540748539991e+00 2.7404650778215096e+00 0 0 0
140 2 6.1524999999999999e+00 9.2355835810918343e+00 2.7404650778215096e+00 0 0 0
183 2 7.3830000000000009e+00 8.5251540748539991e+00 2.7404650778215096e+00 0 0 0
136 2 4.9220000000000006e+00 1.1366872099805333e+01 2.7404650778215096e+00 0 0 0
179 2 6.1524999999999999e+00 1.0656442593567499e+01 2.7404650778215096e+00 0 0 0
181 2 7.3829999999999991e+00 1.1366872099805333e+01 2.7404650778215096e+00 0 0 0
185 2 8.6134999999999984e+00 9.2355835810918343e+00 2.7404650778215096e+00 0 0 0
230 2 9.8440000000000012e+00 8.5251540748539956e+00 2.7404650778215096e+00 0 0 0
232 2 1.1074500000000002e+01 9.2355835810918343e+00 2.7404650778215096e+00 0 0 0
226 2 8.6134999999999984e+00 1.0656442593567498e+01 2.7404650778215096e+00 0 0 0
228 2 9.8440000000000012e+00 1.1366872099805333e+01 2.7404650778215096e+00 0 0 0
273 2 1.1074500000000002e+01 1.0656442593567498e+01 2.7404650778215096e+00 0 0 0
275 2 1.2304999999999998e+01 1.1366872099805333e+01 2.7404650778215096e+00 0 0 0
53 2 0.0000000000000000e+00 1.4208590124756650e+00 5.8043111795830882e+00 0 0 0
55 2 0.0000000000000000e+00 0.0000000000000000e+00 5.8043111795830882e+00 0 0 0
64 2 1.2305000000000001e+00 2.1312885187134998e+00 5.8043111795830882e+00 0 0 0
66 2 2.4610000000000003e+00 1.4208590124756650e+00 5.8043111795830882e+00 0 0 0
68 2 2.4610000000000003e+00 0.0000000000000000e+00 5.8043111795830882e+00 0 0 0
85 2 3.6914999999999996e+00 2.1312885187134998e+00 5.8043111795830882e+00 0 0 0
381 2 0.0000000000000000e+00 2.8417180249513345e+00 8.8681572813566731e+00 0 0 0
382 2 0.0000000000000000e+00 0.0000000000000000e+00 8.8681572813566731e+00 0 0 0
383 2 1.2305000000000001e+00 7.1042950623783474e-01 8.8681572813566731e+00 0 0 0
387 2 1.2305000000000001e+00 2.1312885187134998e+00 8.8681572813566731e+00 0 0 0
388 2 2.4610000000000003e+00 2.8417180249513345e+00 8.8681572813566731e+00 0 0 0
389 2 2.4610000000000003e+00 0.0000000000000000e+00 8.8681572813566731e+00 0 0 0
390 2 3.6915000000000004e+00 7.1042950623783474e-01 8.8681572813566731e+00 0 0 0
398 2 3.6914999999999996e+00 2.1312885187134998e+00 8.8681572813566731e+00 0 0 0
62 2 1.2305000000000001e+00 3.5521475311891644e+00 5.8043111795830882e+00 0 0 0
83 2 3.6914999999999996e+00 3.5521475311891644e+00 5.8043111795830882e+00 0 0 0
87 2 4.9220000000000006e+00 1.4208590124756650e+00 5.8043111795830882e+00 0 0 0
89 2 4.9220000000000006e+00 0.0000000000000000e+00 5.8043111795830882e+00 0 0 0
114 2 6.1524999999999999e+00 2.1312885187134989e+00 5.8043111795830882e+00 0 0 0
116 2 7.3829999999999991e+00 1.4208590124756659e+00 5.8043111795830882e+00 0 0 0
118 2 7.3829999999999991e+00 0.0000000000000000e+00 5.8043111795830882e+00 0 0 0
399 2 4.9220000000000006e+00 2.8417180249513332e+00 8.8681572813566731e+00 0 0 0
400 2 4.9220000000000006e+00 0.0000000000000000e+00 8.8681572813566731e+00 0 0 0
401 2 6.1524999999999999e+00 7.1042950623783407e-01 8.8681572813566731e+00 0 0 0
413 2 6.1524999999999999e+00 2.1312885187134989e+00 8.8681572813566731e+00 0 0 0
414 2 7.3829999999999991e+00 2.8417180249513345e+00 8.8681572813566731e+00 0 0 0
415 2 7.3829999999999991e+00 0.0000000000000000e+00 8.8681572813566731e+00 0 0 0
112 2 6.1524999999999999e+00 3.5521475311891644e+00 5.8043111795830882e+00 0 0 0
151 2 8.6134999999999984e+00 2.1312885187135002e+00 5.8043111795830882e+00 0 0 0
153 2 9.8440000000000012e+00 1.4208590124756659e+00 5.8043111795830882e+00 0 0 0
155 2 9.8440000000000012e+00 0.0000000000000000e+00 5.8043111795830882e+00 0 0 0
196 2 1.1074500000000002e+01 2.1312885187135002e+00 5.8043111795830882e+00 0 0 0
416 2 8.6134999999999984e+00 7.1042950623783407e-01 8.8681572813566731e+00 0 0 0
432 2 8.6134999999999984e+00 2.1312885187135002e+00 8.8681572813566731e+00 0 0 0
433 2 9.8440000000000012e+00 2.8417180249513332e+00 8.8681572813566731e+00 0 0 0
434 2 9.8440000000000012e+00 0.0000000000000000e+00 8.8681572813566731e+00 0 0 0
435 2 1.1074500000000002e+01 7.1042950623783330e-01 8.8681572813566731e+00 0 0 0
455 2 1.1074500000000002e+01 2.1312885187135002e+00 8.8681572813566731e+00 0 0 0
149 2 8.6134999999999984e+00 3.5521475311891657e+00 5.8043111795830882e+00 0 0 0
194 2 1.1074500000000002e+01 3.5521475311891644e+00 5.8043111795830882e+00 0 0 0
58 2 0.0000000000000000e+00 5.6834360499026637e+00 5.8043111795830882e+00 0 0 0
60 2 0.0000000000000000e+00 4.2625770374269996e+00 5.8043111795830882e+00 0 0 0
77 2 1.2305000000000001e+00 6.3938655561404980e+00 5.8043111795830882e+00 0 0 0
79 2 2.4610000000000003e+00 5.6834360499026637e+00 5.8043111795830882e+00 0 0 0
81 2 2.4610000000000003e+00 4.2625770374269996e+00 5.8043111795830882e+00 0 0 0
106 2 3.6914999999999996e+00 6.3938655561404980e+00 5.8043111795830882e+00 0 0 0
385 2 0.0000000000000000e+00 4.2625770374269996e+00 8.8681572813566731e+00 0 0 0
386 2 1.2305000000000001e+00 4.9730065436648339e+00 8.8681572813566731e+00 0 0 0
394 2 1.2305000000000001e+00 6.3938655561404980e+00 8.8681572813566731e+00 0 0 0
396 2 2.4610000000000003e+00 4.2625770374269996e+00 8.8681572813566731e+00 0 0 0
397 2 3.6914999999999996e+00 4.9730065436648339e+00 8.8681572813566731e+00 0 0 0
409 2 3.6914999999999996e+00 6.3938655561404980e+00 8.8681572813566731e+00 0 0 0
75 2 1.2305000000000001e+00 7.8147245686161639e+00 5.8043111795830882e+00 0 0 0
104 2 3.6914999999999996e+00 7.8147245686161639e+00 5.8043111795830882e+00 0 0 0
384 2 0.0000000000000000e+00 7.1042950623783341e+00 8.8681572813566731e+00 0 0 0
395 2 2.4610000000000003e+00 7.1042950623783341e+00 8.8681572813566731e+00 0 0 0
108 2 4.9220000000000006e+00 5.6834360499026637e+00 5.8043111795830882e+00 0 0 0
110 2 4.9220000000000006e+00 4.2625770374269978e+00 5.8043111795830882e+00 0 0 0
143 2 6.1524999999999999e+00 6.3938655561404980e+00 5.8043111795830882e+00 0 0 0
145 2 7.3829999999999991e+00 5.6834360499026637e+00 5.8043111795830882e+00 0 0 0
147 2 7.3829999999999991e+00 4.2625770374269996e+00 5.8043111795830882e+00 0 0 0
411 2 4.9220000000000006e+00 4.2625770374269978e+00 8.8681572813566731e+00 0 0 0
412 2 6.1524999999999999e+00 4.9730065436648339e+00 8.8681572813566731e+00 0 0 0
428 2 6.1524999999999999e+00 6.3938655561404980e+00 8.8681572813566731e+00 0 0 0
430 2 7.3829999999999991e+00 4.2625770374269996e+00 8.8681572813566731e+00 0 0 0
141 2 6.1524999999999999e+00 7.8147245686161639e+00 5.8043111795830882e+00 0 0 0
410 2 4.9220000000000006e+00 7.1042950623783341e+00 8.8681572813566731e+00 0 0 0
429 2 7.3830000000000009e+00 7.1042950623783341e+00 8.8681572813566731e+00 0 0 0
188 2 8.6135000000000002e+00 6.3938655561404980e+00 5.8043111795830882e+00 0 0 0
190 2 9.8440000000000012e+00 5.6834360499026637e+00 5.8043111795830882e+00 0 0 0
192 2 9.8440000000000012e+00 4.2625770374270004e+00 5.8043111795830882e+00 0 0 0
235 2 1.1074500000000002e+01 6.3938655561404980e+00 5.8043111795830882e+00 0 0 0
431 2 8.6135000000000002e+00 4.9730065436648339e+00 8.8681572813566731e+00 0 0 0
451 2 8.6135000000000002e+00 6.3938655561404980e+00 8.8681572813566731e+00 0 0 0
453 2 9.8440000000000012e+00 4.2625770374270004e+00 8.8681572813566731e+00 0 0 0
454 2 1.1074500000000002e+01 4.9730065436648339e+00 8.8681572813566731e+00 0 0 0
475 2 1.1074500000000002e+01 6.3938655561404980e+00 8.8681572813566731e+00 0 0 0
186 2 8.6135000000000002e+00 7.8147245686161639e+00 5.8043111795830882e+00 0 0 0
233 2 1.1074500000000002e+01 7.8147245686161639e+00 5.8043111795830882e+00 0 0 0
452 2 9.8440000000000012e+00 7.1042950623783341e+00 8.8681572813566731e+00 0 0 0
71 2 0.0000000000000000e+00 9.9460130873296642e+00 5.8043111795830882e+00 0 0 0
73 2 0.0000000000000000e+00 8.5251540748539991e+00 5.8043111795830882e+00 0 0 0
100 2 2.4610000000000003e+00 9.9460130873296642e+00 5.8043111795830882e+00 0 0 0
102 2 2.4610000000000003e+00 8.5251540748539991e+00 5.8043111795830882e+00 0 0 0
392 2 0.0000000000000000e+00 8.5251540748539991e+00 8.8681572813566731e+00 0 0 0
393 2 1.2305000000000001e+00 9.2355835810918343e+00 8.8681572813566731e+00 0 0 0
407 2 2.4610000000000003e+00 8.5251540748539991e+00 8.8681572813566731e+00 0 0 0
408 2 3.6915000000000004e+00 9.2355835810918343e+00 8.8681572813566731e+00 0 0 0
96 2 1.2305000000000001e+00 1.2077301606043163e+01 5.8043111795830882e+00 0 0 0
98 2 1.2305000000000001e+00 1.0656442593567498e+01 5.8043111795830882e+00 0 0 0
133 2 3.6914999999999996e+00 1.2077301606043163e+01 5.8043111795830882e+00 0 0 0
135 2 3.6914999999999996e+00 1.0656442593567499e+01 5.8043111795830882e+00 0 0 0
391 2 0.0000000000000000e+00 1.1366872099805333e+01 8.8681572813566731e+00 0 0 0
405 2 1.2305000000000001e+00 1.0656442593567498e+01 8.8681572813566731e+00 0 0 0
406 2 2.4610000000000003e+00 1.1366872099805333e+01 8.8681572813566731e+00 0 0 0
424 2 3.6914999999999996e+00 1.0656442593567499e+01 8.8681572813566731e+00 0 0 0
137 2 4.9220000000000006e+00 9.9460130873296642e+00 5.8043111795830882e+00 0 0 0
139 2 4.9220000000000006e+00 8.5251540748539991e+00 5.8043111795830882e+00 0 0 0
182 2 7.3830000000000009e+00 9.9460130873296642e+00 5.8043111795830882e+00 0 0 0
184 2 7.3830000000000009e+00 8.5251540748539991e+00 5.8043111795830882e+00 0 0 0
426 2 4.9220000000000006e+00 8.5251540748539991e+00 8.8681572813566731e+00 0 0 0
427 2 6.1524999999999999e+00 9.2355835810918343e+00 8.8681572813566731e+00 0 0 0
449 2 7.3830000000000009e+00 8.5251540748539991e+00 8.8681572813566731e+00 0 0 0
178 2 6.1524999999999999e+00 1.2077301606043163e+01 5.8043111795830882e+00 0 0 0
180 2 6.1524999999999999e+00 1.0656442593567499e+01 5.8043111795830882e+00 0 0 0
425 2 4.9220000000000006e+00 1.1366872099805333e+01 8.8681572813566731e+00 0 0 0
447 2 6.1524999999999999e+00 1.0656442593567499e+01 8.8681572813566731e+00 0 0 0
448 2 7.3829999999999991e+00 1.1366872099805333e+01 8.8681572813566731e+00 0 0 0
229 2 9.8440000000000012e+00 9.9460130873296642e+00 5.8043111795830882e+00 0 0 0
231 2 9.8440000000000012e+00 8.5251540748539956e+00 5.8043111795830882e+00 0 0 0
450 2 8.6134999999999984e+00 9.2355835810918343e+00 8.8681572813566731e+00 0 0 0
473 2 9.8440000000000012e+00 8.5251540748539956e+00 8.8681572813566731e+00 0 0 0
474 2 1.1074500000000002e+01 9.2355835810918343e+00 8.8681572813566731e+00 0 0 0
225 2 8.6135000000000002e+00 1.2077301606043163e+01 5.8043111795830882e+00 0 0 0
227 2 8.6134999999999984e+00 1.0656442593567498e+01 5.8043111795830882e+00 0 0 0
272 2 1.1074500000000002e+01 1.2077301606043163e+01 5.8043111795830882e+00 0 0 0
274 2 1.1074500000000002e+01 1.0656442593567498e+01 5.8043111795830882e+00 0 0 0
471 2 8.6134999999999984e+00 1.0656442593567498e+01 8.8681572813566731e+00 0 0 0
472 2 9.8440000000000012e+00 1.1366872099805333e+01 8.8681572813566731e+00 0 0 0
495 2 1.1074500000000002e+01 1.0656442593567498e+01 8.8681572813566731e+00 0 0 0
496 2 1.2304999999999998e+01 1.1366872099805333e+01 8.8681572813566731e+00 0 0 0
2703 1 2.4867796534990534e+00 6.5556527329994629e-01 1.1743295869884101e+01 2 0 1
1276 1 9.0195857062451044e+00 1.0328710861837409e+01 1.1984253900437279e+01 0 2 0
3992 1 4.6258750491813281e+00 2.5833219192229526e+00 1.1948413135918527e+01 1 2 0
1300 1 6.5703812667019230e+00 3.6473299355511557e-01 1.1302969518623659e+01 0 0 0
3355 1 1.0791520812376801e+01 9.8725001051934869e-01 1.1665868499624160e+01 1 1 0
1403 1 8.4346571923105547e+00 2.5205170808487458e+00 1.1934400060213648e+01 -1 0 1
1366 1 1.9929694131157341e+00 6.3362393324280513e+00 1.1765997514540704e+01 -3 2 -1
3956 1 1.1200058541807635e+01 9.0858245886303290e+00 1.1189610879294399e+01 4 -2 1
14 1 4.2599459328358726e+00 5.2651612932797711e+00 1.1159824493204930e+01 -2 1 1
3303 1 6.3067826837381649e+00 6.6259803010149527e+00 1.2254404265358112e+01 0 1 -1
3329 1 8.8669086031050597e+00 5.2168800434628038e+00 1.1422078642158827e+01 -5 0 0
735 1 1.1151865496245119e+01 6.3352840151260992e+00 1.1816948333812606e+01 2 -1 0
1348 1 1.9583953899585891e+00 8.8011069294157824e+00 1.1349411499216211e+01 2 -1 -1
4041 1 4.4649391675644434e+00 1.0275400223425935e+01 1.1992620164514250e+01 1 3 0
2716 1 6.6991481204590482e+00 9.2751559572171409e+00 1.1214525662583094e+01 -2 -1 -1
700 1 2.0269065726199642e-01 2.2946411292608153e+00 1.2016590492628989e+01 1 1 0
3420 1 1.9711126857170458e+00 3.8225599997974076e+00 1.5626832193537712e+01 0 -2 -1
1440 1 1.9693809224725660e+00 3.7411083413281863e+00 1.8307315265219373e+01 -3 2 0
3288 1 9.2899839637524408e+00 1.0453580621209770e+01 2.6131566943496360e+01 -1 3 -1
3275 1 4.2321957330347688e+00 2.1374196111771875e+00 1.4539815910880913e+01 1 -1 0
3437 1 6.2806123161611120e+00 3.6498022494594862e+00 1.5590602691728376e+01 -2 1 0
2738 1 8.5452565088234707e+00 2.5485891623212948e+00 1.4680841533621411e+01 -1 0 0
3380 1 1.0936142157229872e+01 3.8484369827228173e+00 1.5431352867897791e+01 -1 -2 1
3400 1 1.7368515692061435e+00 6.7289983689155122e+00 1.4523361551353332e+01 1 -1 0
2617 1 1.9534167029888445e+00 1.2164276200718437e+01 2.2772842035860101e+01 1 2 -1
1935 1 6.3404937150765397e+00 1.1828468382580297e+01 2.2728251174994199e+01 1 -2 -1
734 1 3.9691934832405615e+00 7.7269232618665180e+00 1.5759446478160600e+01 -2 2 1
1930 1 6.4595068712324792e+00 6.1704906040863978e+00 1.4952377644013616e+01 2 4 -1
751 1 4.1636821739447365e+00 7.6836028269272383e+00 1.8605827945229372e+01 1 -3 1
553 1 8.8129836243204345e+00 7.5154340666045272e+00 1.5319087387080920e+01 -1 0 -1
1969 1 1.1204892051882913e+01 6.5672385676972951e+00 1.4488823641783533e+01 -1 1 0
731 1 8.9450813130042430e+00 7.6481674574473759e+00 1.8280790446055832e+01 2 0 0
623 1 1.9501324591580647e+00 1.1879243325979314e+01 1.5706986175310025e+01 0 -2 0
11 1 6.7022233157733142e+00 1.1836166054002002e+01 2.5466001137921467e+01 2 -2 0
2627 1 6.5458649815102952e+00 1.1535957877476241e+01 1.8267657442925561e+01 2 2 0
670 1 4.1787477734080651e+00 1.0369932653818243e+01 1.4737634544205100e+01 -2 2 0
30 1 6.6532663751806496e+00 1.1496333765415613e+01 1.5531769807881771e+01 -2 2 -1
1340 1 4.3028930115035608e+00 1.0587390737412182e+01 2.6212238714806432e+01 1 -1 0
685 1 9.1482554445402382e+00 1.0090333905158479e+01 1.4678444126693952e+01 0 0 -1
767 1 6.1611148131978153e+00 4.0889489819288451e+00 1.8320542399804381e+01 0 -1 -1
3980 1 4.1084903768812193e+00 2.4868990835885878e+00 1.9018384608554307e+01 1 1 -1
4043 1 4.2420360121707814e+00 2.0863494993742213e+00 2.2114426793056964e+01 0 3 -1
3969 1 8.4001134210174602e+00 2.4847735808491822e+00 1.9097443663640483e+01 3 1 -1
594 1 8.5452641416319981e+00 2.2156177618772732e+00 2.1904270637420410e+01 1 -3 0
40 1 1.0862941686019047e+01 3.4444657347867289e+00 1.8230836486332002e+01 0 2 0
2090 1 2.0548183223708834e+00 6.2856855430001888e+00 1.9043360743437297e+01 2 3 0
603 1 1.9767348932814013e+00 6.3910861199063804e+00 2.1942185451566566e+01 1 -2 -1
2004 1 6.5730980725203727e+00 6.6719016765839809e+00 1.9409422075150275e+01 -2 0 -2
4070 1 6.5853013757225121e+00 6.6574989268670715e+00 2.2037806573446289e+01 0 0 -1
1418 1 1.1169146821863944e+01 6.1792695826753921e+00 1.9190314444221229e+01 -1 2 1
1305 1 1.0965798228887564e+01 6.3850331263924707e+00 2.2110809215694111e+01 -2 -1 -1
728 1 1.9369028454327721e+00 1.1932935819555375e+01 1.8545802330241678e+01 2 2 0
3359 1 4.0642080811962575e+00 1.0475957812216658e+01 2.1812345514933853e+01 1 0 -1
3402 1 4.2851114983615224e+00 1.0487757929799651e+01 1.9116934017862924e+01 3 -1 -1
2776 1 9.0418509123210562e+00 1.0258825490444673e+01 1.9489702817072043e+01 1 1 0
3262 1 8.5849054971788252e+00 1.0421015277055265e+01 2.2100168890920997e+01 1 0 0
4072 1 1.0906307658874001e+01 1.2090073566447053e+01 2.2880099417404779e+01 -1 2 -1
708 1 1.1133481448420989e+01 1.1828905627380149e+01 1.8224536926037224e+01 -1 -3 -1
2587 1 2.2139270973718896e+00 3.7254799993562302e+00 2.2940029805936796e+01 2 -3 0
2143 1 1.9506136934632601e+00 3.7220098007795412e+00 2.5759728958196604e+01 4 0 0
1402 1 6.3279417321236515e+00 3.7496038664801756e+00 2.2803981390712913e+01 4 0 0
4075 1 4.1915602610854856e+00 2.0612758621779941e+00 2.6309343721233205e+01 0 0 -1
1284 1 5.9995054738987479e+00 3.7772036273870691e+00 2.5437468636229937e+01 0 -3 0
1447 1 1.0670774624734770e+01 3.5198769737920119e+00 2.2874383433099972e+01 -2 0 1
641 1 8.3429780508501157e+00 2.2788201009369442e+00 2.6246874099743039e+01 1 1 0
1325 1 1.0852961916639856e+01 3.5938313722230126e+00 2.5816766773913123e+01 -2 0 -1
764 1 2.4667524461153434e+00 6.3602671731523284e+00 2.6518513939430576e+01 0 2 1
3904 1 4.2339548483903675e+00 8.0021867408865468e+00 2.5425313860015763e+01 4 0 0
729 1 4.0487803630896684e+00 7.6282032093934591e+00 2.2699832928284707e+01 2 1 0
3357 1 6.1030921463215986e+00 6.4661675124608120e+00 2.6476380814898974e+01 2 0 -1
1942 1 8.9673591375111155e+00 7.9094510221036609e+00 2.2825753788050278e+01 1 3 -1
3267 1 1.0726594706942604e+01 6.3159560866754703e+00 2.6448705607873045e+01 2 -4 1
4023 1 8.6165129559784965e+00 7.6850321673563835e+00 2.5679827905284021e+01 -1 1 0
1949 1 2.0390829133415633e+00 1.1795550518546507e+01 2.5565496917646072e+01 -2 0 -1
606 1 1.1263867211939756e+01 1.1989808620818222e+01 2.5602009482274283e+01 1 -2 0
671 1 1.1595212330793180e+01 1.1443965353783085e+01 1.5468769763682186e+01 0 2 0
2057 1 1.0583907032181372e-01 2.3302388974489068e+00 2.2121411212616358e+01 4 -2 -1
741 1 1.5264043430560711e-01 7.6940367137638841e+00 2.5553611163493912e+01 2 -1 -1
93 2 0.0000000000000000e+00 1.2787731112280996e+01 2.7404650778215096e+00 0 0 0
95 2 1.2305000000000001e+00 1.3498160618518829e+01 2.7404650778215096e+00 0 0 0
130 2 2.4610000000000003e+00 1.2787731112280996e+01 2.7404650778215096e+00 0 0 0
132 2 3.6915000000000004e+00 1.3498160618518829e+01 2.7404650778215096e+00 0 0 0
91 2 0.0000000000000000e+00 1.5629449137232333e+01 2.7404650778215096e+00 0 0 0
126 2 1.2305000000000001e+00 1.4919019630994494e+01 2.7404650778215096e+00 0 0 0
128 2 2.4610000000000003e+00 1.5629449137232328e+01 2.7404650778215096e+00 0 0 0
171 2 3.6915000000000004e+00 1.4919019630994494e+01 2.7404650778215096e+00 0 0 0
175 2 4.9220000000000006e+00 1.2787731112280996e+01 2.7404650778215096e+00 0 0 0
177 2 6.1524999999999990e+00 1.3498160618518829e+01 2.7404650778215096e+00 0 0 0
222 2 7.3829999999999991e+00 1.2787731112280996e+01 2.7404650778215096e+00 0 0 0
173 2 4.9220000000000006e+00 1.5629449137232333e+01 2.7404650778215096e+00 0 0 0
218 2 6.1524999999999990e+00 1.4919019630994494e+01 2.7404650778215096e+00 0 0 0
220 2 7.3829999999999991e+00 1.5629449137232333e+01 2.7404650778215096e+00 0 0 0
224 2 8.6135000000000002e+00 1.3498160618518835e+01 2.7404650778215096e+00 0 0 0
269 2 9.8440000000000012e+00 1.2787731112280996e+01 2.7404650778215096e+00 0 0 0
271 2 1.1074500000000002e+01 1.3498160618518829e+01 2.7404650778215096e+00 0 0 0
265 2 8.6135000000000002e+00 1.4919019630994494e+01 2.7404650778215096e+00 0 0 0
267 2 9.8440000000000012e+00 1.5629449137232328e+01 2.7404650778215096e+00 0 0 0
307 2 1.1074500000000002e+01 1.4919019630994494e+01 2.7404650778215096e+00 0 0 0
122 2 0.0000000000000000e+00 1.7050308149707998e+01 2.7404650778215096e+00 0 0 0
167 2 2.4610000000000003e+00 1.7050308149707998e+01 2.7404650778215096e+00 0 0 0
120 2 0.0000000000000000e+00 1.9892026174659328e+01 2.7404650778215096e+00 0 0 0
124 2 1.2305000000000001e+00 1.7760737655945832e+01 2.7404650778215096e+00 0 0 0
163 2 1.2305000000000001e+00 1.9181596668421495e+01 2.7404650778215096e+00 0 0 0
165 2 2.4610000000000003e+00 1.9892026174659328e+01 2.7404650778215096e+00 0 0 0
169 2 3.6914999999999996e+00 1.7760737655945832e+01 2.7404650778215096e+00 0 0 0
210 2 3.6914999999999996e+00 1.9181596668421495e+01 2.7404650778215096e+00 0 0 0
214 2 4.9220000000000006e+00 1.7050308149707998e+01 2.7404650778215096e+00 0 0 0
261 2 7.3830000000000009e+00 1.7050308149707998e+01 2.7404650778215096e+00 0 0 0
212 2 4.9220000000000006e+00 1.9892026174659328e+01 2.7404650778215096e+00 0 0 0
216 2 6.1524999999999999e+00 1.7760737655945832e+01 2.7404650778215096e+00 0 0 0
257 2 6.1524999999999999e+00 1.9181596668421495e+01 2.7404650778215096e+00 0 0 0
259 2 7.3829999999999991e+00 1.9892026174659328e+01 2.7404650778215096e+00 0 0 0
303 2 9.8440000000000012e+00 1.7050308149707998e+01 2.7404650778215096e+00 0 0 0
337 2 1.2304999999999998e+01 1.7050308149707998e+01 2.7404650778215096e+00 0 0 0
263 2 8.6134999999999984e+00 1.7760737655945832e+01 2.7404650778215096e+00 0 0 0
299 2 8.6135000000000002e+00 1.9181596668421495e+01 2.7404650778215096e+00 0 0 0
301 2 9.8440000000000012e+00 1.9892026174659335e+01 2.7404650778215096e+00 0 0 0
305 2 1.1074500000000002e+01 1.7760737655945835e+01 2.7404650778215096e+00 0 0 0
333 2 1.1074500000000002e+01 1.9181596668421495e+01 2.7404650778215096e+00 0 0 0
157 2 0.0000000000000000e+00 2.4154603212086325e+01 2.7404650778215096e+00 0 0 0
159 2 0.0000000000000000e+00 2.1312885187134999e+01 2.7404650778215096e+00 0 0 0
161 2 1.2304999999999993e+00 2.2023314693372832e+01 2.7404650778215096e+00 0 0 0
202 2 1.2304999999999993e+00 2.3444173705848499e+01 2.7404650778215096e+00 0 0 0
204 2 2.4610000000000003e+00 2.4154603212086325e+01 2.7404650778215096e+00 0 0 0
206 2 2.4610000000000003e+00 2.1312885187134995e+01 2.7404650778215096e+00 0 0 0
208 2 3.6914999999999996e+00 2.2023314693372832e+01 2.7404650778215096e+00 0 0 0
249 2 3.6915000000000004e+00 2.3444173705848499e+01 2.7404650778215096e+00 0 0 0
251 2 4.9220000000000006e+00 2.4154603212086325e+01 2.7404650778215096e+00 0 0 0
253 2 4.9220000000000006e+00 2.1312885187134995e+01 2.7404650778215096e+00 0 0 0
255 2 6.1524999999999990e+00 2.2023314693372832e+01 2.7404650778215096e+00 0 0 0
291 2 6.1524999999999999e+00 2.3444173705848499e+01 2.7404650778215096e+00 0 0 0
293 2 7.3830000000000009e+00 2.4154603212086336e+01 2.7404650778215096e+00 0 0 0
295 2 7.3829999999999991e+00 2.1312885187134999e+01 2.7404650778215096e+00 0 0 0
297 2 8.6135000000000002e+00 2.2023314693372832e+01 2.7404650778215096e+00 0 0 0
325 2 8.6134999999999984e+00 2.3444173705848499e+01 2.7404650778215096e+00 0 0 0
327 2 9.8440000000000012e+00 2.4154603212086336e+01 2.7404650778215096e+00 0 0 0
329 2 9.8440000000000012e+00 2.1312885187134999e+01 2.7404650778215096e+00 0 0 0
331 2 1.1074500000000002e+01 2.2023314693372832e+01 2.7404650778215096e+00 0 0 0
351 2 1.1074500000000002e+01 2.3444173705848499e+01 2.7404650778215096e+00 0 0 0
94 2 0.0000000000000000e+00 1.2787731112280996e+01 5.8043111795830882e+00 0 0 0
131 2 2.4610000000000003e+00 1.2787731112280996e+01 5.8043111795830882e+00 0 0 0
403 2 0.0000000000000000e+00 1.2787731112280996e+01 8.8681572813566731e+00 0 0 0
404 2 1.2305000000000001e+00 1.3498160618518829e+01 8.8681572813566731e+00 0 0 0
422 2 2.4610000000000003e+00 1.2787731112280996e+01 8.8681572813566731e+00 0 0 0
423 2 3.6915000000000004e+00 1.3498160618518829e+01 8.8681572813566731e+00 0 0 0
92 2 0.0000000000000000e+00 1.4208590124756663e+01 5.8043111795830882e+00 0 0 0
127 2 1.2305000000000001e+00 1.4919019630994494e+01 5.8043111795830882e+00 0 0 0
129 2 2.4610000000000003e+00 1.4208590124756663e+01 5.8043111795830882e+00 0 0 0
172 2 3.6915000000000004e+00 1.4919019630994494e+01 5.8043111795830882e+00 0 0 0
402 2 0.0000000000000000e+00 1.5629449137232333e+01 8.8681572813566731e+00 0 0 0
420 2 1.2305000000000001e+00 1.4919019630994494e+01 8.8681572813566731e+00 0 0 0
421 2 2.4610000000000003e+00 1.5629449137232328e+01 8.8681572813566731e+00 0 0 0
443 2 3.6915000000000004e+00 1.4919019630994494e+01 8.8681572813566731e+00 0 0 0
176 2 4.9220000000000006e+00 1.2787731112280996e+01 5.8043111795830882e+00 0 0 0
223 2 7.3829999999999991e+00 1.2787731112280996e+01 5.8043111795830882e+00 0 0 0
445 2 4.9220000000000006e+00 1.2787731112280996e+01 8.8681572813566731e+00 0 0 0
446 2 6.1524999999999990e+00 1.3498160618518829e+01 8.8681572813566731e+00 0 0 0
469 2 7.3829999999999991e+00 1.2787731112280996e+01 8.8681572813566731e+00 0 0 0
174 2 4.9220000000000006e+00 1.4208590124756663e+01 5.8043111795830882e+00 0 0 0
219 2 6.1524999999999990e+00 1.4919019630994494e+01 5.8043111795830882e+00 0 0 0
221 2 7.3830000000000009e+00 1.4208590124756663e+01 5.8043111795830882e+00 0 0 0
444 2 4.9220000000000006e+00 1.5629449137232333e+01 8.8681572813566731e+00 0 0 0
467 2 6.1524999999999990e+00 1.4919019630994494e+01 8.8681572813566731e+00 0 0 0
468 2 7.3829999999999991e+00 1.5629449137232333e+01 8.8681572813566731e+00 0 0 0
270 2 9.8440000000000012e+00 1.2787731112280996e+01 5.8043111795830882e+00 0 0 0
470 2 8.6135000000000002e+00 1.3498160618518835e+01 8.8681572813566731e+00 0 0 0
493 2 9.8440000000000012e+00 1.2787731112280996e+01 8.8681572813566731e+00 0 0 0
494 2 1.1074500000000002e+01 1.3498160618518829e+01 8.8681572813566731e+00 0 0 0
266 2 8.6135000000000002e+00 1.4919019630994494e+01 5.8043111795830882e+00 0 0 0
268 2 9.8440000000000012e+00 1.4208590124756663e+01 5.8043111795830882e+00 0 0 0
306 2 1.1074500000000002e+01 1.6339878643470161e+01 5.8043111795830882e+00 0 0 0
308 2 1.1074500000000002e+01 1.4919019630994494e+01 5.8043111795830882e+00 0 0 0
310 2 1.2304999999999998e+01 1.4208590124756658e+01 5.8043111795830882e+00 0 0 0
491 2 8.6135000000000002e+00 1.4919019630994494e+01 8.8681572813566731e+00 0 0 0
492 2 9.8440000000000012e+00 1.5629449137232328e+01 8.8681572813566731e+00 0 0 0
512 2 1.1074500000000002e+01 1.4919019630994494e+01 8.8681572813566731e+00 0 0 0
123 2 0.0000000000000000e+00 1.7050308149707998e+01 5.8043111795830882e+00 0 0 0
125 2 1.2305000000000001e+00 1.6339878643470165e+01 5.8043111795830882e+00 0 0 0
168 2 2.4610000000000003e+00 1.7050308149707998e+01 5.8043111795830882e+00 0 0 0
170 2 3.6915000000000004e+00 1.6339878643470165e+01 5.8043111795830882e+00 0 0 0
418 2 0.0000000000000000e+00 1.7050308149707998e+01 8.8681572813566731e+00 0 0 0
441 2 2.4610000000000003e+00 1.7050308149707998e+01 8.8681572813566731e+00 0 0 0
121 2 0.0000000000000000e+00 1.8471167162183658e+01 5.8043111795830882e+00 0 0 0