LAMMPS data file via write_data, version 16 Mar 2018, timestep = 100000

4055 atoms
2 atom types

0.0000000000000000e+00 4.9219999999999999e+01 xlo xhi
0.0000000000000000e+00 4.9019635930410494e+01 ylo yhi
1.2111869680584437e+00 2.6728813031942163e+01 zlo zhi

Masses

1 18.015
2 12.01

Atoms # atomic

53 2 0.0000000000000000e+00 2.8417180249513345e+00 2.8194254448744411e+00 0 0 0
55 2 0.0000000000000000e+00 0.0000000000000000e+00 2.8194254448744411e+00 0 0 0
57 2 1.2305000000000001e+00 7.1042950623783474e-01 2.8194254448744411e+00 0 0 0
64 2 1.2305000000000001e+00 2.1312885187134998e+00 2.8194254448744411e+00 0 0 0
66 2 2.4610000000000003e+00 2.8417180249513345e+00 2.8194254448744411e+00 0 0 0
68 2 2.4610000000000003e+00 0.0000000000000000e+00 2.8194254448744411e+00 0 0 0
70 2 3.6915000000000004e+00 7.1042950623783474e-01 2.8194254448744411e+00 0 0 0
85 2 3.6914999999999996e+00 2.1312885187134998e+00 2.8194254448744411e+00 0 0 0
87 2 4.9220000000000006e+00 2.8417180249513332e+00 2.8194254448744411e+00 0 0 0
89 2 4.9220000000000006e+00 0.0000000000000000e+00 2.8194254448744411e+00 0 0 0
60 2 0.0000000000000000e+00 4.2625770374269996e+00 2.8194254448744411e+00 0 0 0
81 2 2.4610000000000003e+00 4.2625770374269996e+00 2.8194254448744411e+00 0 0 0
110 2 4.9220000000000006e+00 4.2625770374269978e+00 2.8194254448744411e+00 0 0 0
62 2 1.2305000000000001e+00 4.9730065436648339e+00 2.8194254448744411e+00 0 0 0
77 2 1.2305000000000001e+00 6.3938655561404980e+00 2.8194254448744411e+00 0 0 0
83 2 3.6914999999999996e+00 4.9730065436648339e+00 2.8194254448744411e+00 0 0 0
106 2 3.6914999999999996e+00 6.3938655561404980e+00 2.8194254448744411e+00 0 0 0
58 2 0.0000000000000000e+00 7.1042950623783341e+00 2.8194254448744411e+00 0 0 0
73 2 0.0000000000000000e+00 8.5251540748539991e+00 2.8194254448744411e+00 0 0 0
75 2 1.2305000000000001e+00 9.2355835810918343e+00 2.8194254448744411e+00 0 0 0
79 2 2.4610000000000003e+00 7.1042950623783341e+00 2.8194254448744411e+00 0 0 0
102 2 2.4610000000000003e+00 8.5251540748539991e+00 2.8194254448744411e+00 0 0 0
104 2 3.6915000000000004e+00 9.2355835810918343e+00 2.8194254448744411e+00 0 0 0
108 2 4.9220000000000006e+00 7.1042950623783341e+00 2.8194254448744411e+00 0 0 0
139 2 4.9220000000000006e+00 8.5251540748539991e+00 2.8194254448744411e+00 0 0 0
54 2 0.0000000000000000e+00 1.4208590124756650e+00 5.8617281421731473e+00 0 0 0
56 2 0.0000000000000000e+00 0.0000000000000000e+00 5.8617281421731473e+00 0 0 0
65 2 1.2305000000000001e+00 2.1312885187134998e+00 5.8617281421731473e+00 0 0 0
67 2 2.4610000000000003e+00 1.4208590124756650e+00 5.8617281421731473e+00 0 0 0
69 2 2.4610000000000003e+00 0.0000000000000000e+00 5.8617281421731473e+00 0 0 0
86 2 3.6914999999999996e+00 2.1312885187134998e+00 5.8617281421731473e+00 0 0 0
382 2 0.0000000000000000e+00 2.8417180249513345e+00 8.9040308394712433e+00 0 0 0
383 2 0.0000000000000000e+00 0.0000000000000000e+00 8.9040308394712433e+00 0 0 0
384 2 1.2305000000000001e+00 7.1042950623783474e-01 8.9040308394712433e+00 0 0 0
388 2 1.2305000000000001e+00 2.1312885187134998e+00 8.9040308394712433e+00 0 0 0
389 2 2.4610000000000003e+00 2.8417180249513345e+00 8.9040308394712433e+00 0 0 0
390 2 2.4610000000000003e+00 0.0000000000000000e+00 8.9040308394712433e+00 0 0 0
391 2 3.6915000000000004e+00 7.1042950623783474e-01 8.9040308394712433e+00 0 0 0
399 2 3.6914999999999996e+00 2.1312885187134998e+00 8.9040308394712433e+00 0 0 0
88 2 4.9220000000000006e+00 1.4208590124756650e+00 5.8617281421731473e+00 0 0 0
90 2 4.9220000000000006e+00 0.0000000000000000e+00 5.8617281421731473e+00 0 0 0
400 2 4.9220000000000006e+00 2.8417180249513332e+00 8.9040308394712433e+00 0 0 0
401 2 4.9220000000000006e+00 0.0000000000000000e+00 8.9040308394712433e+00 0 0 0
61 2 0.0000000000000000e+00 4.2625770374269996e+00 5.8617281421731473e+00 0 0 0
63 2 1.2305000000000001e+00 3.5521475311891644e+00 5.8617281421731473e+00 0 0 0
82 2 2.4610000000000003e+00 4.2625770374269996e+00 5.8617281421731473e+00 0 0 0
84 2 3.6914999999999996e+00 3.5521475311891644e+00 5.8617281421731473e+00 0 0 0
386 2 0.0000000000000000e+00 4.2625770374269996e+00 8.9040308394712433e+00 0 0 0
397 2 2.4610000000000003e+00 4.2625770374269996e+00 8.9040308394712433e+00 0 0 0
111 2 4.9220000000000006e+00 4.2625770374269978e+00 5.8617281421731473e+00 0 0 0
412 2 4.9220000000000006e+00 4.2625770374269978e+00 8.9040308394712433e+00 0 0 0
59 2 0.0000000000000000e+00 5.6834360499026637e+00 5.8617281421731473e+00 0 0 0
78 2 1.2305000000000001e+00 6.3938655561404980e+00 5.8617281421731473e+00 0 0 0
80 2 2.4610000000000003e+00 5.6834360499026637e+00 5.8617281421731473e+00 0 0 0
107 2 3.6914999999999996e+00 6.3938655561404980e+00 5.8617281421731473e+00 0 0 0
387 2 1.2305000000000001e+00 4.9730065436648339e+00 8.9040308394712433e+00 0 0 0
395 2 1.2305000000000001e+00 6.3938655561404980e+00 8.9040308394712433e+00 0 0 0
398 2 3.6914999999999996e+00 4.9730065436648339e+00 8.9040308394712433e+00 0 0 0
410 2 3.6914999999999996e+00 6.3938655561404980e+00 8.9040308394712433e+00 0 0 0
109 2 4.9220000000000006e+00 5.6834360499026637e+00 5.8617281421731473e+00 0 0 0
74 2 0.0000000000000000e+00 8.5251540748539991e+00 5.8617281421731473e+00 0 0 0
76 2 1.2305000000000001e+00 7.8147245686161639e+00 5.8617281421731473e+00 0 0 0
103 2 2.4610000000000003e+00 8.5251540748539991e+00 5.8617281421731473e+00 0 0 0
105 2 3.6914999999999996e+00 7.8147245686161639e+00 5.8617281421731473e+00 0 0 0
385 2 0.0000000000000000e+00 7.1042950623783341e+00 8.9040308394712433e+00 0 0 0
393 2 0.0000000000000000e+00 8.5251540748539991e+00 8.9040308394712433e+00 0 0 0
394 2 1.2305000000000001e+00 9.2355835810918343e+00 8.9040308394712433e+00 0 0 0
396 2 2.4610000000000003e+00 7.1042950623783341e+00 8.9040308394712433e+00 0 0 0
408 2 2.4610000000000003e+00 8.5251540748539991e+00 8.9040308394712433e+00 0 0 0
409 2 3.6915000000000004e+00 9.2355835810918343e+00 8.9040308394712433e+00 0 0 0
140 2 4.9220000000000006e+00 8.5251540748539991e+00 5.8617281421731473e+00 0 0 0
411 2 4.9220000000000006e+00 7.1042950623783341e+00 8.9040308394712433e+00 0 0 0
427 2 4.9220000000000006e+00 8.5251540748539991e+00 8.9040308394712433e+00 0 0 0
1965 1 4.2617117490208773e+00 2.5785978618507190e+00 1.1882808660770225e+01 1 0 0
3958 1 3.5136279832959718e+00 4.9217923151033407e+00 1.1070228698415027e+01 1 1 0
3916 1 1.2742153839066421e+00 5.5200570784795531e+00 1.2457077630304637e+01 1 0 0
2771 1 4.7837240303435085e+00 9.4316631258143726e+00 1.1148321955063732e+01 0 0 0
4034 1 5.6288472037339741e+00 6.9027508700462175e+00 1.2013562323202349e+01 0 0 0
1262 1 4.1672924627600411e-01 7.8376512060195873e+00 1.1492535243329133e+01 0 0 0
3292 1 4.2632898488130060e-02 9.2012493787758842e-01 1.1627529458011693e+01 0 0 0
19 1 2.2515044483820379e+00 9.7755607252453309e+00 1.2049773242210639e+01 0 0 0
550 1 2.2935054663429435e+00 3.1192346290586587e-01 1.5497820355068699e+01 0 0 0
645 1 3.0622443623276672e+00 8.0385315214406585e+00 2.5187985948070178e+01 1 1 0
2699 1 5.4942199435754766e+00 7.0763252655046589e+00 1.4696813490737361e+01 0 0 0
2613 1 3.5308234398731790e+00 5.1416662784230525e+00 1.5594886550203766e+01 1 0 -1
2560 1 5.6678722882006225e+00 4.7823023313172532e+00 2.2785165017415203e+01 1 1 0
1985 1 8.8906250081508953e-01 5.7341355124131219e+00 1.5169575619686682e+01 1 0 0
2728 1 2.6117860045278363e+00 7.8720458418969894e+00 2.2236320570271886e+01 1 0 0
3964 1 1.9447338596143000e+00 1.0243568773455494e+00 1.8484762195746349e+01 0 1 0
2000 1 3.9783870035306617e+00 2.8314251674945403e+00 1.9509841687912399e+01 0 0 0
2585 1 3.8247254663755754e+00 2.6967436531797944e+00 2.2357702735101107e+01 0 1 0
3348 1 3.5597121833365031e+00 5.4346837156162762e+00 1.8349773294631383e+01 0 0 1
723 1 7.3100499178375355e-01 6.0298043118385962e+00 1.8916800709576385e+01 1 1 0
724 1 5.4349043264591499e+00 7.3816458805557907e+00 2.1914371602099770e+01 0 0 0
3439 1 5.2312466881194295e+00 7.4177308764011816e+00 1.9292050803939695e+01 1 1 0
1390 1 7.8050134695358242e-01 5.8622906269106254e+00 2.1665223701478624e+01 1 0 0
3914 1 2.6881165987752309e-01 8.6240510484890809e+00 1.8241893819901577e+01 1 1 -1
2074 1 1.2364235214180257e+00 3.1634518397998757e+00 2.2591744899457055e+01 0 1 0
2112 1 1.4627816627785137e+00 3.0954704614104656e+00 2.5468074940075731e+01 0 1 0
3929 1 4.1631483581244826e+00 2.1357728314345428e+00 2.5444366015477897e+01 0 2 -1
3315 1 5.9366001108442896e+00 4.3460848433163930e+00 2.5668189091704960e+01 1 0 0
2763 1 1.3367459749033845e+00 5.8621701986867922e+00 2.5572621677040388e+01 0 1 0
2674 1 5.4962788964291605e+00 7.0734633132179772e+00 2.5773901455831897e+01 0 0 0
1968 1 4.0394180180113946e+00 2.4975243260831266e+00 1.4543002810109780e+01 1 0 0
2052 1 1.1231133691082817e-01 8.3703167591951626e+00 1.5329727324663430e+01 0 0 0
71 2 0.0000000000000000e+00 1.1366872099805333e+01 2.8194254448744411e+00 0 0 0
94 2 0.0000000000000000e+00 1.2787731112280996e+01 2.8194254448744411e+00 0 0 0
96 2 1.2305000000000001e+00 1.3498160618518829e+01 2.8194254448744411e+00 0 0 0
98 2 1.2305000000000001e+00 1.0656442593567498e+01 2.8194254448744411e+00 0 0 0
100 2 2.4610000000000003e+00 1.1366872099805333e+01 2.8194254448744411e+00 0 0 0
131 2 2.4610000000000003e+00 1.2787731112280996e+01 2.8194254448744411e+00 0 0 0
133 2 3.6915000000000004e+00 1.3498160618518829e+01 2.8194254448744411e+00 0 0 0
135 2 3.6914999999999996e+00 1.0656442593567499e+01 2.8194254448744411e+00 0 0 0
137 2 4.9220000000000006e+00 1.1366872099805333e+01 2.8194254448744411e+00 0 0 0
176 2 4.9220000000000006e+00 1.2787731112280996e+01 2.8194254448744411e+00 0 0 0
178 2 6.1524999999999990e+00 1.3498160618518829e+01 2.8194254448744411e+00 0 0 0
92 2 0.0000000000000000e+00 1.5629449137232333e+01 2.8194254448744411e+00 0 0 0
123 2 0.0000000000000000e+00 1.7050308149707998e+01 2.8194254448744411e+00 0 0 0
127 2 1.2305000000000001e+00 1.4919019630994494e+01 2.8194254448744411e+00 0 0 0
129 2 2.4610000000000003e+00 1.5629449137232328e+01 2.8194254448744411e+00 0 0 0
168 2 2.4610000000000003e+00 1.7050308149707998e+01 2.8194254448744411e+00 0 0 0
172 2 3.6915000000000004e+00 1.4919019630994494e+01 2.8194254448744411e+00 0 0 0
174 2 4.9220000000000006e+00 1.5629449137232333e+01 2.8194254448744411e+00 0 0 0
215 2 4.9220000000000006e+00 1.7050308149707998e+01 2.8194254448744411e+00 0 0 0
219 2 6.1524999999999990e+00 1.4919019630994494e+01 2.8194254448744411e+00 0 0 0
125 2 1.2305000000000001e+00 1.7760737655945832e+01 2.8194254448744411e+00 0 0 0
164 2 1.2305000000000001e+00 1.9181596668421495e+01 2.8194254448744411e+00 0 0 0
170 2 3.6914999999999996e+00 1.7760737655945832e+01 2.8194254448744411e+00 0 0 0
211 2 3.6914999999999996e+00 1.9181596668421495e+01 2.8194254448744411e+00 0 0 0
72 2 0.0000000000000000e+00 9.9460130873296642e+00 5.8617281421731473e+00 0 0 0
101 2 2.4610000000000003e+00 9.9460130873296642e+00 5.8617281421731473e+00 0 0 0
138 2 4.9220000000000006e+00 9.9460130873296642e+00 5.8617281421731473e+00 0 0 0
95 2 0.0000000000000000e+00 1.2787731112280996e+01 5.8617281421731473e+00 0 0 0
97 2 1.2305000000000001e+00 1.2077301606043163e+01 5.8617281421731473e+00 0 0 0
99 2 1.2305000000000001e+00 1.0656442593567498e+01 5.8617281421731473e+00 0 0 0
132 2 2.4610000000000003e+00 1.2787731112280996e+01 5.8617281421731473e+00 0 0 0
134 2 3.6914999999999996e+00 1.2077301606043163e+01 5.8617281421731473e+00 0 0 0
136 2 3.6914999999999996e+00 1.0656442593567499e+01 5.8617281421731473e+00 0 0 0
392 2 0.0000000000000000e+00 1.1366872099805333e+01 8.9040308394712433e+00 0 0 0
404 2 0.0000000000000000e+00 1.2787731112280996e+01 8.9040308394712433e+00 0 0 0
405 2 1.2305000000000001e+00 1.3498160618518829e+01 8.9040308394712433e+00 0 0 0
406 2 1.2305000000000001e+00 1.0656442593567498e+01 8.9040308394712433e+00 0 0 0
407 2 2.4610000000000003e+00 1.1366872099805333e+01 8.9040308394712433e+00 0 0 0
423 2 2.4610000000000003e+00 1.2787731112280996e+01 8.9040308394712433e+00 0 0 0
424 2 3.6915000000000004e+00 1.3498160618518829e+01 8.9040308394712433e+00 0 0 0
425 2 3.6914999999999996e+00 1.0656442593567499e+01 8.9040308394712433e+00 0 0 0
177 2 4.9220000000000006e+00 1.2787731112280996e+01 5.8617281421731473e+00 0 0 0
426 2 4.9220000000000006e+00 1.1366872099805333e+01 8.9040308394712433e+00 0 0 0
446 2 4.9220000000000006e+00 1.2787731112280996e+01 8.9040308394712433e+00 0 0 0
447 2 6.1524999999999990e+00 1.3498160618518829e+01 8.9040308394712433e+00 0 0 0
93 2 0.0000000000000000e+00 1.4208590124756663e+01 5.8617281421731473e+00 0 0 0
130 2 2.4610000000000003e+00 1.4208590124756663e+01 5.8617281421731473e+00 0 0 0
175 2 4.9220000000000006e+00 1.4208590124756663e+01 5.8617281421731473e+00 0 0 0
124 2 0.0000000000000000e+00 1.7050308149707998e+01 5.8617281421731473e+00 0 0 0
126 2 1.2305000000000001e+00 1.6339878643470165e+01 5.8617281421731473e+00 0 0 0
128 2 1.2305000000000001e+00 1.4919019630994494e+01 5.8617281421731473e+00 0 0 0
169 2 2.4610000000000003e+00 1.7050308149707998e+01 5.8617281421731473e+00 0 0 0
171 2 3.6915000000000004e+00 1.6339878643470165e+01 5.8617281421731473e+00 0 0 0
173 2 3.6915000000000004e+00 1.4919019630994494e+01 5.8617281421731473e+00 0 0 0
403 2 0.0000000000000000e+00 1.5629449137232333e+01 8.9040308394712433e+00 0 0 0
419 2 0.0000000000000000e+00 1.7050308149707998e+01 8.9040308394712433e+00 0 0 0
421 2 1.2305000000000001e+00 1.4919019630994494e+01 8.9040308394712433e+00 0 0 0
422 2 2.4610000000000003e+00 1.5629449137232328e+01 8.9040308394712433e+00 0 0 0
442 2 2.4610000000000003e+00 1.7050308149707998e+01 8.9040308394712433e+00 0 0 0
444 2 3.6915000000000004e+00 1.4919019630994494e+01 8.9040308394712433e+00 0 0 0
216 2 4.9220000000000006e+00 1.7050308149707998e+01 5.8617281421731473e+00 0 0 0
220 2 6.1524999999999990e+00 1.4919019630994494e+01 5.8617281421731473e+00 0 0 0
445 2 4.9220000000000006e+00 1.5629449137232333e+01 8.9040308394712433e+00 0 0 0
466 2 4.9220000000000006e+00 1.7050308149707998e+01 8.9040308394712433e+00 0 0 0
468 2 6.1524999999999990e+00 1.4919019630994494e+01 8.9040308394712433e+00 0 0 0
122 2 0.0000000000000000e+00 1.8471167162183658e+01 5.8617281421731473e+00 0 0 0
165 2 1.2305000000000001e+00 1.9181596668421495e+01 5.8617281421731473e+00 0 0 0
167 2 2.4610000000000003e+00 1.8471167162183658e+01 5.8617281421731473e+00 0 0 0
212 2 3.6914999999999996e+00 1.9181596668421495e+01 5.8617281421731473e+00 0 0 0
420 2 1.2305000000000001e+00 1.7760737655945832e+01 8.9040308394712433e+00 0 0 0
440 2 1.2305000000000001e+00 1.9181596668421495e+01 8.9040308394712433e+00 0 0 0
443 2 3.6914999999999996e+00 1.7760737655945832e+01 8.9040308394712433e+00 0 0 0
464 2 3.6914999999999996e+00 1.9181596668421495e+01 8.9040308394712433e+00 0 0 0
214 2 4.9220000000000006e+00 1.8471167162183658e+01 5.8617281421731473e+00 0 0 0
1288 1 1.2687326967278612e+00 1.2492517261861062e+01 1.1554630783821443e+01 1 0 0
2087 1 3.7425437474132397e+00 1.9426150390236593e+01 1.1954808330663454e+01 1 0 0
3328 1 3.0887445585071225e+00 1.4615939278023873e+01 1.1653079198912438e+01 1 0 -1
1318 1 2.3862446095218135e+00 1.7304821389569138e+01 1.1481818714401202e+01 2 0 0
3970 1 5.7717025079348021e+00 1.4428999563553059e+01 1.1080055617162072e+01 1 0 0
2686 1 6.1410895554010665e+00 1.1942072279095147e+01 1.2009638224872788e+01 0 0 0
1966 1 1.1302617148941905e+00 1.2745053427716709e+01 1.5621036707848329e+01 1 0 0
3258 1 5.4506446799943931e-01 1.5200045034320064e+01 2.2683664779010940e+01 1 1 0
561 1 5.4937881204048153e+00 1.4437407217267801e+01 1.5565107684006088e+01 0 0 -1
3954 1 2.8985806008583896e+00 1.4702110248861286e+01 1.4504683613457221e+01 0 1 -1
2024 1 1.9369714605409949e+00 1.7103407929801943e+01 1.5192272290082048e+01 1 0 0
27 1 3.6922278514815887e+00 1.9137797634627923e+01 1.4679809046428035e+01 1 -1 0
3377 1 2.0508756061510938e+00 1.7085486779821025e+01 1.8032256961054472e+01 0 0 0
3293 1 1.0741836522856438e+00 1.3031677262187873e+01 1.8181651755151151e+01 1 0 0
1954 1 5.6620667305859440e+00 1.4315423348203055e+01 1.8376276657143862e+01 0 0 0
2041 1 1.9296309637755542e+00 1.0547084089017764e+01 2.2065726659374889e+01 1 1 -1
2624 1 3.0887216086447769e+00 1.4751693865892003e+01 1.9171058748349033e+01 1 0 0
663 1 4.0533760117096342e+00 1.2277617991051709e+01 2.3281154037805024e+01 0 0 0
2061 1 1.9971994972997436e+00 1.0394809658080421e+01 1.9323552135427867e+01 0 0 -1
1350 1 4.1937958156136679e+00 1.8930054452335540e+01 2.5847534930130749e+01 0 0 -1
551 1 3.6532339571127177e+00 1.8827119771377404e+01 2.1706699638219618e+01 1 0 0
2082 1 3.0331202626679152e+00 1.4736122271457820e+01 2.1856338508194128e+01 1 1 -1
3234 1 3.7624374722297262e+00 1.9095690637771717e+01 1.8857120085115810e+01 1 -1 0
2703 1 4.9224157232227439e+00 1.6470090759733374e+01 2.5248747438811456e+01 0 0 -1
3391 1 1.9690559176674396e-01 1.5162741715278059e+01 2.5484465952347072e+01 0 1 0
2671 1 2.5196763189869924e+00 1.0988304499392552e+01 2.5353779546221482e+01 1 1 -1
699 1 3.0884092618338288e+00 1.4425315397299402e+01 2.5353178792963703e+01 0 0 0
3935 1 1.1675870847675711e+00 1.9322779011613566e+01 2.2857467771091471e+01 1 1 0
1981 1 4.9447194330972239e+00 1.6725773928880479e+01 2.2723089697042454e+01 0 -1 -1
2640 1 5.7411740543030376e+00 1.2046269731266667e+01 2.5685798747268528e+01 1 0 -1
2607 1 1.4300970749374007e+00 1.9388920223070699e+01 2.5613344979527092e+01 0 0 0
1410 1 1.9294479647617566e+00 1.0259015107287716e+01 1.4796616406387866e+01 0 0 0
3973 1 4.2664182067963221e+00 9.9349371370789292e+00 1.8286111348450959e+01 1 0 -1
3389 1 4.6923028179524815e+00 9.8756353096752854e+00 1.5581170080181538e+01 0 0 0
690 1 6.0634028627499497e+00 1.2006753515838426e+01 1.4799303823951620e+01 0 2 0
121 2 0.0000000000000000e+00 1.9892026174659328e+01 2.8194254448744411e+00 0 0 0
166 2 2.4610000000000003e+00 1.9892026174659328e+01 2.8194254448744411e+00 0 0 0
213 2 4.9220000000000006e+00 1.9892026174659328e+01 2.8194254448744411e+00 0 0 0
158 2 0.0000000000000000e+00 2.4154603212086325e+01 2.8194254448744411e+00 0 0 0
160 2 0.0000000000000000e+00 2.1312885187134999e+01 2.8194254448744411e+00 0 0 0
162 2 1.2304999999999993e+00 2.2023314693372832e+01 2.8194254448744411e+00 0 0 0
203 2 1.2304999999999993e+00 2.3444173705848499e+01 2.8194254448744411e+00 0 0 0
205 2 2.4610000000000003e+00 2.4154603212086325e+01 2.8194254448744411e+00 0 0 0
207 2 2.4610000000000003e+00 2.1312885187134995e+01 2.8194254448744411e+00 0 0 0
209 2 3.6914999999999996e+00 2.2023314693372832e+01 2.8194254448744411e+00 0 0 0
250 2 3.6915000000000004e+00 2.3444173705848499e+01 2.8194254448744411e+00 0 0 0
252 2 4.9220000000000006e+00 2.4154603212086325e+01 2.8194254448744411e+00 0 0 0
254 2 4.9220000000000006e+00 2.1312885187134995e+01 2.8194254448744411e+00 0 0 0
256 2 6.1524999999999990e+00 2.2023314693372832e+01 2.8194254448744411e+00 0 0 0
774 2 0.0000000000000000e+00 2.5575462224561992e+01 2.8194254448744411e+00 0 0 0
776 2 1.2305000000000001e+00 2.6285891730799833e+01 2.8194254448744411e+00 0 0 0
784 2 1.2305000000000010e+00 2.7706750743275496e+01 2.8194254448744411e+00 0 0 0
788 2 2.4610000000000003e+00 2.5575462224561992e+01 2.8194254448744411e+00 0 0 0
790 2 3.6914999999999991e+00 2.6285891730799833e+01 2.8194254448744411e+00 0 0 0
806 2 3.6914999999999996e+00 2.7706750743275496e+01 2.8194254448744411e+00 0 0 0
810 2 4.9220000000000006e+00 2.5575462224561992e+01 2.8194254448744411e+00 0 0 0
836 2 6.1524999999999990e+00 2.7706750743275496e+01 2.8194254448744411e+00 0 0 0
772 2 0.0000000000000000e+00 2.8417180249513333e+01 2.8194254448744411e+00 0 0 0
786 2 2.4610000000000003e+00 2.8417180249513326e+01 2.8194254448744411e+00 0 0 0
808 2 4.9220000000000006e+00 2.8417180249513336e+01 2.8194254448744411e+00 0 0 0
163 2 1.2305000000000001e+00 2.0602455680897162e+01 5.8617281421731473e+00 0 0 0
210 2 3.6915000000000004e+00 2.0602455680897162e+01 5.8617281421731473e+00 0 0 0
418 2 0.0000000000000000e+00 1.9892026174659328e+01 8.9040308394712433e+00 0 0 0
441 2 2.4610000000000003e+00 1.9892026174659328e+01 8.9040308394712433e+00 0 0 0
465 2 4.9220000000000006e+00 1.9892026174659328e+01 8.9040308394712433e+00 0 0 0
159 2 0.0000000000000000e+00 2.2733744199610655e+01 5.8617281421731473e+00 0 0 0
161 2 0.0000000000000000e+00 2.1312885187134999e+01 5.8617281421731473e+00 0 0 0
204 2 1.2304999999999993e+00 2.3444173705848499e+01 5.8617281421731473e+00 0 0 0
206 2 2.4610000000000003e+00 2.2733744199610655e+01 5.8617281421731473e+00 0 0 0
208 2 2.4610000000000003e+00 2.1312885187134995e+01 5.8617281421731473e+00 0 0 0
251 2 3.6915000000000004e+00 2.3444173705848499e+01 5.8617281421731473e+00 0 0 0
437 2 0.0000000000000000e+00 2.4154603212086325e+01 8.9040308394712433e+00 0 0 0
438 2 0.0000000000000000e+00 2.1312885187134999e+01 8.9040308394712433e+00 0 0 0
439 2 1.2304999999999993e+00 2.2023314693372832e+01 8.9040308394712433e+00 0 0 0
460 2 1.2304999999999993e+00 2.3444173705848499e+01 8.9040308394712433e+00 0 0 0
461 2 2.4610000000000003e+00 2.4154603212086325e+01 8.9040308394712433e+00 0 0 0
462 2 2.4610000000000003e+00 2.1312885187134995e+01 8.9040308394712433e+00 0 0 0
463 2 3.6914999999999996e+00 2.2023314693372832e+01 8.9040308394712433e+00 0 0 0
484 2 3.6915000000000004e+00 2.3444173705848499e+01 8.9040308394712433e+00 0 0 0
253 2 4.9220000000000006e+00 2.2733744199610655e+01 5.8617281421731473e+00 0 0 0
255 2 4.9220000000000006e+00 2.1312885187134995e+01 5.8617281421731473e+00 0 0 0
485 2 4.9220000000000006e+00 2.4154603212086325e+01 8.9040308394712433e+00 0 0 0
486 2 4.9220000000000006e+00 2.1312885187134995e+01 8.9040308394712433e+00 0 0 0
487 2 6.1524999999999990e+00 2.2023314693372832e+01 8.9040308394712433e+00 0 0 0
773 2 0.0000000000000000e+00 2.6996321237037659e+01 5.8617281421731473e+00 0 0 0
775 2 0.0000000000000000e+00 2.5575462224561992e+01 5.8617281421731473e+00 0 0 0
777 2 1.2305000000000001e+00 2.4865032718324155e+01 5.8617281421731473e+00 0 0 0
785 2 1.2305000000000010e+00 2.7706750743275496e+01 5.8617281421731473e+00 0 0 0
787 2 2.4610000000000003e+00 2.6996321237037659e+01 5.8617281421731473e+00 0 0 0
789 2 2.4610000000000003e+00 2.5575462224561992e+01 5.8617281421731473e+00 0 0 0
791 2 3.6914999999999996e+00 2.4865032718324166e+01 5.8617281421731473e+00 0 0 0
807 2 3.6914999999999996e+00 2.7706750743275496e+01 5.8617281421731473e+00 0 0 0
1088 2 0.0000000000000000e+00 2.5575462224561992e+01 8.9040308394712433e+00 0 0 0
1089 2 1.2305000000000001e+00 2.6285891730799833e+01 8.9040308394712433e+00 0 0 0
1093 2 1.2305000000000010e+00 2.7706750743275496e+01 8.9040308394712433e+00 0 0 0
1095 2 2.4610000000000003e+00 2.5575462224561992e+01 8.9040308394712433e+00 0 0 0
1096 2 3.6914999999999991e+00 2.6285891730799833e+01 8.9040308394712433e+00 0 0 0
1104 2 3.6914999999999996e+00 2.7706750743275496e+01 8.9040308394712433e+00 0 0 0
809 2 4.9220000000000006e+00 2.6996321237037659e+01 5.8617281421731473e+00 0 0 0
811 2 4.9220000000000006e+00 2.5575462224561992e+01 5.8617281421731473e+00 0 0 0
813 2 6.1524999999999990e+00 2.4865032718324155e+01 5.8617281421731473e+00 0 0 0
837 2 6.1524999999999990e+00 2.7706750743275496e+01 5.8617281421731473e+00 0 0 0
1106 2 4.9220000000000006e+00 2.5575462224561992e+01 8.9040308394712433e+00 0 0 0
1119 2 6.1524999999999990e+00 2.7706750743275496e+01 8.9040308394712433e+00 0 0 0
783 2 1.2304999999999993e+00 2.9127609755751163e+01 5.8617281421731473e+00 0 0 0
805 2 3.6914999999999991e+00 2.9127609755751152e+01 5.8617281421731473e+00 0 0 0
1087 2 0.0000000000000000e+00 2.8417180249513333e+01 8.9040308394712433e+00 0 0 0
1094 2 2.4610000000000003e+00 2.8417180249513326e+01 8.9040308394712433e+00 0 0 0
835 2 6.1524999999999981e+00 2.9127609755751152e+01 5.8617281421731473e+00 0 0 0
1105 2 4.9220000000000006e+00 2.8417180249513336e+01 8.9040308394712433e+00 0 0 0
3316 1 2.7111466848881181e+00 2.1844362245050217e+01 1.1381328269478974e+01 1 0 0
656 1 3.9336664034973312e+00 2.3994949992939269e+01 1.2034000213929644e+01 -1 0 0
3237 1 2.7192525477285101e+00 2.6506497835525774e+01 1.1341185887710457e+01 0 1 0
571 1 4.2988644390677555e+00 2.8879497905112085e+01 1.1642553620135018e+01 0 0 0
3999 1 2.8672917839187412e-01 2.2277658936871862e+01 1.1950544217478898e+01 0 0 0
2689 1 3.0133255785626840e+00 2.1731574684159519e+01 1.5436888846079093e+01 1 1 -1
2059 1 4.7580844689566124e+00 2.3704788277398922e+01 1.4706426449798029e+01 1 0 -1
3303 1 3.0454545943784708e+00 2.1642536975003399e+01 1.7976283037895655e+01 0 0 -1
3229 1 3.2514066537339357e+00 2.8528053959877038e+01 2.3096795307634935e+01 0 1 0
2693 1 3.9067536750550191e+00 2.6061259080470606e+01 1.5623434943408945e+01 0 0 0
4047 1 2.4832912701756489e+00 2.4110829401369831e+01 2.4845682654153201e+01 0 0 0
3342 1 1.8751664202289275e-01 2.2441879063887367e+01 1.4765014161879829e+01 1 0 0
707 1 5.5317493194217029e+00 2.8106850194795808e+01 1.4355347828053395e+01 1 0 -1
3407 1 3.8004155774415747e+00 2.8511474658805184e+01 2.5579077536329166e+01 1 0 -1
2632 1 5.2350044195941736e+00 2.3486389707267225e+01 2.2074201356641083e+01 0 -1 -1
750 1 4.8269443494991782e+00 2.3507509166313596e+01 1.9231086001966496e+01 0 0 -1
3403 1 1.5044407767512311e-01 2.1899519854511247e+01 2.1747434838959578e+01 1 0 -1
3908 1 6.6273388567740665e-01 2.1693291605983955e+01 1.8995811228423918e+01 0 0 0
3372 1 5.8460274458931201e+00 2.1000434338394943e+01 2.5266687390082168e+01 1 0 -1
2685 1 5.7043910253794312e+00 2.8102534053038827e+01 1.8528416110182015e+01 0 -1 0
3949 1 5.3986141271107355e+00 2.8225336703925244e+01 2.1412158262912087e+01 0 0 0
2016 1 3.8112558610683580e+00 2.6082003876929789e+01 1.8492366519289959e+01 0 -1 0
1302 1 1.0430358848539620e+00 2.6702810173028205e+01 1.9082840467224919e+01 1 0 -1
1258 1 1.1297287986884161e+00 2.6851802660722651e+01 2.1712434803767017e+01 0 0 1
3895 1 5.7653510342256862e+00 2.0783236384031699e+01 2.2512840697610855e+01 1 0 1
2628 1 1.5767125776775244e+00 2.6496563159738290e+01 1.4187068026378396e+01 1 0 -1
1443 1 5.2328145598435407e+00 2.3818574453233076e+01 2.4969537504882922e+01 1 0 0
700 1 2.2298860321371445e+00 2.3919231549425813e+01 2.2287999618637883e+01 0 0 0
710 1 7.4898613112966217e-01 2.1996128247999835e+01 2.5872987986886230e+01 1 0 0
737 1 4.9956139277115713e-01 2.9125865608435255e+01 1.5129480969021239e+01 0 0 1
1931 1 1.6857354116556702e+00 2.6486281816316204e+01 2.5689218624235487e+01 0 0 0
2586 1 8.3908892076423980e-01 2.9307723758829113e+01 1.7856273085753209e+01 0 1 0
780 2 0.0000000000000000e+00 2.9838039261988989e+01 2.8194254448744411e+00 0 0 0
782 2 1.2304999999999993e+00 3.0548468768226829e+01 2.8194254448744411e+00 0 0 0
802 2 2.4610000000000003e+00 2.9838039261988989e+01 2.8194254448744411e+00 0 0 0
804 2 3.6915000000000004e+00 3.0548468768226829e+01 2.8194254448744411e+00 0 0 0
832 2 4.9220000000000006e+00 2.9838039261988989e+01 2.8194254448744411e+00 0 0 0
778 2 0.0000000000000000e+00 3.2679757286940330e+01 2.8194254448744411e+00 0 0 0
794 2 0.0000000000000000e+00 3.4100616299415996e+01 2.8194254448744411e+00 0 0 0
798 2 1.2304999999999993e+00 3.1969327780702493e+01 2.8194254448744411e+00 0 0 0
800 2 2.4610000000000003e+00 3.2679757286940337e+01 2.8194254448744411e+00 0 0 0
824 2 2.4609999999999985e+00 3.4100616299415996e+01 2.8194254448744411e+00 0 0 0
828 2 3.6914999999999996e+00 3.1969327780702493e+01 2.8194254448744411e+00 0 0 0
830 2 4.9220000000000015e+00 3.2679757286940337e+01 2.8194254448744411e+00 0 0 0
862 2 4.9220000000000006e+00 3.4100616299415996e+01 2.8194254448744411e+00 0 0 0
796 2 1.2305000000000010e+00 3.4811045805653833e+01 2.8194254448744411e+00 0 0 0
826 2 3.6915000000000018e+00 3.4811045805653833e+01 2.8194254448744411e+00 0 0 0
792 2 0.0000000000000000e+00 3.6942334324367337e+01 2.8194254448744411e+00 0 0 0
816 2 0.0000000000000000e+00 3.8363193336842990e+01 2.8194254448744411e+00 0 0 0
820 2 1.2304999999999993e+00 3.6231904818129486e+01 2.8194254448744411e+00 0 0 0
822 2 2.4610000000000021e+00 3.6942334324367337e+01 2.8194254448744411e+00 0 0 0
854 2 2.4610000000000003e+00 3.8363193336842990e+01 2.8194254448744411e+00 0 0 0
858 2 3.6914999999999996e+00 3.6231904818129486e+01 2.8194254448744411e+00 0 0 0
860 2 4.9220000000000006e+00 3.6942334324367316e+01 2.8194254448744411e+00 0 0 0
899 2 4.9220000000000006e+00 3.8363193336842990e+01 2.8194254448744411e+00 0 0 0
818 2 1.2305000000000010e+00 3.9073622843080841e+01 2.8194254448744411e+00 0 0 0
856 2 3.6915000000000018e+00 3.9073622843080820e+01 2.8194254448744411e+00 0 0 0
779 2 0.0000000000000000e+00 3.1258898274464656e+01 5.8617281421731473e+00 0 0 0
781 2 0.0000000000000000e+00 2.9838039261988989e+01 5.8617281421731473e+00 0 0 0
801 2 2.4609999999999985e+00 3.1258898274464656e+01 5.8617281421731473e+00 0 0 0
803 2 2.4610000000000003e+00 2.9838039261988989e+01 5.8617281421731473e+00 0 0 0
1091 2 0.0000000000000000e+00 2.9838039261988989e+01 8.9040308394712433e+00 0 0 0
1092 2 1.2304999999999993e+00 3.0548468768226829e+01 8.9040308394712433e+00 0 0 0
1102 2 2.4610000000000003e+00 2.9838039261988989e+01 8.9040308394712433e+00 0 0 0
1103 2 3.6915000000000004e+00 3.0548468768226829e+01 8.9040308394712433e+00 0 0 0
831 2 4.9219999999999979e+00 3.1258898274464656e+01 5.8617281421731473e+00 0 0 0
833 2 4.9220000000000006e+00 2.9838039261988989e+01 5.8617281421731473e+00 0 0 0
1117 2 4.9220000000000006e+00 2.9838039261988989e+01 8.9040308394712433e+00 0 0 0
795 2 0.0000000000000000e+00 3.4100616299415996e+01 5.8617281421731473e+00 0 0 0
797 2 1.2304999999999993e+00 3.3390186793178160e+01 5.8617281421731473e+00 0 0 0
799 2 1.2304999999999993e+00 3.1969327780702493e+01 5.8617281421731473e+00 0 0 0
825 2 2.4609999999999985e+00 3.4100616299415996e+01 5.8617281421731473e+00 0 0 0
827 2 3.6914999999999978e+00 3.3390186793178160e+01 5.8617281421731473e+00 0 0 0
829 2 3.6914999999999996e+00 3.1969327780702493e+01 5.8617281421731473e+00 0 0 0
1090 2 0.0000000000000000e+00 3.2679757286940330e+01 8.9040308394712433e+00 0 0 0
1098 2 0.0000000000000000e+00 3.4100616299415996e+01 8.9040308394712433e+00 0 0 0