LAMMPS data file via write_data, version 16 Mar 2018, timestep = 8000000

4055 atoms
2 atom types

0.0000000000000000e+00 4.9219999999999999e+01 xlo xhi
0.0000000000000000e+00 4.9019635930410494e+01 ylo yhi
1.1825477581213875e+00 2.6757452241880447e+01 zlo zhi

Masses

1 18.015
2 12.01

Atoms # atomic

53 2 0.0000000000000000e+00 2.8417180249513345e+00 2.7943961851141212e+00 0 0 0
55 2 0.0000000000000000e+00 0.0000000000000000e+00 2.7943961851141212e+00 0 0 0
57 2 1.2305000000000001e+00 7.1042950623783474e-01 2.7943961851141212e+00 0 0 0
64 2 1.2305000000000001e+00 2.1312885187134998e+00 2.7943961851141212e+00 0 0 0
66 2 2.4610000000000003e+00 2.8417180249513345e+00 2.7943961851141212e+00 0 0 0
68 2 2.4610000000000003e+00 0.0000000000000000e+00 2.7943961851141212e+00 0 0 0
70 2 3.6915000000000004e+00 7.1042950623783474e-01 2.7943961851141212e+00 0 0 0
85 2 3.6914999999999996e+00 2.1312885187134998e+00 2.7943961851141212e+00 0 0 0
87 2 4.9220000000000006e+00 2.8417180249513332e+00 2.7943961851141212e+00 0 0 0
89 2 4.9220000000000006e+00 0.0000000000000000e+00 2.7943961851141212e+00 0 0 0
60 2 0.0000000000000000e+00 4.2625770374269996e+00 2.7943961851141212e+00 0 0 0
81 2 2.4610000000000003e+00 4.2625770374269996e+00 2.7943961851141212e+00 0 0 0
110 2 4.9220000000000006e+00 4.2625770374269978e+00 2.7943961851141212e+00 0 0 0
62 2 1.2305000000000001e+00 4.9730065436648339e+00 2.7943961851141212e+00 0 0 0
77 2 1.2305000000000001e+00 6.3938655561404980e+00 2.7943961851141212e+00 0 0 0
83 2 3.6914999999999996e+00 4.9730065436648339e+00 2.7943961851141212e+00 0 0 0
106 2 3.6914999999999996e+00 6.3938655561404980e+00 2.7943961851141212e+00 0 0 0
58 2 0.0000000000000000e+00 7.1042950623783341e+00 2.7943961851141212e+00 0 0 0
73 2 0.0000000000000000e+00 8.5251540748539991e+00 2.7943961851141212e+00 0 0 0
75 2 1.2305000000000001e+00 9.2355835810918343e+00 2.7943961851141212e+00 0 0 0
79 2 2.4610000000000003e+00 7.1042950623783341e+00 2.7943961851141212e+00 0 0 0
102 2 2.4610000000000003e+00 8.5251540748539991e+00 2.7943961851141212e+00 0 0 0
104 2 3.6915000000000004e+00 9.2355835810918343e+00 2.7943961851141212e+00 0 0 0
108 2 4.9220000000000006e+00 7.1042950623783341e+00 2.7943961851141212e+00 0 0 0
139 2 4.9220000000000006e+00 8.5251540748539991e+00 2.7943961851141212e+00 0 0 0
54 2 0.0000000000000000e+00 1.4208590124756650e+00 5.8435278206077257e+00 0 0 0
56 2 0.0000000000000000e+00 0.0000000000000000e+00 5.8435278206077257e+00 0 0 0
65 2 1.2305000000000001e+00 2.1312885187134998e+00 5.8435278206077257e+00 0 0 0
67 2 2.4610000000000003e+00 1.4208590124756650e+00 5.8435278206077257e+00 0 0 0
69 2 2.4610000000000003e+00 0.0000000000000000e+00 5.8435278206077257e+00 0 0 0
86 2 3.6914999999999996e+00 2.1312885187134998e+00 5.8435278206077257e+00 0 0 0
382 2 0.0000000000000000e+00 2.8417180249513345e+00 8.8926594561081380e+00 0 0 0
383 2 0.0000000000000000e+00 0.0000000000000000e+00 8.8926594561081380e+00 0 0 0
384 2 1.2305000000000001e+00 7.1042950623783474e-01 8.8926594561081380e+00 0 0 0
388 2 1.2305000000000001e+00 2.1312885187134998e+00 8.8926594561081380e+00 0 0 0
389 2 2.4610000000000003e+00 2.8417180249513345e+00 8.8926594561081380e+00 0 0 0
390 2 2.4610000000000003e+00 0.0000000000000000e+00 8.8926594561081380e+00 0 0 0
391 2 3.6915000000000004e+00 7.1042950623783474e-01 8.8926594561081380e+00 0 0 0
399 2 3.6914999999999996e+00 2.1312885187134998e+00 8.8926594561081380e+00 0 0 0
88 2 4.9220000000000006e+00 1.4208590124756650e+00 5.8435278206077257e+00 0 0 0
90 2 4.9220000000000006e+00 0.0000000000000000e+00 5.8435278206077257e+00 0 0 0
400 2 4.9220000000000006e+00 2.8417180249513332e+00 8.8926594561081380e+00 0 0 0
401 2 4.9220000000000006e+00 0.0000000000000000e+00 8.8926594561081380e+00 0 0 0
61 2 0.0000000000000000e+00 4.2625770374269996e+00 5.8435278206077257e+00 0 0 0
63 2 1.2305000000000001e+00 3.5521475311891644e+00 5.8435278206077257e+00 0 0 0
82 2 2.4610000000000003e+00 4.2625770374269996e+00 5.8435278206077257e+00 0 0 0
84 2 3.6914999999999996e+00 3.5521475311891644e+00 5.8435278206077257e+00 0 0 0
386 2 0.0000000000000000e+00 4.2625770374269996e+00 8.8926594561081380e+00 0 0 0
397 2 2.4610000000000003e+00 4.2625770374269996e+00 8.8926594561081380e+00 0 0 0
111 2 4.9220000000000006e+00 4.2625770374269978e+00 5.8435278206077257e+00 0 0 0
412 2 4.9220000000000006e+00 4.2625770374269978e+00 8.8926594561081380e+00 0 0 0
59 2 0.0000000000000000e+00 5.6834360499026637e+00 5.8435278206077257e+00 0 0 0
78 2 1.2305000000000001e+00 6.3938655561404980e+00 5.8435278206077257e+00 0 0 0
80 2 2.4610000000000003e+00 5.6834360499026637e+00 5.8435278206077257e+00 0 0 0
107 2 3.6914999999999996e+00 6.3938655561404980e+00 5.8435278206077257e+00 0 0 0
387 2 1.2305000000000001e+00 4.9730065436648339e+00 8.8926594561081380e+00 0 0 0
395 2 1.2305000000000001e+00 6.3938655561404980e+00 8.8926594561081380e+00 0 0 0
398 2 3.6914999999999996e+00 4.9730065436648339e+00 8.8926594561081380e+00 0 0 0
410 2 3.6914999999999996e+00 6.3938655561404980e+00 8.8926594561081380e+00 0 0 0
109 2 4.9220000000000006e+00 5.6834360499026637e+00 5.8435278206077257e+00 0 0 0
74 2 0.0000000000000000e+00 8.5251540748539991e+00 5.8435278206077257e+00 0 0 0
76 2 1.2305000000000001e+00 7.8147245686161639e+00 5.8435278206077257e+00 0 0 0
103 2 2.4610000000000003e+00 8.5251540748539991e+00 5.8435278206077257e+00 0 0 0
105 2 3.6914999999999996e+00 7.8147245686161639e+00 5.8435278206077257e+00 0 0 0
385 2 0.0000000000000000e+00 7.1042950623783341e+00 8.8926594561081380e+00 0 0 0
393 2 0.0000000000000000e+00 8.5251540748539991e+00 8.8926594561081380e+00 0 0 0
394 2 1.2305000000000001e+00 9.2355835810918343e+00 8.8926594561081380e+00 0 0 0
396 2 2.4610000000000003e+00 7.1042950623783341e+00 8.8926594561081380e+00 0 0 0
408 2 2.4610000000000003e+00 8.5251540748539991e+00 8.8926594561081380e+00 0 0 0
409 2 3.6915000000000004e+00 9.2355835810918343e+00 8.8926594561081380e+00 0 0 0
140 2 4.9220000000000006e+00 8.5251540748539991e+00 5.8435278206077257e+00 0 0 0
411 2 4.9220000000000006e+00 7.1042950623783341e+00 8.8926594561081380e+00 0 0 0
427 2 4.9220000000000006e+00 8.5251540748539991e+00 8.8926594561081380e+00 0 0 0
1400 1 2.1845147288479154e+00 1.9981201305375846e+00 1.1200427239107034e+01 1 1 0
2053 1 3.9036657308363050e+00 4.3120651182032841e+00 1.1519159824848124e+01 0 0 -2
1932 1 2.7985019646673575e+00 6.8822406440017980e+00 1.1497802481253457e+01 0 2 -1
547 1 4.6548537372988559e+00 8.9121869669297666e+00 1.2033364602334910e+01 1 1 0
550 1 2.5160570584539403e+00 2.0804349185084510e+00 1.5693006933648110e+01 0 0 0
3453 1 5.1802508268514984e+00 8.8625738972556416e+00 2.5603649707021177e+01 2 1 0
3964 1 2.4301451430764232e+00 2.1250731090078037e+00 1.8588085528182503e+01 0 1 0
2613 1 3.3727110138500982e+00 6.4650794782609466e+00 1.5431668862336110e+01 1 0 -1
3348 1 3.2906327642066149e+00 6.8515390607218984e+00 1.8143520341357956e+01 0 0 1
2587 1 5.7124380615790677e+00 6.2085889217502617e+00 2.5216648938853016e+01 0 1 -1
2699 1 4.8004789942704660e+00 8.7809833892125386e+00 1.4726146196643887e+01 0 0 0
1968 1 4.2561760643141033e+00 3.9966315207374281e+00 1.4463134866160825e+01 1 0 0
3894 1 5.4158157569521315e-01 6.9377458469516027e+00 2.5848890861098745e+01 1 0 0
2000 1 3.9256540658056007e+00 4.3151347303428356e+00 1.8899865017281567e+01 0 0 0
2585 1 4.1323452363329070e+00 4.2152512655409105e+00 2.1641284473743639e+01 0 1 0
3439 1 5.1696310746462180e+00 8.7276588462345135e+00 1.9006760501317910e+01 1 1 0
723 1 7.1387030113020078e-01 6.8999865446718758e+00 1.8969915973111362e+01 1 1 0
1390 1 7.1598373773397506e-01 6.7866177420852472e+00 2.1604275873249762e+01 1 0 0
724 1 4.6453714945114672e+00 8.5700903251217291e+00 2.1760783785677081e+01 0 0 0
647 1 4.7191016375226145e+00 1.5071571942467730e+00 2.2443914684356937e+01 0 1 0
2074 1 1.5163722316738300e+00 4.3798937754529668e+00 2.2696170671633947e+01 0 1 0
2667 1 1.3753837761916199e+00 4.4286338695800893e+00 2.5127457655504966e+01 0 1 -1
1963 1 4.0444457959888966e+00 4.1227680901718564e+00 2.5743177253078816e+01 1 0 -1
680 1 5.0025155027115593e+00 1.4932237916723865e+00 2.5252435733343848e+01 1 0 0
759 1 2.2813551471051636e+00 9.1517673200109542e+00 2.5839081216976776e+01 0 0 0
2728 1 2.1559138634424135e+00 8.9760736681256716e+00 2.3094629171580088e+01 1 0 0
1985 1 6.2434390384725102e-01 7.0830161427856924e+00 1.4510270947096007e+01 1 0 0
2560 1 5.8296045862858277e+00 6.0428415806773783e+00 2.2687959008948670e+01 1 1 0
71 2 0.0000000000000000e+00 1.1366872099805333e+01 2.7943961851141212e+00 0 0 0
94 2 0.0000000000000000e+00 1.2787731112280996e+01 2.7943961851141212e+00 0 0 0
96 2 1.2305000000000001e+00 1.3498160618518829e+01 2.7943961851141212e+00 0 0 0
98 2 1.2305000000000001e+00 1.0656442593567498e+01 2.7943961851141212e+00 0 0 0
100 2 2.4610000000000003e+00 1.1366872099805333e+01 2.7943961851141212e+00 0 0 0
131 2 2.4610000000000003e+00 1.2787731112280996e+01 2.7943961851141212e+00 0 0 0
133 2 3.6915000000000004e+00 1.3498160618518829e+01 2.7943961851141212e+00 0 0 0
135 2 3.6914999999999996e+00 1.0656442593567499e+01 2.7943961851141212e+00 0 0 0
137 2 4.9220000000000006e+00 1.1366872099805333e+01 2.7943961851141212e+00 0 0 0
176 2 4.9220000000000006e+00 1.2787731112280996e+01 2.7943961851141212e+00 0 0 0
178 2 6.1524999999999990e+00 1.3498160618518829e+01 2.7943961851141212e+00 0 0 0
92 2 0.0000000000000000e+00 1.5629449137232333e+01 2.7943961851141212e+00 0 0 0
123 2 0.0000000000000000e+00 1.7050308149707998e+01 2.7943961851141212e+00 0 0 0
127 2 1.2305000000000001e+00 1.4919019630994494e+01 2.7943961851141212e+00 0 0 0
129 2 2.4610000000000003e+00 1.5629449137232328e+01 2.7943961851141212e+00 0 0 0
168 2 2.4610000000000003e+00 1.7050308149707998e+01 2.7943961851141212e+00 0 0 0
172 2 3.6915000000000004e+00 1.4919019630994494e+01 2.7943961851141212e+00 0 0 0
174 2 4.9220000000000006e+00 1.5629449137232333e+01 2.7943961851141212e+00 0 0 0
215 2 4.9220000000000006e+00 1.7050308149707998e+01 2.7943961851141212e+00 0 0 0
219 2 6.1524999999999990e+00 1.4919019630994494e+01 2.7943961851141212e+00 0 0 0
125 2 1.2305000000000001e+00 1.7760737655945832e+01 2.7943961851141212e+00 0 0 0
164 2 1.2305000000000001e+00 1.9181596668421495e+01 2.7943961851141212e+00 0 0 0
170 2 3.6914999999999996e+00 1.7760737655945832e+01 2.7943961851141212e+00 0 0 0
211 2 3.6914999999999996e+00 1.9181596668421495e+01 2.7943961851141212e+00 0 0 0
72 2 0.0000000000000000e+00 9.9460130873296642e+00 5.8435278206077257e+00 0 0 0
101 2 2.4610000000000003e+00 9.9460130873296642e+00 5.8435278206077257e+00 0 0 0
138 2 4.9220000000000006e+00 9.9460130873296642e+00 5.8435278206077257e+00 0 0 0
95 2 0.0000000000000000e+00 1.2787731112280996e+01 5.8435278206077257e+00 0 0 0
97 2 1.2305000000000001e+00 1.2077301606043163e+01 5.8435278206077257e+00 0 0 0
99 2 1.2305000000000001e+00 1.0656442593567498e+01 5.8435278206077257e+00 0 0 0
132 2 2.4610000000000003e+00 1.2787731112280996e+01 5.8435278206077257e+00 0 0 0
134 2 3.6914999999999996e+00 1.2077301606043163e+01 5.8435278206077257e+00 0 0 0
136 2 3.6914999999999996e+00 1.0656442593567499e+01 5.8435278206077257e+00 0 0 0
392 2 0.0000000000000000e+00 1.1366872099805333e+01 8.8926594561081380e+00 0 0 0
404 2 0.0000000000000000e+00 1.2787731112280996e+01 8.8926594561081380e+00 0 0 0
405 2 1.2305000000000001e+00 1.3498160618518829e+01 8.8926594561081380e+00 0 0 0
406 2 1.2305000000000001e+00 1.0656442593567498e+01 8.8926594561081380e+00 0 0 0
407 2 2.4610000000000003e+00 1.1366872099805333e+01 8.8926594561081380e+00 0 0 0
423 2 2.4610000000000003e+00 1.2787731112280996e+01 8.8926594561081380e+00 0 0 0
424 2 3.6915000000000004e+00 1.3498160618518829e+01 8.8926594561081380e+00 0 0 0
425 2 3.6914999999999996e+00 1.0656442593567499e+01 8.8926594561081380e+00 0 0 0
177 2 4.9220000000000006e+00 1.2787731112280996e+01 5.8435278206077257e+00 0 0 0
426 2 4.9220000000000006e+00 1.1366872099805333e+01 8.8926594561081380e+00 0 0 0
446 2 4.9220000000000006e+00 1.2787731112280996e+01 8.8926594561081380e+00 0 0 0
447 2 6.1524999999999990e+00 1.3498160618518829e+01 8.8926594561081380e+00 0 0 0
93 2 0.0000000000000000e+00 1.4208590124756663e+01 5.8435278206077257e+00 0 0 0
130 2 2.4610000000000003e+00 1.4208590124756663e+01 5.8435278206077257e+00 0 0 0
175 2 4.9220000000000006e+00 1.4208590124756663e+01 5.8435278206077257e+00 0 0 0
124 2 0.0000000000000000e+00 1.7050308149707998e+01 5.8435278206077257e+00 0 0 0
126 2 1.2305000000000001e+00 1.6339878643470165e+01 5.8435278206077257e+00 0 0 0
128 2 1.2305000000000001e+00 1.4919019630994494e+01 5.8435278206077257e+00 0 0 0
169 2 2.4610000000000003e+00 1.7050308149707998e+01 5.8435278206077257e+00 0 0 0
171 2 3.6915000000000004e+00 1.6339878643470165e+01 5.8435278206077257e+00 0 0 0
173 2 3.6915000000000004e+00 1.4919019630994494e+01 5.8435278206077257e+00 0 0 0
403 2 0.0000000000000000e+00 1.5629449137232333e+01 8.8926594561081380e+00 0 0 0
419 2 0.0000000000000000e+00 1.7050308149707998e+01 8.8926594561081380e+00 0 0 0
421 2 1.2305000000000001e+00 1.4919019630994494e+01 8.8926594561081380e+00 0 0 0
422 2 2.4610000000000003e+00 1.5629449137232328e+01 8.8926594561081380e+00 0 0 0
442 2 2.4610000000000003e+00 1.7050308149707998e+01 8.8926594561081380e+00 0 0 0
444 2 3.6915000000000004e+00 1.4919019630994494e+01 8.8926594561081380e+00 0 0 0
216 2 4.9220000000000006e+00 1.7050308149707998e+01 5.8435278206077257e+00 0 0 0
220 2 6.1524999999999990e+00 1.4919019630994494e+01 5.8435278206077257e+00 0 0 0
445 2 4.9220000000000006e+00 1.5629449137232333e+01 8.8926594561081380e+00 0 0 0
466 2 4.9220000000000006e+00 1.7050308149707998e+01 8.8926594561081380e+00 0 0 0
468 2 6.1524999999999990e+00 1.4919019630994494e+01 8.8926594561081380e+00 0 0 0
122 2 0.0000000000000000e+00 1.8471167162183658e+01 5.8435278206077257e+00 0 0 0
165 2 1.2305000000000001e+00 1.9181596668421495e+01 5.8435278206077257e+00 0 0 0
167 2 2.4610000000000003e+00 1.8471167162183658e+01 5.8435278206077257e+00 0 0 0
212 2 3.6914999999999996e+00 1.9181596668421495e+01 5.8435278206077257e+00 0 0 0
420 2 1.2305000000000001e+00 1.7760737655945832e+01 8.8926594561081380e+00 0 0 0
440 2 1.2305000000000001e+00 1.9181596668421495e+01 8.8926594561081380e+00 0 0 0
443 2 3.6914999999999996e+00 1.7760737655945832e+01 8.8926594561081380e+00 0 0 0
464 2 3.6914999999999996e+00 1.9181596668421495e+01 8.8926594561081380e+00 0 0 0
214 2 4.9220000000000006e+00 1.8471167162183658e+01 5.8435278206077257e+00 0 0 0
1252 1 3.6385859889887180e+00 1.1504333622174281e+01 1.1622185686514012e+01 1 0 0
1281 1 5.3623436168015388e+00 1.3547412137917391e+01 1.1343002962559652e+01 1 0 1
2033 1 7.2273415271546348e-01 1.1557088524086225e+01 1.1885208765576124e+01 0 0 0
2044 1 3.5928948511474825e+00 1.5918559898646746e+01 1.1499447180944033e+01 1 0 -1
3423 1 5.3060023774600884e+00 1.8120523300498341e+01 1.1179159355082584e+01 1 0 -1
1343 1 1.0127131991280827e+00 1.7305349501934884e+01 1.1533324605986905e+01 -1 0 -1
1966 1 1.0033270433990291e+00 1.4068453064197898e+01 1.5347687433282777e+01 1 0 0
3389 1 4.1200018019757572e+00 1.1371333448219760e+01 1.5445276731919504e+01 0 0 0
3293 1 1.1643725000589582e+00 1.3749800853709212e+01 1.7932740056922537e+01 1 0 0
3973 1 4.2509240440799339e+00 1.1358731394454260e+01 1.8155789429457581e+01 1 0 -1
1410 1 1.6991541334355478e+00 1.1510982741287059e+01 1.4619104466629549e+01 0 0 0
2024 1 2.2539804357963655e+00 1.8347167739014278e+01 1.5125209379212443e+01 1 0 0
3377 1 2.7052052412739203e+00 1.8226708182566284e+01 1.7897953823420874e+01 0 0 0
1954 1 5.5770985847613144e+00 1.5469914322649304e+01 1.7960899254476615e+01 0 0 0
4019 1 3.7116015929163054e-01 1.5983169110016393e+01 2.5227826477203273e+01 0 0 -1
3954 1 2.8878756673076409e+00 1.5864283091854059e+01 1.4096975922153863e+01 0 1 -1
2061 1 1.6103575736496072e+00 1.1360625497456535e+01 1.8739988596748255e+01 0 0 -1
2041 1 1.4955533816061730e+00 1.1223639125153962e+01 2.1718223644663251e+01 1 1 -1
3258 1 2.6987159372071678e-01 1.5967504493307318e+01 2.2588266243925030e+01 1 1 0
2082 1 2.8773574842014296e+00 1.5628475199228054e+01 2.1559803350846909e+01 1 1 -1
2624 1 3.0261520628326259e+00 1.5792739278617894e+01 1.8890544249660579e+01 1 0 0
1981 1 4.8494659628019248e+00 1.7471392692346051e+01 2.2362014849552821e+01 0 -1 -1
5 1 5.0505052291072925e+00 1.7184698333649088e+01 2.5342934237048510e+01 1 0 0
2002 1 3.1145560192596795e+00 1.4805871130008086e+01 2.5385953976777923e+01 0 1 0
3308 1 2.1059568908299884e+00 1.2089385577124840e+01 2.5727649656986912e+01 1 0 -1
663 1 3.4336828698666708e+00 1.3289685034183853e+01 2.2813325928731039e+01 0 0 0
1366 1 4.9211663537732486e-02 1.8793724411716269e+01 2.5786485228734545e+01 0 0 -1
561 1 5.2737294625978342e+00 1.5545971615360962e+01 1.5258279066005375e+01 0 0 -1
690 1 6.0301257574729634e+00 1.3214019495330398e+01 1.4277728929003040e+01 0 2 0
2581 1 1.7016999820776735e-01 1.8670425230456253e+01 2.1720781675822444e+01 0 1 0
601 1 1.3216503050539785e-01 1.8518998200410135e+01 1.8964386039763355e+01 0 0 0
121 2 0.0000000000000000e+00 1.9892026174659328e+01 2.7943961851141212e+00 0 0 0
166 2 2.4610000000000003e+00 1.9892026174659328e+01 2.7943961851141212e+00 0 0 0
213 2 4.9220000000000006e+00 1.9892026174659328e+01 2.7943961851141212e+00 0 0 0
158 2 0.0000000000000000e+00 2.4154603212086325e+01 2.7943961851141212e+00 0 0 0
160 2 0.0000000000000000e+00 2.1312885187134999e+01 2.7943961851141212e+00 0 0 0
162 2 1.2304999999999993e+00 2.2023314693372832e+01 2.7943961851141212e+00 0 0 0
203 2 1.2304999999999993e+00 2.3444173705848499e+01 2.7943961851141212e+00 0 0 0
205 2 2.4610000000000003e+00 2.4154603212086325e+01 2.7943961851141212e+00 0 0 0
207 2 2.4610000000000003e+00 2.1312885187134995e+01 2.7943961851141212e+00 0 0 0
209 2 3.6914999999999996e+00 2.2023314693372832e+01 2.7943961851141212e+00 0 0 0
250 2 3.6915000000000004e+00 2.3444173705848499e+01 2.7943961851141212e+00 0 0 0
252 2 4.9220000000000006e+00 2.4154603212086325e+01 2.7943961851141212e+00 0 0 0
254 2 4.9220000000000006e+00 2.1312885187134995e+01 2.7943961851141212e+00 0 0 0
256 2 6.1524999999999990e+00 2.2023314693372832e+01 2.7943961851141212e+00 0 0 0
774 2 0.0000000000000000e+00 2.5575462224561992e+01 2.7943961851141212e+00 0 0 0
776 2 1.2305000000000001e+00 2.6285891730799833e+01 2.7943961851141212e+00 0 0 0
784 2 1.2305000000000010e+00 2.7706750743275496e+01 2.7943961851141212e+00 0 0 0
788 2 2.4610000000000003e+00 2.5575462224561992e+01 2.7943961851141212e+00 0 0 0
790 2 3.6914999999999991e+00 2.6285891730799833e+01 2.7943961851141212e+00 0 0 0
806 2 3.6914999999999996e+00 2.7706750743275496e+01 2.7943961851141212e+00 0 0 0
810 2 4.9220000000000006e+00 2.5575462224561992e+01 2.7943961851141212e+00 0 0 0
836 2 6.1524999999999990e+00 2.7706750743275496e+01 2.7943961851141212e+00 0 0 0
772 2 0.0000000000000000e+00 2.8417180249513333e+01 2.7943961851141212e+00 0 0 0
786 2 2.4610000000000003e+00 2.8417180249513326e+01 2.7943961851141212e+00 0 0 0
808 2 4.9220000000000006e+00 2.8417180249513336e+01 2.7943961851141212e+00 0 0 0
163 2 1.2305000000000001e+00 2.0602455680897162e+01 5.8435278206077257e+00 0 0 0
210 2 3.6915000000000004e+00 2.0602455680897162e+01 5.8435278206077257e+00 0 0 0
418 2 0.0000000000000000e+00 1.9892026174659328e+01 8.8926594561081380e+00 0 0 0
441 2 2.4610000000000003e+00 1.9892026174659328e+01 8.8926594561081380e+00 0 0 0
465 2 4.9220000000000006e+00 1.9892026174659328e+01 8.8926594561081380e+00 0 0 0
159 2 0.0000000000000000e+00 2.2733744199610655e+01 5.8435278206077257e+00 0 0 0
161 2 0.0000000000000000e+00 2.1312885187134999e+01 5.8435278206077257e+00 0 0 0
204 2 1.2304999999999993e+00 2.3444173705848499e+01 5.8435278206077257e+00 0 0 0
206 2 2.4610000000000003e+00 2.2733744199610655e+01 5.8435278206077257e+00 0 0 0
208 2 2.4610000000000003e+00 2.1312885187134995e+01 5.8435278206077257e+00 0 0 0
251 2 3.6915000000000004e+00 2.3444173705848499e+01 5.8435278206077257e+00 0 0 0
437 2 0.0000000000000000e+00 2.4154603212086325e+01 8.8926594561081380e+00 0 0 0
438 2 0.0000000000000000e+00 2.1312885187134999e+01 8.8926594561081380e+00 0 0 0
439 2 1.2304999999999993e+00 2.2023314693372832e+01 8.8926594561081380e+00 0 0 0
460 2 1.2304999999999993e+00 2.3444173705848499e+01 8.8926594561081380e+00 0 0 0
461 2 2.4610000000000003e+00 2.4154603212086325e+01 8.8926594561081380e+00 0 0 0
462 2 2.4610000000000003e+00 2.1312885187134995e+01 8.8926594561081380e+00 0 0 0
463 2 3.6914999999999996e+00 2.2023314693372832e+01 8.8926594561081380e+00 0 0 0
484 2 3.6915000000000004e+00 2.3444173705848499e+01 8.8926594561081380e+00 0 0 0
253 2 4.9220000000000006e+00 2.2733744199610655e+01 5.8435278206077257e+00 0 0 0
255 2 4.9220000000000006e+00 2.1312885187134995e+01 5.8435278206077257e+00 0 0 0
485 2 4.9220000000000006e+00 2.4154603212086325e+01 8.8926594561081380e+00 0 0 0
486 2 4.9220000000000006e+00 2.1312885187134995e+01 8.8926594561081380e+00 0 0 0
487 2 6.1524999999999990e+00 2.2023314693372832e+01 8.8926594561081380e+00 0 0 0
773 2 0.0000000000000000e+00 2.6996321237037659e+01 5.8435278206077257e+00 0 0 0
775 2 0.0000000000000000e+00 2.5575462224561992e+01 5.8435278206077257e+00 0 0 0
777 2 1.2305000000000001e+00 2.4865032718324155e+01 5.8435278206077257e+00 0 0 0
785 2 1.2305000000000010e+00 2.7706750743275496e+01 5.8435278206077257e+00 0 0 0
787 2 2.4610000000000003e+00 2.6996321237037659e+01 5.8435278206077257e+00 0 0 0
789 2 2.4610000000000003e+00 2.5575462224561992e+01 5.8435278206077257e+00 0 0 0
791 2 3.6914999999999996e+00 2.4865032718324166e+01 5.8435278206077257e+00 0 0 0
807 2 3.6914999999999996e+00 2.7706750743275496e+01 5.8435278206077257e+00 0 0 0
1088 2 0.0000000000000000e+00 2.5575462224561992e+01 8.8926594561081380e+00 0 0 0
1089 2 1.2305000000000001e+00 2.6285891730799833e+01 8.8926594561081380e+00 0 0 0
1093 2 1.2305000000000010e+00 2.7706750743275496e+01 8.8926594561081380e+00 0 0 0
1095 2 2.4610000000000003e+00 2.5575462224561992e+01 8.8926594561081380e+00 0 0 0
1096 2 3.6914999999999991e+00 2.6285891730799833e+01 8.8926594561081380e+00 0 0 0
1104 2 3.6914999999999996e+00 2.7706750743275496e+01 8.8926594561081380e+00 0 0 0
809 2 4.9220000000000006e+00 2.6996321237037659e+01 5.8435278206077257e+00 0 0 0
811 2 4.9220000000000006e+00 2.5575462224561992e+01 5.8435278206077257e+00 0 0 0
813 2 6.1524999999999990e+00 2.4865032718324155e+01 5.8435278206077257e+00 0 0 0
837 2 6.1524999999999990e+00 2.7706750743275496e+01 5.8435278206077257e+00 0 0 0
1106 2 4.9220000000000006e+00 2.5575462224561992e+01 8.8926594561081380e+00 0 0 0
1119 2 6.1524999999999990e+00 2.7706750743275496e+01 8.8926594561081380e+00 0 0 0
783 2 1.2304999999999993e+00 2.9127609755751163e+01 5.8435278206077257e+00 0 0 0
805 2 3.6914999999999991e+00 2.9127609755751152e+01 5.8435278206077257e+00 0 0 0
1087 2 0.0000000000000000e+00 2.8417180249513333e+01 8.8926594561081380e+00 0 0 0
1094 2 2.4610000000000003e+00 2.8417180249513326e+01 8.8926594561081380e+00 0 0 0
835 2 6.1524999999999981e+00 2.9127609755751152e+01 5.8435278206077257e+00 0 0 0
1105 2 4.9220000000000006e+00 2.8417180249513336e+01 8.8926594561081380e+00 0 0 0
33 1 4.5663253997320119e+00 2.1116842534522739e+01 1.1673187392415135e+01 2 0 0
2738 1 1.8151396251981387e+00 2.1806551747568601e+01 1.1126708187966537e+01 -1 0 1
701 1 5.1284060378054654e+00 2.6560873746977926e+01 1.1952568854773984e+01 0 0 0
735 1 2.3033613271479281e+00 2.7152744570420250e+01 1.1748581469316475e+01 1 0 -1
736 1 9.3146065527175648e-01 2.4557884597708547e+01 1.1368542800804066e+01 1 1 1
2772 1 5.8723502228149353e+00 2.3907445673119472e+01 1.1501558549008200e+01 0 0 0
3342 1 1.2506103357900251e+00 2.2935528939762914e+01 1.3925575721817520e+01 1 0 0
2689 1 3.5805983813547302e+00 2.2583101898403253e+01 1.5370036853680871e+01 1 1 -1
3427 1 4.6653355503007683e+00 1.9820776128156080e+01 2.6041347808715464e+01 0 0 0
672 1 2.1687783759571690e+00 2.7690132636540977e+01 2.5808343450312620e+01 1 0 -1
3303 1 3.2910009592974747e+00 2.2887719010419865e+01 1.8181165660195880e+01 0 0 -1
2059 1 5.3803459354345016e+00 2.4361013480839887e+01 1.4399714019379426e+01 1 0 -1
2693 1 4.5580756510900198e+00 2.7077051903086172e+01 1.4905499091876090e+01 0 0 0
2628 1 1.8660659067185086e+00 2.7277460797237410e+01 1.4486766230219690e+01 1 0 -1
2016 1 4.3677795935988089e+00 2.6805536154761626e+01 1.7502249368990398e+01 0 -1 0
27 1 4.1623184118084655e+00 2.0370535273909699e+01 1.4419582415243235e+01 1 -1 0
2050 1 2.8035472477456622e+00 2.5118712116991425e+01 2.5123773624169495e+01 0 -1 0
3908 1 6.0772202202436076e-01 2.3499996682403889e+01 1.9104530681707438e+01 0 0 0
2582 1 5.1511357316156392e-01 2.3251426356295930e+01 2.1924800435889651e+01 -1 0 -1
551 1 4.4959373488082530e+00 2.0211065526784839e+01 2.1895763430793604e+01 1 0 0
3234 1 4.2191700319423369e+00 2.0295133090527280e+01 1.8988399166205742e+01 1 -1 0
2632 1 5.5833197906114336e+00 2.4704345994504656e+01 2.1686111514490676e+01 0 -1 -1
750 1 5.5484068946009701e+00 2.4350851119200488e+01 1.8703978122490653e+01 0 0 -1
1258 1 1.9436095115385861e+00 2.7813635316276301e+01 2.1586964626250037e+01 0 0 1
1302 1 2.0088611804787861e+00 2.7521403733918767e+01 1.8731045797713815e+01 1 0 -1
3403 1 1.8367452506507527e+00 2.0702912487277924e+01 2.2692951054184746e+01 1 0 -1
655 1 8.7375942677913954e-01 2.3205610941986578e+01 2.6086342647204461e+01 1 0 -1
1975 1 2.0402530682849065e+00 2.0883404329325121e+01 2.5416659551165605e+01 1 0 0
738 1 5.4964398116223396e+00 2.4467713783846445e+01 2.6100070256534053e+01 1 -1 1
700 1 2.7952389613445949e+00 2.5022039160314232e+01 2.2285418968803395e+01 0 0 0
644 1 2.4188440584522777e-01 2.5206929845002286e+01 1.4875644333650474e+01 0 -1 0
2103 1 4.1199873001181055e+00 2.9311631521599629e+01 2.4965847428029086e+01 1 0 0
1264 1 9.9470966213054623e-02 2.5833888667925230e+01 1.7624782064357500e+01 0 -1 0
2685 1 6.0237825575285715e+00 2.8921744952071812e+01 1.8536899157129632e+01 0 -1 0
780 2 0.0000000000000000e+00 2.9838039261988989e+01 2.7943961851141212e+00 0 0 0
782 2 1.2304999999999993e+00 3.0548468768226829e+01 2.7943961851141212e+00 0 0 0
802 2 2.4610000000000003e+00 2.9838039261988989e+01 2.7943961851141212e+00 0 0 0
804 2 3.6915000000000004e+00 3.0548468768226829e+01 2.7943961851141212e+00 0 0 0
832 2 4.9220000000000006e+00 2.9838039261988989e+01 2.7943961851141212e+00 0 0 0
778 2 0.0000000000000000e+00 3.2679757286940330e+01 2.7943961851141212e+00 0 0 0
794 2 0.0000000000000000e+00 3.4100616299415996e+01 2.7943961851141212e+00 0 0 0
798 2 1.2304999999999993e+00 3.1969327780702493e+01 2.7943961851141212e+00 0 0 0
800 2 2.4610000000000003e+00 3.2679757286940337e+01 2.7943961851141212e+00 0 0 0
824 2 2.4609999999999985e+00 3.4100616299415996e+01 2.7943961851141212e+00 0 0 0
828 2 3.6914999999999996e+00 3.1969327780702493e+01 2.7943961851141212e+00 0 0 0
830 2 4.9220000000000015e+00 3.2679757286940337e+01 2.7943961851141212e+00 0 0 0
862 2 4.9220000000000006e+00 3.4100616299415996e+01 2.7943961851141212e+00 0 0 0
796 2 1.2305000000000010e+00 3.4811045805653833e+01 2.7943961851141212e+00 0 0 0
826 2 3.6915000000000018e+00 3.4811045805653833e+01 2.7943961851141212e+00 0 0 0
792 2 0.0000000000000000e+00 3.6942334324367337e+01 2.7943961851141212e+00 0 0 0
816 2 0.0000000000000000e+00 3.8363193336842990e+01 2.7943961851141212e+00 0 0 0
820 2 1.2304999999999993e+00 3.6231904818129486e+01 2.7943961851141212e+00 0 0 0
822 2 2.4610000000000021e+00 3.6942334324367337e+01 2.7943961851141212e+00 0 0 0
854 2 2.4610000000000003e+00 3.8363193336842990e+01 2.7943961851141212e+00 0 0 0
858 2 3.6914999999999996e+00 3.6231904818129486e+01 2.7943961851141212e+00 0 0 0
860 2 4.9220000000000006e+00 3.6942334324367316e+01 2.7943961851141212e+00 0 0 0
899 2 4.9220000000000006e+00 3.8363193336842990e+01 2.7943961851141212e+00 0 0 0
818 2 1.2305000000000010e+00 3.9073622843080841e+01 2.7943961851141212e+00 0 0 0
856 2 3.6915000000000018e+00 3.9073622843080820e+01 2.7943961851141212e+00 0 0 0
779 2 0.0000000000000000e+00 3.1258898274464656e+01 5.8435278206077257e+00 0 0 0
781 2 0.0000000000000000e+00 2.9838039261988989e+01 5.8435278206077257e+00 0 0 0
801 2 2.4609999999999985e+00 3.1258898274464656e+01 5.8435278206077257e+00 0 0 0
803 2 2.4610000000000003e+00 2.9838039261988989e+01 5.8435278206077257e+00 0 0 0
1091 2 0.0000000000000000e+00 2.9838039261988989e+01 8.8926594561081380e+00 0 0 0
1092 2 1.2304999999999993e+00 3.0548468768226829e+01 8.8926594561081380e+00 0 0 0
1102 2 2.4610000000000003e+00 2.9838039261988989e+01 8.8926594561081380e+00 0 0 0
1103 2 3.6915000000000004e+00 3.0548468768226829e+01 8.8926594561081380e+00 0 0 0
831 2 4.9219999999999979e+00 3.1258898274464656e+01 5.8435278206077257e+00 0 0 0
833 2 4.9220000000000006e+00 2.9838039261988989e+01 5.8435278206077257e+00 0 0 0
1117 2 4.9220000000000006e+00 2.9838039261988989e+01 8.8926594561081380e+00 0 0 0
795 2 0.0000000000000000e+00 3.4100616299415996e+01 5.8435278206077257e+00 0 0 0
797 2 1.2304999999999993e+00 3.3390186793178160e+01 5.8435278206077257e+00 0 0 0
799 2 1.2304999999999993e+00 3.1969327780702493e+01 5.8435278206077257e+00 0 0 0
825 2 2.4609999999999985e+00 3.4100616299415996e+01 5.8435278206077257e+00 0 0 0
827 2 3.6914999999999978e+00 3.3390186793178160e+01 5.8435278206077257e+00 0 0 0
829 2 3.6914999999999996e+00 3.1969327780702493e+01 5.8435278206077257e+00 0 0 0
1090 2 0.0000000000000000e+00 3.2679757286940330e+01 8.8926594561081380e+00 0 0 0
1098 2 0.0000000000000000e+00 3.4100616299415996e+01 8.8926594561081380e+00 0 0 0
1100 2 1.2304999999999993e+00 3.1969327780702493e+01 8.8926594561081380e+00 0 0 0
1101 2 2.4610000000000003e+00 3.2679757286940337e+01 8.8926594561081380e+00 0 0 0
1113 2 2.4609999999999985e+00 3.4100616299415996e+01 8.8926594561081380e+00 0 0 0
1115 2 3.6914999999999996e+00 3.1969327780702493e+01 8.8926594561081380e+00 0 0 0
863 2 4.9220000000000006e+00 3.4100616299415996e+01 5.8435278206077257e+00 0 0 0
865 2 6.1524999999999990e+00 3.3390186793178160e+01 5.8435278206077257e+00 0 0 0