
# Create simulation box and atoms

read_data data.ML_graphite_m500atm_240K
  orthogonal box = (0 0 1.84677) to (49.22 49.0196 26.0932)
  8 by 5 by 2 MPI processor grid
  reading atoms ...
  4055 atoms
  reading velocities ...
  4055 velocities
group water type 1
1295 atoms in group water
group graphite type 2
2760 atoms in group graphite

# Define potential

pair_style sw
pair_coeff * * MLC_e.sw mW C


# Fix graphite atoms in place

fix 5 graphite setforce 0.0 0.0 0.0
velocity graphite set 0.0 0.0 0.0


# Equilibration of molecular water

# Add velocity/set timestep

velocity	    water create ${TEMP} ${SEED} rot yes dist gaussian
velocity	    water create 240 ${SEED} rot yes dist gaussian
velocity	    water create 240 28099 rot yes dist gaussian
timestep	    5.0

# Define output

compute			1 water msd
compute			3 water temp
thermo	    	50
thermo_style	custom step temp press vol etotal ke pe c_1[4] c_3

# Neighbor lists

neigh_modify    delay 0 every 1 check yes

# Set fixes

fix             1 water momentum 10 linear 1 1 1 rescale
fix             2 water nve
fix             3 water temp/csvr ${TEMP} ${TEMP} 500.0 ${SEED}
fix             3 water temp/csvr 240 ${TEMP} 500.0 ${SEED}
fix             3 water temp/csvr 240 240 500.0 ${SEED}
fix             3 water temp/csvr 240 240 500.0 28099
fix             4 water press/berendsen z ${PRES} ${PRES} 1000.0 modulus 20000
fix             4 water press/berendsen z -500 ${PRES} 1000.0 modulus 20000
fix             4 water press/berendsen z -500 -500 1000.0 modulus 20000

# Run 0.5 ns equilibration

dump		    1 all atom 2000 ${DIR}/eq.${NAME}-${TEMP}.dump
dump		    1 all atom 2000 run_9/eq.${NAME}-${TEMP}.dump
dump		    1 all atom 2000 run_9/eq.het_freeze_9-${TEMP}.dump
dump		    1 all atom 2000 run_9/eq.het_freeze_9-240.dump

reset_timestep  0

run	            100000
Neighbor list info ...
  update every 1 steps, delay 0 steps, check yes
  max neighbors/atom: 2000, page size: 100000
  master list distance cutoff = 6.67472
  ghost atom cutoff = 6.67472
  binsize = 3.33736, bins = 15 15 8
  1 neighbor lists, perpetual/occasional/extra = 1 0 0
  (1) pair sw, perpetual
      attributes: full, newton on
      pair build: full/bin/atomonly
      stencil: full/bin/3d
      bin: standard
Per MPI rank memory allocation (min/avg/max) = 4.096 | 4.284 | 4.472 Mbytes
Step Temp Press Volume TotEng KinEng PotEng c_1[4] c_3 
       0    76.605821   -1210.2423    58500.543   -12658.119    925.72037   -13583.839            0          240 
      50    78.585331   -1078.5974    58473.179   -12619.969    949.64116    -13569.61   0.52203659    246.20165 
     100     76.98529    -847.0801    58526.111   -12611.451    930.30594   -13541.757   0.81097681    241.18884 
     150    77.164456   -1171.9907     58526.49   -12654.626    932.47102   -13587.097   0.99659067    241.75016 
     200    78.994217   -1054.3792    58518.676   -12629.855    954.58222   -13584.437    1.2523014    247.48265 
     250    77.417303   -745.95626    58545.145   -12637.991    935.52648   -13573.518    1.4955034    242.54231 
     300    75.137353   -989.56292    58572.346   -12638.853     907.9751   -13546.828    1.6474094    235.39941 
     350    79.337834   -1098.6064    58541.567   -12634.767    958.73457   -13593.501    1.8319161    248.55918 
     400    77.824085    -869.5395    58559.903   -12627.075    940.44211   -13567.517    2.0188008    243.81672 
     450    79.126635   -1291.5853    58552.225   -12615.453    956.18239   -13571.636    2.0902462    247.89751 
     500    79.871849   -1202.5912    58515.754   -12635.915    965.18772   -13601.102    2.3246446    250.23221 
     550    80.665573   -1055.6802    58452.085   -12627.093    974.77923   -13601.873    2.5643209    252.71888 
     600    76.758337    -1332.922    58411.667   -12612.515     927.5634   -13540.079    2.8412084    240.47782 
     650    77.533557   -1219.5084    58381.729   -12639.739    936.93132    -13576.67    2.9692505    242.90652 
     700    77.380489   -1258.9312    58352.954   -12669.597    935.08161   -13604.678    3.1041765    242.42697 
     750    78.100844   -963.00626    58355.322   -12664.622    943.78653   -13608.408    3.2980791    244.68379 
     800    76.139455   -1129.8988    58291.751   -12660.548     920.0847   -13580.633    3.5343557    238.53891 
     850    75.895427   -1070.8622    58272.218   -12638.417    917.13582   -13555.553    3.7769594    237.77439 
     900    80.680464   -1000.9191    58240.367    -12622.85    974.95919   -13597.809    4.0036169    252.76554 
     950    77.047194    -1001.396    58260.007   -12634.211    931.05401   -13565.265    4.0726955    241.38279 
    1000    75.688205   -1022.2712    58243.943   -12635.567     914.6317   -13550.199      4.28732    237.12518 
    1050    78.128739   -1126.9376    58229.811   -12631.748    944.12362   -13575.872    4.3760244    244.77118 
    1100     81.09903   -909.57811    58172.075   -12611.904    980.01722   -13591.921    4.5302314    254.07687 
    1150    76.924112   -869.03951    58150.266   -12626.528    929.56666   -13556.095    4.7492976    240.99718 
    1200    75.016205    -1044.758     58144.99    -12657.48    906.51113   -13563.991    4.8953296    235.01986 
    1250     75.83062   -845.28541    58198.857   -12669.345    916.35268   -13585.697    5.0409583    237.57136 
    1300    78.014411   -947.03523    58254.526   -12662.159    942.74205   -13604.901    5.2642134      244.413 
    1350    77.198466    -1002.152    58264.863   -12661.374    932.88201   -13594.256    5.4990029    241.85671 
    1400    76.186173   -1199.9252    58208.575    -12654.27    920.64925    -13574.92     5.568837    238.68527 
    1450    73.688413   -745.74754    58220.801   -12677.298    890.46582   -13567.764    5.6860764    230.85999 
    1500    77.664858   -932.93168    58278.072   -12657.775    938.51798   -13596.293    5.9858769    243.31788 
    1550    75.354284   -566.90591    58336.837   -12665.969    910.59653   -13576.566    6.1863206    236.07903 
    1600    77.006228   -991.26373     58376.49   -12667.222    930.55896   -13597.781    6.2706693    241.25444 
    1650    77.897282   -1148.1162    58426.812    -12669.19    941.32664   -13610.517    6.3921371    244.04604 
    1700    76.631731   -1338.4568    58431.228   -12671.429    926.03346   -13597.462    6.5428499    240.08117 
    1750    75.087323   -997.35451     58409.56   -12669.564    907.37053   -13576.935    6.8369221    235.24266 
    1800    74.682265   -1038.4944    58402.663   -12682.267    902.47572   -13584.743    6.9267211    233.97365 
    1850    77.912435   -1330.4309    58338.287   -12673.744    941.50975   -13615.254    6.9733738    244.09352 
    1900    74.975344   -1083.8324    58302.496   -12689.994    906.01735   -13596.012    7.3371317    234.89184 
    1950    75.148411   -778.59272     58339.36   -12714.145    908.10872   -13622.254    7.6200831    235.43405 
    2000    74.557291   -941.76827      58346.8   -12698.086    900.96552   -13599.051    7.7850334    233.58212 
    2050    77.540689   -1047.7159    58360.227   -12692.289     937.0175   -13629.306    7.8701041    242.92887 
    2100     77.52957   -1116.0206    58357.124   -12691.768    936.88313   -13628.651    8.0255443    242.89403 
    2150    78.851816   -981.23886    58377.823   -12668.081    952.86142   -13620.943    8.1883281    247.03652 
    2200    74.898531   -915.58367    58384.466   -12686.899    905.08912   -13591.988    8.3557922    234.65119 
    2250    77.722711   -1169.9705    58397.808   -12697.811    939.21709   -13637.028    8.4690488    243.49913 
    2300    78.079148   -1203.6279    58406.572   -12693.168    943.52435   -13636.693     8.621864    244.61582 
    2350    77.373752   -1514.1217    58433.321   -12689.705    935.00019   -13624.706    8.6590691    242.40586 
    2400    78.047061   -911.95999    58425.105   -12710.634     943.1366   -13653.771    8.7033106    244.51529 
    2450    75.609819   -1119.0069      58451.8   -12719.266    913.68448    -13632.95     8.924568     236.8796 
    2500    77.195777   -683.03943    58510.005   -12719.036    932.84951   -13651.885    8.9236064    241.84828 
    2550    74.965225   -969.59708    58513.359   -12715.442    905.89507   -13621.337    8.8567173    234.86014 
    2600    74.432372   -1413.9791    58481.997   -12731.671    899.45596   -13631.127    9.0478917    233.19075 
    2650    75.419372   -1334.9769    58443.534   -12721.891    911.38307   -13633.274    9.2229547    236.28295 
    2700    77.819327   -1087.3587    58447.429   -12703.675    940.38461    -13644.06    9.2511048    243.80182 
    2750    76.027513   -917.59297    58484.831   -12681.804    918.73198   -13600.536    9.3695037    238.18821 
    2800    78.703084   -727.57925    58526.481   -12657.613    951.06412   -13608.677    9.5196206    246.57056 
    2850    74.434504   -994.44803    58504.333   -12686.365    899.48173   -13585.847     9.618782    233.19743 
    2900    77.275053   -1030.9584    58518.565    -12658.29     933.8075   -13592.098    9.7614065    242.09665 
    2950    75.920155   -1104.9323    58568.084   -12664.247    917.43464   -13581.682    10.076151    237.85186 
    3000    78.603815   -484.66454    58592.328   -12659.752    949.86454   -13609.616    10.267898    246.25956 
    3050    78.059783   -1298.8992    58588.531   -12636.479    943.29034   -13579.769    10.335264    244.55515 
    3100     78.40881   -926.63258    58621.153   -12672.834    947.50805   -13620.342    10.441141    245.64862 
    3150    76.481665   -959.53848    58568.783   -12647.268    924.22003   -13571.488    10.554071    239.61103 
    3200    79.124314   -681.11504    58623.444   -12645.198    956.15435   -13601.353    10.729696    247.89024 
    3250    82.183441   -1032.0336    58633.107   -12641.458    993.12147   -13634.579    10.813207    257.47424 
    3300    78.150344   -610.88217    58725.173   -12648.859    944.38469   -13593.244    11.103012    244.83887 
    3350    73.720715   -417.43966    58788.406   -12654.912    890.85615   -13545.768    11.220795    230.96119 
    3400    78.210619   -889.39161     58822.12   -12674.318    945.11307   -13619.431    11.404063     245.0277 
    3450    75.477678   -1003.9938    58870.476   -12645.119    912.08765   -13557.207    11.673665    236.46562 
    3500    75.244119   -1176.6845    58935.353   -12674.596    909.26528   -13583.861    11.810042    235.73389 
    3550    74.744361   -1256.6292    58919.498   -12668.169    903.22611   -13571.395    12.140439    234.16819 
    3600    77.398805   -1129.0987      58918.7   -12664.543    935.30294   -13599.846    12.169683    242.48435 
    3650    76.426828   -1183.3058    58891.972   -12666.963    923.55737    -13590.52    12.335079    239.43923 
    3700    75.766515   -1309.3873    58828.653    -12684.78    915.57801   -13600.358    12.489794    237.37052 
    3750    77.022993   -1338.7023     58775.13   -12713.802    930.76156   -13644.564    12.484909    241.30697 
    3800    74.158479   -1134.4022    58780.102   -12723.552    896.14619   -13619.698     12.84562    232.33267 
    3850    75.613715   -1147.4767    58771.416   -12688.181    913.73155   -13601.913     13.16905    236.89181 
    3900    76.013554   -1290.1267    58762.472   -12703.687    918.56328   -13622.251    13.373095    238.14447 
    3950    78.078978   -1256.3138    58778.026   -12706.268    943.52229    -13649.79    13.386154    244.61528 
    4000    74.466439   -1441.9781    58746.809   -12702.608    899.86763   -13602.476    13.477649    233.29748 
    4050    76.754766    -661.5064    58654.667   -12727.683    927.52025   -13655.204    13.371499    240.46663 
    4100    74.323741   -1290.0641    58644.226   -12724.393    898.14325   -13622.536    13.498893    232.85042 
    4150    78.534763   -1299.8404    58625.168   -12721.457     949.0301   -13670.487    13.421854    246.04322 
    4200    73.575654   -1391.9269    58547.391   -12743.589    889.10321   -13632.692    13.756252    230.50673 
    4250    76.961587   -1210.7973    58469.625   -12738.155    930.01951   -13668.175     13.92751    241.11458 
    4300    76.968928    -841.0871    58465.384   -12718.498    930.10822   -13648.606    13.913029    241.13758 
    4350    75.745124   -1008.2428    58554.793   -12761.648    915.31953   -13676.968    13.992483     237.3035 
    4400    75.193541   -1049.9523    58585.884   -12783.604    908.65408   -13692.258    14.050795    235.57544 
    4450     75.75203    -1162.288    58562.831   -12774.408    915.40297   -13689.811    14.343493    237.32514 
    4500    74.823151   -1108.2306    58570.831   -12760.948    904.17821   -13665.126    14.547543    234.41503 
    4550    75.387697   -1079.9295    58613.506   -12746.287     911.0003   -13657.287    14.699587    236.18371 
    4600    72.990032    -894.1016    58625.686   -12747.332    882.02643   -13629.358    14.683512    228.67202 
    4650    73.895847   -966.10731     58607.55   -12741.559    892.97249   -13634.531    14.796386    231.50986 
    4700     74.40387   -1258.9908    58594.392   -12750.549    899.11154    -13649.66    14.931617    233.10146 
    4750    73.965367   -963.32178    58597.467   -12764.039    893.81257   -13657.852    14.958482    231.72766 
    4800    75.351108   -943.21216    58565.389   -12748.698    910.55816   -13659.256    15.225599    236.06908 
    4850    77.133668   -1256.6706    58574.224   -12697.674    932.09897   -13629.773     15.37559     241.6537 
    4900    78.205998   -978.27862    58559.553   -12676.527    945.05722   -13621.584    15.465351    245.01323 
    4950    75.935221    -1590.874    58541.412   -12663.755     917.6167   -13581.372    15.616106    237.89906 
    5000    77.464175   -1295.2765    58549.197   -12662.803    936.09289   -13598.895     15.71488    242.68915 
    5050    77.776635   -1145.2319    58530.498    -12671.95    939.86872   -13611.819    15.776776    243.66807 
    5100    74.244366   -1119.8583    58577.182   -12701.843    897.18406   -13599.027    15.898615    232.60175 
    5150    73.329829   -1329.9165    58605.114   -12720.788    886.13261    -13606.92    15.954681    229.73657 
    5200    77.813762   -498.17346    58580.381    -12719.97    940.31736   -13660.287    16.064054    243.78438 
    5250    80.571398   -1214.2384     58568.05   -12687.056     973.6412   -13660.698    16.328458    252.42384 
    5300    76.883716    -927.4486    58548.001   -12703.029    929.07851   -13632.108    16.484069    240.87062 
    5350    76.619869   -1233.3745    58511.632   -12685.863    925.89013   -13611.753    16.715389    240.04401 
    5400    76.634931   -830.27459    58541.504   -12692.536    926.07213   -13618.608    16.922444     240.0912 
    5450    76.115182   -901.59334      58625.5   -12679.737    919.79138   -13599.529     17.25656    238.46286 
    5500    75.360422   -1236.6729    58664.617   -12698.597    910.67071   -13609.268    17.434902    236.09826 
    5550    72.902492   -993.62562     58689.46   -12686.181    880.96859   -13567.149    17.662114    228.39776 
    5600     75.97752    -1186.739    58661.033    -12714.88    918.12785   -13633.008    17.719782    238.03158 
    5650    77.996651   -1094.5424    58658.261   -12702.823    942.52744    -13645.35    17.779462    244.35736 
    5700    76.308864   -1500.8283    58608.389   -12687.675    922.13187   -13609.807    17.891797    239.06965 
    5750    77.349315   -1252.3796    58583.709   -12690.667     934.7049   -13625.372    18.227645    242.32931 
    5800    74.962152   -972.61509    58617.447   -12692.352    905.85793    -13598.21    18.378914    234.85051 
    5850    77.147643   -759.13799    58650.759     -12684.2    932.26786   -13616.468    18.659969    241.69749 
    5900    78.109611   -844.91438    58671.583   -12715.828    943.89247   -13659.721    18.781632    244.71125 
    5950    77.052249   -962.20804    58704.825   -12712.294    931.11509   -13643.409     18.63454    241.39862 
    6000    78.820531   -907.09276    58736.491   -12679.354    952.48337   -13631.838    18.662881    246.93851 
    6050     76.07118   -1280.0029    58739.479   -12687.791    919.25965    -13607.05    18.857918    238.32501 
    6100    77.549489   -1238.5964     58684.73    -12698.27    937.12384   -13635.394     18.95095    242.95643 
    6150    78.960476   -1250.6599     58702.52   -12705.845    954.17449    -13660.02    19.078549    247.37695 
    6200    76.394641   -1196.8943     58708.62   -12727.034    923.16842   -13650.202    19.199328    239.33839 
    6250    77.065427   -1258.8749    58698.612   -12708.091    931.27434   -13639.365    19.113933    241.43991 
    6300    75.583231   -890.62363    58731.453   -12743.304    913.36317   -13656.667    19.164467     236.7963 
    6350    76.298329   -1510.1645    58748.951   -12725.302    922.00457   -13647.306    19.336812    239.03665 
    6400     77.57007   -1271.0277    58736.059    -12753.89    937.37254   -13691.262     19.53519    243.02091 
    6450    74.214742   -1276.8646    58680.374   -12787.836    896.82608   -13684.662    19.669725    232.50894 
    6500    73.520838   -929.83889     58676.08   -12779.108     888.4408   -13667.549    19.996305    230.33499 
    6550    75.940794   -1143.4261    58686.235   -12785.889    917.68404   -13703.573     20.25615    237.91652 
    6600    72.734225   -1278.7727    58670.103   -12788.028    878.93521   -13666.963    20.497305    227.87059 
    6650    75.466787   -1096.8396    58638.846   -12770.511    911.95604   -13682.467    20.594548    236.43149 
    6700    74.294503    -843.5121    58661.745    -12768.75    897.78992    -13666.54    20.715463    232.75882 
    6750    74.996553   -1283.2893    58725.441   -12760.693    906.27364   -13666.967    20.829139    234.95829 
    6800    77.777562   -960.40552    58752.176    -12746.21    939.87992    -13686.09    21.027281    243.67097 
    6850     73.76215   -1166.6752    58760.065   -12768.841    891.35687   -13660.198    21.232627      231.091 
    6900    75.390696    -798.0797    58700.961   -12741.584    911.03654   -13652.621    21.363495    236.19311 
    6950    76.137992   -1029.9445     58721.22    -12752.86    920.06703   -13672.927     21.80063    238.53433 
    7000    75.757637   -847.77422    58741.083   -12756.178    915.47073   -13671.648    21.877071     237.3427 
    7050    77.323464   -783.50785    58727.204   -12721.645    934.39251   -13656.037    21.820329    242.24832 
    7100    77.611527   -873.93216    58722.077   -12757.725    937.87352   -13695.599    21.632353     243.1508 
    7150    76.678472   -962.13051     58718.65   -12756.809    926.59829   -13683.407    21.585696    240.22761 
    7200     76.03425   -1097.2926    58740.052   -12771.456    918.81338   -13690.269    21.509245    238.20931 
    7250    76.689592   -686.44153    58687.641   -12753.528    926.73267   -13680.261    21.681477    240.26245 
    7300     77.34189   -775.45578    58693.816   -12725.757    934.61518   -13660.372    21.729797    242.30605 
    7350    76.920387   -770.31672    58736.621   -12767.168    929.52165   -13696.689    21.960061    240.98551 
    7400    78.077349   -1001.1438    58723.534   -12768.611    943.50261   -13712.114    21.893194    244.61018 
    7450    77.469248   -934.99497      58680.2   -12756.122    936.15419   -13692.276    21.957873    242.70505 
    7500    78.110718   -956.64556    58655.883   -12775.353    943.90584   -13719.259    22.300242    244.71472 
    7550     76.30233   -1064.9846    58654.575   -12774.263    922.05292   -13696.316    22.275682    239.04919 
    7600    75.617745    -878.3662    58678.048   -12757.031    913.78025   -13670.811    22.286526    236.90443 
    7650    74.877551   -1128.0979    58699.989   -12730.558    904.83559   -13635.394    22.550851    234.58546 
    7700    75.510201   -1116.6997    58729.976   -12746.104    912.48066   -13658.585    22.876545    236.56751 
    7750    74.802412   -867.77679    58691.557   -12765.298     903.9276   -13669.226    23.004075    234.35006 
    7800    76.329691    -1213.095    58656.563   -12764.484    922.38356   -13686.868    23.148528    239.13491 
    7850     75.68147   -1057.0935    58646.045   -12785.554    914.55032   -13700.105    23.204336    237.10408 
    7900    75.213081    -1297.485    58627.723   -12787.124     908.8902   -13696.014    23.316673    235.63665 
    7950    74.722534   -1103.8042     58627.35    -12779.91    902.96234   -13682.873     23.28691    234.09981 
    8000    75.588687   -1474.2498    58624.917     -12719.9     913.4291   -13633.329    23.509029     236.8134 
    8050    80.846804   -1227.4194    58598.788   -12703.921    976.96926    -13680.89    23.108773    253.28666 
    8100    77.997178   -1564.0402    58579.406   -12718.544    942.53381   -13661.078    23.263755    244.35901 
    8150    76.280807   -892.48775    58611.842   -12749.076    921.79283   -13670.869     23.54952    238.98176 
    8200    75.944555   -1349.8112    58579.189   -12768.562    917.72949   -13686.291    23.569518     237.9283 
    8250    77.027422   -1131.4332    58586.986   -12772.683    930.81508   -13703.498    23.608398    241.32084 
    8300    72.047501   -816.43688    58568.219   -12763.453     870.6367   -13634.089    23.781234    225.71914 
    8350    76.630754   -1165.9614    58595.121   -12762.393    926.02165   -13688.415    23.961112    240.07811 
    8400    75.119092   -900.40252    58581.723   -12730.249    907.75443   -13638.004    23.970282     235.3422 
    8450    76.559724   -1182.2866    58567.722   -12728.103    925.16331   -13653.266    23.978049    239.85558 
    8500    75.992578   -839.43872    58578.956   -12723.559    918.30981   -13641.868    24.137128    238.07876 
    8550    77.549151   -983.95934    58597.523   -12728.493    937.11975   -13665.613     24.32075    242.95538 
    8600    76.235603   -901.08485    58595.927   -12757.292    921.24657   -13678.539    24.612828    238.84013 
    8650    74.483233    -791.1021    58561.403   -12783.764    900.07058   -13683.834    24.864501     233.3501 
    8700    76.336137   -1261.5422    58548.133   -12790.496    922.46145   -13712.957    24.896084     239.1551 
    8750    77.910603   -1146.8811    58515.319   -12772.423    941.48762   -13713.911     24.95396    244.08778 
    8800    72.512263   -1159.9697    58494.029   -12769.394    876.25298   -13645.647    25.045262    227.17521 
    8850    77.505004   -781.91495    58481.446   -12730.007    936.58628   -13666.593    24.943678    242.81707 
    8900    75.913917   -915.11176    58447.614   -12751.828    917.35926   -13669.187    24.988339    237.83232 
    8950    78.607707   -678.91676    58442.414   -12726.656    949.91157   -13676.568    25.058478    246.27175 
    9000    77.300772   -1033.6907    58474.846   -12752.719    934.11829   -13686.838    25.223003    242.17722 
    9050    78.907868   -937.78079    58457.164   -12731.296    953.53877   -13684.835     25.39293    247.21213 
    9100    75.730003   -1209.3605    58469.404   -12746.915     915.1368   -13662.052     25.63015    237.25613 
    9150    77.266458   -796.74673    58455.656   -12753.321    933.70364   -13687.025    25.836553    242.06972 
    9200    77.688609   -775.12047    58507.785   -12717.491      938.805   -13656.296    25.780021    243.39229 
    9250    76.980324   -854.60239    58521.475   -12754.685    930.24594   -13684.931    25.973851    241.17329 
    9300    76.895393   -932.37052    58586.181    -12738.23    929.21962    -13667.45    26.132845    240.90721 
    9350    77.653067   -723.17172    58603.662   -12708.282     938.3755   -13646.658    26.106847    243.28094 
    9400    76.590607   -976.79652    58602.723   -12727.649    925.53652   -13653.185    26.135033    239.95233 
    9450    75.714184    -777.2503    58653.117   -12714.741    914.94564   -13629.686    26.325177    237.20657 
    9500    75.786581   -1051.1291    58727.905   -12715.533    915.82051   -13631.353    26.147313    237.43339 
    9550    78.846455    -885.1854    58740.884     -12720.1    952.79664   -13672.897    26.163013    247.01973 
    9600    77.653284   -979.04302    58771.941   -12725.242    938.37813    -13663.62    26.352042    243.28162 
    9650    78.373845   -518.19255    58804.191   -12711.778    947.08552   -13658.864    26.492885    245.53908 
    9700    80.954008   -807.63001     58829.95   -12682.739    978.26475   -13661.004    26.529736    253.62253 
    9750    76.663167   -1065.0588    58771.245    -12721.85    926.41335   -13648.264    26.981162    240.17966 
    9800    76.311586   -918.76738    58699.548   -12736.738    922.16477   -13658.903    27.064457    239.07818 
    9850    75.701278   -1177.8881     58682.28   -12774.558    914.78968   -13689.348    27.405489    237.16614 
    9900    76.815059   -1028.3337    58685.735   -12773.263    928.24884   -13701.512     27.59675    240.65553 
    9950    77.563364   -975.95686    58644.247   -12766.689     937.2915    -13703.98    27.605987     242.9999 
   10000    76.643491   -1212.5615    58645.342   -12766.569    926.17558   -13692.745    27.340971    240.11802 
   10050    78.947503   -911.01894    58632.668   -12770.983    954.01772       -13725    27.376816     247.3363 
   10100    74.556021   -1295.4409    58670.809   -12809.329    900.95016    -13710.28    27.445173    233.57814 
   10150    75.386593   -1350.1608    58648.325   -12806.888    910.98697   -13717.875    27.366144    236.18025 
   10200    76.350981   -1087.9307     58577.67    -12809.64    922.64083   -13732.281    27.422968    239.20161 
   10250    76.606771   -1442.8408     58555.32   -12812.749    925.73184   -13738.481    27.756882    240.00297 
   10300    75.949537    -1022.752    58562.191   -12775.411     917.7897   -13693.201    27.922042    237.94391 
   10350    76.253744   -1016.5312     58573.68   -12777.889    921.46579   -13699.355    28.061955    238.89697 
   10400    76.967904    -990.6426    58546.694   -12792.109    930.09585   -13722.205    28.243587    241.13438 
   10450    75.600937   -878.09502    58532.666   -12806.362    913.57714   -13719.939     28.41008    236.85178 
   10500    74.348763   -1130.6996    58548.234   -12785.991    898.44562   -13684.436    28.700488    232.92881 
   10550    74.438191    -1375.144    58559.937   -12785.257    899.52628   -13684.783     28.62533    233.20898 
   10600    73.215448   -752.95795    58600.715   -12798.251     884.7504   -13683.002     28.53232    229.37823 
   10650    78.197705    -1150.685    58589.423   -12751.484    944.95701   -13696.441     28.67664    244.98724 
   10700    76.905268    -936.9424    58559.891    -12747.36    929.33894   -13676.699    28.867648    240.93814 
   10750    77.017966   -715.32952    58536.287   -12776.246    930.70081   -13706.946    29.025038    241.29122 
   10800    76.766597    -996.7343    58520.282   -12771.895    927.66322   -13699.558    29.199193     240.5037 
   10850    79.023673   -996.79509    58474.259   -12729.872    954.93818    -13684.81    29.151913    247.57494 
   10900    77.930021   -684.91258    58505.084   -12731.914    941.72227   -13673.636     29.23613    244.14861 
   10950    75.800308   -784.43299    58499.094   -12755.921    915.98639   -13671.908    29.420898    237.47639 
   11000    78.774941    -1106.526    58489.169   -12749.081    951.93245   -13701.014    29.543295    246.79568 
   11050    77.575015   -797.72196    58550.896   -12733.475     937.4323   -13670.907    29.293719    243.03641 
   11100    77.605309     -770.111    58587.214   -12716.914    937.79838   -13654.712    29.577071    243.13131 
   11150    76.033374   -1147.8874    58681.577   -12724.464    918.80279   -13643.267    29.827038    238.20657 
   11200    78.742799   -1139.3075    58715.543   -12723.938    951.54404   -13675.482    29.933324    246.69498 
   11250    75.095692   -988.62406    58660.545   -12759.045    907.47166   -13666.517    30.263204    235.26888 
   11300    74.447315     -980.246    58655.037   -12785.632    899.63654   -13685.268    30.458003    233.23757 
   11350    74.932482   -918.16648    58675.372   -12769.261     905.4994   -13674.761    30.334767    234.75756 
   11400    76.581999    -888.2806    58648.467   -12763.143    925.43249   -13688.575    30.327322    239.92537 
   11450    76.306953   -861.55063    58663.397   -12741.852    922.10878   -13663.961    30.292549    239.06367 
   11500    76.801702   -570.24978    58712.196   -12739.537    928.08743   -13667.625    30.551056    240.61368 
   11550    77.364873   -991.56595    58780.116   -12762.839     934.8929   -13697.732    30.743761    242.37805 
   11600    77.204186   -1026.9075     58804.72   -12744.745    932.95113   -13677.696    30.715746    241.87463 
   11650    77.559705   -1467.0349     58829.45   -12697.005     937.2473   -13634.253    30.905884    242.98844 
   11700    73.954143   -815.77512    58771.716   -12743.612    893.67695   -13637.289    31.206088     231.6925 
   11750     76.32131   -1077.5585    58791.133   -12719.381    922.28228   -13641.664    31.659031    239.10865 
   11800    80.259252    -708.0686    58823.669   -12684.855    969.86917   -13654.724    31.677359    251.44591 
   11850    78.273064   -1101.3453    58820.013    -12686.55    945.86767   -13632.418    31.622431    245.22334 
   11900    78.185345   -1111.4815    58793.207   -12704.731    944.80766   -13649.538    31.751051    244.94852 
   11950    75.182124   -1210.0163    58744.272    -12722.52    908.51611   -13631.037    31.677838    235.53967 
   12000     77.66946   -1408.8263    58733.836   -12720.227     938.5736     -13658.8    31.776073     243.3323 
   12050     74.27996   -1100.9176    58682.763   -12731.676    897.61419    -13629.29    31.898003    232.71326 
   12100    74.957823   -764.73415    58659.557   -12729.656    905.80562   -13635.462    32.195192    234.83695 
   12150    74.280452   -1085.4913    58633.487   -12752.852    897.62013   -13650.472    32.308016     232.7148 
   12200    76.652145   -1474.6868    58572.567   -12736.043    926.28015   -13662.323    32.478939    240.14513 
   12250    76.668911   -1088.0283    58576.519   -12716.422    926.48275   -13642.904    32.429383    240.19765 
   12300    78.797848   -833.00158    58601.137   -12720.503    952.20927   -13672.712     32.02116    246.86745 
   12350    77.498133   -719.91454    58640.953   -12709.018    936.50324   -13645.521    32.283258    242.79554 
   12400    75.679703   -1074.7596    58689.245    -12719.88    914.52896   -13634.409    32.614782    237.09854 
   12450    75.767356   -1191.0849    58668.319   -12704.683    915.58818   -13620.272    32.702945    237.37315 
   12500    78.357735   -872.21023     58693.53   -12710.033    946.89085   -13656.924    32.819872    245.48861 
   12550    77.933804   -803.39803    58750.889   -12711.429    941.76798   -13653.197    32.885365    244.16046 
   12600    77.657106   -1059.3425    58779.565   -12693.002     938.4243   -13631.426    32.977613    243.29359 
   12650    77.697669   -1283.2707    58837.759   -12677.768    938.91448   -13616.682     33.00185    243.42067 
   12700    77.017572   -1190.0943    58800.299   -12683.084    930.69605    -13613.78    32.995845    241.28998 
   12750    77.080335   -750.13046    58797.021   -12697.336    931.45449   -13628.791    33.140154    241.48661 
   12800    76.818539   -1375.7722    58804.237   -12700.936    928.29089   -13629.227    33.335184    240.66643 
   12850    77.769306   -1139.0326     58815.74   -12711.597    939.78015   -13651.377    33.497031    243.64511 
   12900    78.017185   -1140.0847    58810.049   -12705.049    942.77558   -13647.825    33.992789    244.42169 
   12950    76.073073   -1037.1621    58814.468   -12705.782    919.28253   -13625.065    33.949923    238.33094 
   13000     74.73861   -1333.0418    58733.612   -12691.956     903.1566   -13595.112    33.914335    234.15017 
   13050    78.048299   -989.60123    58684.175   -12658.353    943.15156   -13601.504    34.034121    244.51917 
   13100    76.921088   -1040.0549    58707.137   -12697.522    929.53012   -13627.052    34.421533    240.98771 
   13150    77.296644   -1016.4564    58667.874   -12702.518    934.06841   -13636.586    34.533082    242.16429 
   13200    78.087579   -1042.5308    58674.792   -12705.095    943.62623   -13648.722    34.742299    244.64223 
   13250     78.41734   -1351.6075    58671.361   -12710.495    947.61113   -13658.106    34.953298    245.67535 
   13300    75.862969   -857.47203    58651.448    -12742.86    916.74359   -13659.603    35.044741     237.6727 
   13350    74.262344   -1052.1161    58639.931   -12748.968    897.40131   -13646.369    34.680443    232.65807 
   13400    76.224883   -971.01012    58677.403   -12748.981    921.11703   -13670.098    34.824562    238.80655 
   13450    79.924863   -1111.6036    58714.231   -12712.689    965.82834   -13678.518    34.904586    250.39829 
   13500    79.349792   -1232.9307    58670.183   -12714.709    958.87907   -13673.588    34.947222    248.59664 
   13550     77.59546   -932.10849    58664.738    -12732.21    937.67937    -13669.89    34.793816    243.10046 
   13600    78.395492   -1162.8302    58725.619   -12745.407    947.34712   -13692.754    34.807335     245.6069 
   13650    76.538862   -1108.8393    58719.709    -12752.17    924.91122   -13677.082    35.032241    239.79022 
   13700    73.299619   -1047.2323     58756.74   -12778.676    885.76755   -13664.443    35.501871    229.64193 
   13750    79.748981   -925.68124    58749.892   -12722.039    963.70295   -13685.742    35.501403    249.84727 
   13800    76.541323    -1118.579    58820.875   -12758.915    924.94096   -13683.856    36.054928    239.79793 
   13850    76.080909   -905.36464    58814.419   -12771.393    919.37722    -13690.77     35.92085    238.35549 
   13900    73.860541   -1141.6498    58781.652   -12735.634    892.54585    -13628.18    35.827273    231.39925 
   13950    75.292782   -802.57032    58772.166   -12746.763    909.85333   -13656.616    36.028026    235.88635 
   14000    74.360643   -1136.9717    58793.119   -12772.569    898.58917   -13671.158    35.932378    232.96603 
   14050    74.939582    -975.2717     58819.84   -12743.902    905.58519   -13649.487    36.223344     234.7798 
   14100    81.060964    -1016.946    58795.313   -12723.651    979.55722   -13703.209    36.413487    253.95761 
   14150    77.966501   -984.56996    58765.126   -12705.212    942.16309   -13647.375    36.603142     244.2629 
   14200    77.394452   -1223.0222    58737.691   -12705.537    935.25035   -13640.787    36.757722    242.47072 
   14250     79.67093   -498.78682    58697.881   -12702.524    962.75976   -13665.284    36.746697    249.60274 
   14300    79.647026   -1103.8752    58680.032   -12711.001     962.4709   -13673.471    36.970704    249.52785 
   14350    77.127542   -850.63038    58647.194    -12708.49    932.02495   -13640.515    36.937737    241.63451 
   14400     78.56806   -998.40383    58622.773   -12725.101    949.43246   -13674.533      37.0935    246.14754 
   14450     75.95632   -746.35312    58613.605   -12719.025    917.87166   -13636.896    37.399757    237.96516 
   14500    79.514547   -1116.4946    58601.592   -12695.394    960.87001   -13656.264    37.468438    249.11281 
   14550    80.008313   -1098.2259     58604.14   -12731.872    966.83678   -13698.709    37.621386    250.65974 
   14600    77.924938   -1044.9671    58564.404   -12769.061    941.66084   -13710.722    37.534149    244.13269 
   14650    77.169207   -1069.9598    58605.158   -12799.463    932.52843   -13731.992    37.463038    241.76504 
   14700    75.717357   -1048.9464    58534.197   -12780.682    914.98398   -13695.666    37.378222    237.21651 
   14750    77.137268   -1053.6779    58525.993   -12808.768    932.14247    -13740.91    37.415744    241.66498 
   14800    74.635339   -1012.5777    58497.216   -12828.789    901.90865   -13730.698    37.726563    233.82663 
   14850    73.850526   -1304.3831     58568.29   -12811.901    892.42482   -13704.326    37.940518    231.36788 
   14900    76.595101   -1117.0206    58578.081   -12809.415    925.59082   -13735.006    38.016616    239.96641 
   14950    75.479888   -1153.6848    58618.013    -12801.07    912.11436   -13713.185    38.087756    236.47254 
   15000    75.506122   -963.64131    58602.194   -12806.769    912.43137     -13719.2    38.442222    236.55473 
   15050    75.948371   -945.86218    58603.503   -12789.394    917.77561    -13707.17    38.826425    237.94026 
   15100    75.413938   -1044.7444    58631.734   -12792.594    911.31741   -13703.912    38.863534    236.26592 
   15150    75.421758   -1455.1347    58597.003   -12759.616     911.4119   -13671.028    38.875588    236.29042 
   15200     78.65415   -1131.6599    58580.678   -12750.542    950.47279   -13701.015    38.782748    246.41725 
   15250    76.698768   -824.04598    58545.727   -12752.495    926.84355   -13679.339    38.883204    240.29119 
   15300    77.676557    -743.1836    58625.337   -12778.205    938.65935   -13716.864    38.858091    243.35453 
   15350    75.909778    -1203.272     58648.96   -12789.096    917.30924   -13706.405    39.014815    237.81935 
   15400    74.466564   -685.77556    58719.553   -12802.866    899.86914   -13702.736    39.060571    233.29787 
   15450    79.087886     -1011.11    58803.192   -12767.529    955.71415   -13723.243    39.225456    247.77611 
   15500    74.608938   -1071.6738    58852.961   -12787.752    901.58962   -13689.342    39.388028    233.74392 
   15550    73.569724   -1350.1829    58862.815   -12834.419    889.03155   -13723.451    39.440575    230.48815 
   15600    77.053617   -1178.8872      58856.3   -12833.578    931.13162    -13764.71    39.283641    241.40291 
   15650    74.236239   -1139.1793    58837.659   -12819.268    897.08585   -13716.354    39.409769    232.57629 
   15700    73.453084    -1175.319    58805.731   -12828.111    887.62204   -13715.733    39.357609    230.12272 
   15750    75.892865   -1093.3103    58839.555   -12811.459    917.10485   -13728.564    39.373164    237.76636 
   15800    72.419997   -1102.0146    58832.167   -12806.446    875.13801   -13681.584    39.716641    226.88614 
   15850    77.329095   -1147.7353    58879.873   -12832.788    934.46055   -13767.249     39.62432    242.26596 
   15900    74.463544   -712.27473    58879.764   -12871.328    899.83266   -13771.161    39.410141    233.28842 
   15950     73.71202   -998.92869    58879.508   -12859.123    890.75109   -13749.874    39.518155    230.93395 
   16000    73.667997   -976.41879    58908.201   -12855.667     890.2191   -13745.886    39.631921    230.79603 
   16050    75.329784   -1315.9475    58936.128   -12846.538    910.30047   -13756.838    39.672069    236.00227 
   16100    73.580294   -1071.4622    58891.799   -12868.977    889.15928   -13758.137    39.432642    230.52126 
   16150    73.254529   -1570.3703    58868.702   -12849.709    885.22267   -13734.932      39.6266    229.50066 
   16200    75.708745   -1065.4653    58807.704   -12812.167    914.87992   -13727.047    39.977998    237.18953 
   16250    77.045745   -876.76497     58817.21   -12824.132    931.03649   -13755.169    40.355564    241.37824 
   16300     73.86609   -1078.2355    58811.854   -12835.908    892.61289   -13728.521    40.740259    231.41664 
   16350    72.766121   -801.70895    58815.026   -12870.674    879.32064   -13749.995    40.845327    227.97052 
   16400    73.243275   -1220.5455    58827.432    -12863.07    885.08668   -13748.156    40.990989    229.46541 
   16450    73.754817   -741.01843    58882.775   -12832.387    891.26825   -13723.655    41.044073    231.06803 
   16500    77.590833    -937.1061    58887.005   -12785.077    937.62345   -13722.701    41.236023    243.08596 
   16550    76.596899   -922.20372    58908.857    -12772.09    925.61254   -13697.702    41.563362    239.97205 
   16600    76.816361   -1056.7319    58909.628   -12808.106    928.26457   -13736.371    41.467977     240.6596 
   16650    76.679937   -905.44647     58910.43   -12810.855      926.616   -13737.471    41.605626     240.2322 
   16700    75.724522    -759.8513    58935.199   -12797.986    915.07057   -13713.056    42.045336    237.23896 
   16750    76.035252   -1165.0737    58931.447   -12835.199     918.8255   -13754.025     42.07865    238.21245 
   16800    73.727409   -940.77977    58928.558   -12849.552    890.93704   -13740.489    42.145433    230.98216 
   16850    76.849885   -967.06227    58964.631   -12810.094    928.66968   -13738.764    42.430576    240.76463 
   16900    78.989514   -1098.1878    59022.589    -12788.09    954.52539   -13742.616    42.346174    247.46792 
   16950    77.026826   -992.86022    59021.636   -12838.575    930.80788   -13769.383    42.085986    241.31898 
   17000    77.294103    -633.7003    59010.828   -12823.786     934.0377   -13757.824     41.97102    242.15633 
   17050    76.285564   -790.11162    59073.211   -12807.283    921.85032   -13729.134    42.085255    238.99666 
   17100    77.875987   -884.86183    59061.244    -12785.63    941.06931   -13726.699    42.156177    243.97933 
   17150    76.327728   -882.65654    59103.261   -12806.257    922.35984   -13728.617    42.170871    239.12876 
   17200    79.128863   -936.54708    59176.143   -12783.208    956.20932   -13739.417    42.273255    247.90449 
   17250    78.072469   -783.30386    59199.114   -12749.871    943.44364   -13693.315    42.390502    244.59489 
   17300    78.765612   -1078.4715    59177.367   -12775.003    951.81972   -13726.822     42.18995    246.76645 
   17350    75.037905   -962.83691    59155.905   -12768.425    906.77335   -13675.199    42.419299    235.08784 
   17400    76.628249   -1190.0492    59148.345   -12786.947    925.99139   -13712.939    42.353005    240.07026 
   17450    76.509068   -965.39051    59120.313   -12816.159    924.55119    -13740.71    42.153099    239.69688 
   17500    77.479253   -1016.1282    59088.775   -12824.594    936.27509    -13760.87    42.276959    242.73639 
   17550    76.901533   -539.17357    59066.772   -12811.955    929.29381   -13741.249    42.249379    240.92644 
   17600    76.509188   -823.88593    59091.743   -12807.184    924.55263   -13731.737    42.491171    239.69725 
   17650    75.005085   -1228.8262    59125.165   -12838.241    906.37674   -13744.617    42.619224    234.98502 
   17700    74.663237   -862.68117    59143.289   -12844.628    902.24578   -13746.873    42.776851    233.91404 
   17750    74.863085   -967.90743    59118.734   -12826.556    904.66078   -13731.216    42.888492    234.54014 
   17800    75.016187   -752.89614     59065.31   -12808.194     906.5109   -13714.705    42.631429     235.0198 
   17850    75.771436   -1273.4692    59023.855   -12786.091    915.63749   -13701.729    42.558692    237.38594 
   17900    76.411569    -1112.878    58974.287   -12778.234    923.37298   -13701.607    42.823837    239.39142 
   17950    76.948341   -699.12753    58971.414   -12775.504    929.85945   -13705.363     42.92665    241.07309 
   18000    75.432021   -1138.5351     58998.81   -12796.142    911.53592   -13707.677    43.126026    236.32257 
   18050    77.569779   -685.35974     59023.96   -12771.978    937.36902   -13709.347    43.132523       243.02 
   18100    76.005561   -978.56201     59042.42   -12785.821     918.4667   -13704.288    43.319953    238.11943 
   18150    77.190897   -1279.1243    58967.576   -12806.378    932.79054   -13739.169    43.309468      241.833 
   18200    77.372924   -1224.8666    58910.162   -12758.801    934.99019   -13693.791    43.337366    242.40327 
   18250    76.439142   -1122.3915    58873.862   -12780.076    923.70618   -13703.782    43.351339    239.47781 
   18300    78.087031   -1070.8778    58745.884   -12765.663    943.61961   -13709.282    43.522259    244.64051 
   18350    76.453383   -1321.9916    58727.116   -12758.927    923.87828   -13682.805    43.595729    239.52242 
   18400    75.508084   -740.49971    58694.869   -12750.158    912.45508   -13662.613    43.715566    236.56087 
   18450    77.563958   -1048.7803    58715.526   -12764.524    937.29868   -13701.823     43.67148    243.00177 
   18500    77.831224   -925.40166    58722.761   -12755.274    940.52838   -13695.803    44.018446    243.83909 
   18550    77.162807   -1009.0246    58731.068   -12771.916     932.4511   -13704.367    44.124118    241.74499 
   18600    79.740103   -855.14988    58756.058   -12772.558    963.59567   -13736.154    44.166991    249.81946 
   18650    76.950176   -1281.0718    58747.804   -12764.932    929.88162   -13694.814     44.41633    241.07884 
   18700    80.189796    -1068.753    58733.269   -12760.943    969.02985   -13729.973    44.317428    251.22831 
   18750    76.166093   -600.03968    58775.016   -12783.709    920.40661   -13704.116    44.324249    238.62237 
   18800    76.161504   -1044.2594    58774.663   -12801.122    920.35114   -13721.473    44.293496    238.60799 
   18850    74.771872   -906.77299     58772.45   -12828.841    903.55855     -13732.4    44.581856    234.25438 
   18900    75.201255   -1176.4125    58732.139   -12824.519     908.7473   -13733.266    44.847087     235.5996 
   18950    73.620489   -928.08593    58763.141   -12822.768      889.645   -13712.413    44.964979    230.64719 
   19000    78.292347   -1142.2012    58780.443   -12807.966    946.10069   -13754.067    45.479328    245.28375 
   19050    76.733969   -1082.8263    58765.485   -12818.384    927.26893   -13745.653    45.678074    240.40148 
   19100    76.053658    -875.1115    58742.237   -12849.345    919.04791   -13768.393    45.587974    238.27012 
   19150     74.93254   -779.57921     58761.65   -12856.821     905.5001   -13762.321    45.699968    234.75774 
   19200    73.004149   -853.61399    58853.961     -12879.2    882.19703   -13761.397    45.612677    228.71625 
   19250    74.367971   -1305.6755    58864.875   -12893.386    898.67772   -13792.064    45.776006    232.98899 
   19300    75.190253   -1250.6644    58846.426   -12875.343    908.61435   -13783.957    46.265601    235.56514 
   19350    75.912235    -1054.441    58897.675   -12858.362    917.33893   -13775.701    46.725446    237.82705 
   19400    75.273422   -959.54271    58956.111   -12855.745    909.61939   -13765.364     46.84349     235.8257 
   19450    73.987505   -1258.2185    58939.675    -12882.96    894.08009    -13777.04    46.846068    231.79702 
   19500    73.692513   -1314.4874    58926.635   -12882.144    890.51536    -13772.66    46.945111    230.87283 
   19550     76.51419   -672.78277    58866.896   -12873.779    924.61308   -13798.392    46.834344    239.71293 
   19600    75.096955   -1018.3719    58849.126   -12873.989    907.48692   -13781.476    47.164475    235.27284 
   19650     74.49114   -706.73487    58844.329   -12854.635    900.16613   -13754.801    47.217955    233.37487 
   19700    73.696332   -974.69075    58939.612   -12831.564    890.56151   -13722.126    47.253967     230.8848 
   19750     76.85002   -875.39173    58940.092   -12839.298    928.67131   -13767.969    47.124057    240.76505 
   19800    75.970591   -900.66152    58972.268   -12827.164    918.04412   -13745.209    47.395016    238.00987 
   19850    75.746728    -1049.463    59016.044   -12811.894    915.33891   -13727.233    47.637605    237.30853 
   19900    75.160941   -793.61223     59021.06   -12822.802    908.26014   -13731.062    47.948751     235.4733 
   19950    75.975629   -1011.8466    59066.281    -12803.27      918.105   -13721.375    48.071206    238.02566 
   20000    79.368452   -1447.2124    59000.555   -12771.174    959.10456   -13730.279    48.410318     248.6551 
   20050    77.072552   -1167.2488    59006.276   -12776.982    931.36044   -13708.342    48.397955    241.46223 
   20100    78.218539    -1016.322    59017.731   -12784.894    945.20877   -13730.103    48.629743    245.05252 
   20150    78.521481   -1019.8074    59042.165   -12785.809    948.86959   -13734.678    48.527778    246.00161 
   20200     76.66375   -1309.4079    59038.907   -12777.552    926.42039   -13703.972      48.8071    240.18149 
   20250    78.513942   -1190.3861    59015.346   -12785.994    948.77849   -13734.773    48.987582    245.97799 
   20300    76.184563   -1057.6971    59023.375   -12787.114    920.62979   -13707.744    49.162728    238.68023 
   20350    77.261987   -1260.8412    59043.335   -12811.307     933.6496   -13744.957    49.110378    242.05571 
   20400    76.225989   -970.29647    58991.804   -12825.165     921.1304   -13746.296    49.051453    238.81001 
   20450    74.900092   -1240.3439    58950.846   -12825.135    905.10798   -13730.243    49.207308    234.65608 
   20500    77.521739   -1054.2045    58913.224   -12826.118     936.7885   -13762.906    49.334089     242.8695 
   20550    75.398982   -611.35463    58968.308   -12819.169    911.13667   -13730.305    49.432634    236.21907 
   20600    75.370998   -968.53188    59012.797   -12809.749    910.79851   -13720.547    49.552735     236.1314 
   20650    79.226668   -777.69304    59013.921   -12798.901    957.39122   -13756.292    49.612288    248.21091 
   20700    76.243483    -892.5582    58975.654   -12803.753     921.3418   -13725.095    49.471201    238.86482 
   20750    75.144296   -990.64241     58948.47   -12817.992      908.059   -13726.051    49.239144    235.42116 
   20800    76.760353   -896.77303    58995.048   -12858.605    927.58776   -13786.193    49.443005    240.48413 
   20850    76.646788   -1347.4356    59011.091   -12837.393    926.21542   -13763.609    49.847934    240.12834 
   20900    76.455286   -1138.7585    59010.301   -12835.397    923.90127   -13759.299    49.685841    239.52838 
   20950    76.592145   -983.66643    58999.093   -12841.172     925.5551   -13766.728    50.061171    239.95715 
   21000    78.031518   -1165.6868      59014.5   -12804.124    942.94878   -13747.073    50.226083     244.4666 
   21050    76.430126   -1444.4846    58979.222   -12816.179    923.59723   -13739.776    50.145947    239.44956 
   21100    78.215793   -1262.6989    58938.645    -12839.69     945.1756   -13784.865    50.193619    245.04392 
   21150    76.905662    -1220.043    58932.933    -12820.62     929.3437   -13749.964    50.223643    240.93938 
   21200    76.670031   -959.96779    58931.566   -12841.743    926.49629   -13768.239     50.25752    240.20116 
   21250    76.287014   -1029.9104    58973.609   -12847.027    921.86784   -13768.895    50.499886     239.0012 
   21300    73.266273    -989.4458    58997.046   -12854.996    885.36459   -13740.361    50.892511    229.53746 
   21350    79.282832   -1165.7083    58977.971   -12846.567    958.06991   -13804.637    51.107622    248.38686 
   21400    79.003747   -1038.4059    58949.469   -12810.684    954.69739   -13765.382    51.225847    247.51251 
   21450    76.723009   -1161.8782    58924.888   -12837.676    927.13649   -13764.813    50.730043    240.36714 
   21500    78.972703   -1294.3091    58904.431   -12815.846    954.32225   -13770.169    50.728336    247.41525 
   21550    75.268091   -1103.0519    58866.087   -12836.388    909.55496   -13745.943    50.961978    235.80899 
   21600     77.50719   -1175.6624    58833.957   -12827.248    936.61269   -13763.861    51.348703    242.82392 
   21650    74.839816   -899.38019    58850.119   -12831.112     904.3796   -13735.492    51.562791    234.46724 
   21700    76.076872   -711.69234    58857.538   -12828.638    919.32844   -13747.966    51.590332    238.34284 
   21750    78.126769   -1091.6833    58943.492   -12820.971    944.09981   -13765.071    52.028068    244.76501 
   21800    78.722245   -1349.8142    58936.009   -12796.884    951.29566   -13748.179    52.167366    246.63059 
   21850    73.974745   -1070.3279     58911.28   -12806.525    893.92591   -13700.451    52.624125    231.75705 
   21900    74.864896   -990.61781     58931.74   -12795.311    904.68268   -13699.994    52.785366    234.54582 
   21950    79.192329   -1001.3658    58864.534   -12766.855    956.97626   -13723.831    52.654313    248.10333 
   22000    78.151099   -1038.5934    58831.438   -12776.688    944.39382   -13721.082    52.726939    244.84123 
   22050    77.656894   -809.47669    58813.206   -12783.084    938.42175   -13721.506    52.622546    243.29293 
   22100    79.160051   -1070.6063    58779.337   -12765.826    956.58619   -13722.412    52.527436     248.0022 
   22150    78.819966   -1006.0087    58755.578   -12777.893    952.47655   -13730.369     52.83199    246.93674 
   22200    77.326634   -872.86348    58692.567   -12776.495    934.43082   -13710.926    52.932364    242.25825 
   22250    77.871529   -1207.3116     58708.82   -12805.411    941.01544   -13746.427    52.728441    243.96536 
   22300    77.725689    -971.0566    58679.782   -12801.197    939.25308    -13740.45    52.856488    243.50846 
   22350    80.313967   -932.24492    58659.084   -12817.259    970.53035   -13787.789    53.002973    251.61733 
   22400    75.268998    -1042.587    58702.371   -12847.526    909.56592   -13757.092    53.227082    235.81184 
   22450    77.679654   -500.80754    58759.397   -12815.687    938.69678   -13754.384    53.144745    243.36423 
   22500    75.654679   -942.68106    58815.262   -12830.768    914.22658   -13744.995    53.300036    237.02015 
   22550    76.760365   -1213.0432    58846.729   -12821.174     927.5879   -13748.762    53.580619    240.48417 
   22600    75.006406    -1167.638    58823.561   -12815.396    906.39271   -13721.788    53.712066    234.98916 
   22650    76.012843   -948.01403    58817.334   -12783.616     918.5547   -13702.171     53.91778    238.14225 
   22700    75.738174   -1086.5507    58856.848   -12778.394    915.23555    -13693.63    54.086645    237.28173 
   22750    77.661066   -1378.4057    58854.675   -12774.133    938.47216   -13712.605    54.220292      243.306 
   22800    77.717187   -1027.4055    58869.586   -12759.232    939.15033   -13698.382    54.609544    243.48182 
   22850    79.529601   -853.74215     58888.16   -12768.831    961.05191   -13729.882    54.884896    249.15997 
   22900     75.90758   -1160.5182    58941.349    -12754.96    917.28268   -13672.242    55.069822    237.81246 
   22950    76.887493   -1063.6592    58950.477   -12763.562    929.12415   -13692.687    55.513266    240.88245 
   23000    77.371641    -1011.951    58979.995   -12775.092    934.97469   -13710.067     55.50865    242.39925 
   23050    76.621029    -1123.961     59025.67   -12769.916    925.90414    -13695.82    55.691481    240.04764 
   23100    79.200785   -988.47381    59079.493   -12734.884    957.07844   -13691.963     55.83662    248.12982 
   23150    77.146183   -1055.7426    59096.858    -12749.82    932.25021   -13682.071    56.197727    241.69291 
   23200    79.224118   -1209.9184    59137.716   -12736.665    957.36039   -13694.025    56.334745    248.20292 
   23250    80.346978   -1020.4927    59085.392   -12735.852    970.92927   -13706.781     56.39336    251.72075 
   23300    80.287158   -986.51895    59088.516   -12753.611    970.20639   -13723.817    56.478653    251.53334 
   23350    77.894218   -1115.7774    59066.136   -12775.437    941.28962   -13716.727    56.732687    244.03645 
   23400     76.07735   -1083.5288     59025.82   -12790.906    919.33421    -13710.24    56.707012    238.34434 
   23450    77.085387   -1472.7629     59023.21   -12800.935    931.51554   -13732.451    56.916475    241.50244 
   23500    78.032855   -1271.2704    58931.636   -12796.299    942.96493   -13739.264    56.917193    244.47078 
   23550    75.970527   -1349.2766     58865.46   -12812.093    918.04334   -13730.136    57.078562    238.00967 
   23600    76.480452    -1393.722    58780.638   -12793.952    924.20537   -13718.157    57.329043    239.60723 
   23650    77.626337   -792.06536    58759.463   -12786.462    938.05248   -13724.515    57.596138    243.19719 
   23700    77.655426   -808.08624    58757.639   -12783.931      938.404   -13722.335    57.667256    243.28833 
   23750    76.669224   -1034.1963     58782.71   -12765.236    926.48654   -13691.723    57.813018    240.19864 
   23800     78.21483   -732.59181    58790.568   -12768.263    945.16395   -13713.427    57.816884     245.0409 
   23850    76.175717   -1034.3761    58808.859   -12770.215     920.5229   -13690.738    57.632159    238.65252 
   23900    75.604798   -757.99882    58811.633   -12775.919     913.6238   -13689.542    58.073057    236.86387 
   23950    80.736797   -1267.9554    58815.797   -12795.836    975.63992   -13771.476    57.963472    252.94202 
   24000     75.65047   -939.06471    58861.976   -12782.235    914.17571    -13696.41    58.244916    237.00696 
   24050    76.154917   -976.49329    58910.852   -12786.581    920.27155   -13706.853    58.635399    238.58735 
   24100    75.773376   -1156.6618    58930.258   -12811.143    915.66093   -13726.804    58.407358    237.39201 
   24150    75.226939   -1112.2754    58957.201   -12839.799    909.05767   -13748.857    58.388613    235.68007 
   24200    69.988424   -691.48604    58992.817    -12894.65    845.75439   -13740.404    58.836787    219.26822 
   24250    73.262324   -898.61926    59014.479   -12885.829    885.31686   -13771.146    58.932196    229.52509 
   24300    73.252523   -1214.5919    58983.861   -12883.035    885.19843   -13768.234     58.92753    229.49438 
   24350     76.83404   -905.46461    58969.657   -12873.884    928.47821   -13802.362    59.213868    240.71499 
   24400     75.71961   -1225.0268    58941.206   -12864.315    915.01121   -13779.326    59.409235    237.22357 
   24450    75.378161    -935.6258    58876.383   -12849.126    910.88507   -13760.011    59.607496    236.15384 
   24500    76.783432   -1382.7623    58850.473   -12855.939    927.86665   -13783.806    59.919556    240.55644 
   24550    78.290965   -1056.8627    58828.014   -12837.151    946.08398   -13783.235     60.16781    245.27942 
   24600    77.256146   -811.96114      58840.9   -12818.263    933.57902   -13751.842    59.870393    242.03742 
   24650    73.282992   -1271.5797    58845.083   -12850.766    885.56663   -13736.332     60.03329    229.58984 
   24700    76.521878   -857.14376    58857.524     -12849.9    924.70598   -13774.606     59.51904    239.73701 
   24750    75.281656   -1207.7807     58876.52   -12885.319    909.71889   -13795.038    59.590865    235.85149 
   24800    76.581695   -832.25109    58841.187   -12857.571    925.42883       -13783     59.22064    239.92442 
   24850    77.064388   -1154.6903    58803.838   -12828.619    931.26178    -13759.88    59.549384    241.43665 
   24900    75.691275    -759.1632    58822.479   -12844.712    914.66881   -13759.381    59.472197     237.1348 
   24950      77.7976   -1048.5776    58874.237   -12824.509    940.12206   -13764.631    59.486134    243.73375 
   25000    77.545348   -839.11752    58934.742   -12824.212     937.0738   -13761.285    59.559651    242.94346 
   25050    74.356153   -1142.4894    58918.755   -12813.304    898.53492   -13711.839    59.617714    232.95197 
   25100    76.546398   -719.42344     58951.44   -12842.796    925.00228   -13767.798    59.657906    239.81383 
   25150    79.232949   -1392.0702    58961.038   -12818.589    957.46711   -13776.056    59.584683    248.23058 
   25200    78.787528   -931.34422    58947.973   -12832.703    952.08455   -13784.788    59.636489    246.83511 
   25250    77.611858   -1224.0554    58909.495   -12811.696    937.87752   -13749.573    59.754672    243.15183 
   25300    76.480629   -1317.2417    58908.688    -12804.15    924.20752   -13728.357    59.451173    239.60778 
   25350     77.03882   -1435.1046    58898.601   -12810.163    930.95282   -13741.116    59.662129    241.35655 
   25400    76.683335   -1358.8409     58866.91   -12845.388    926.65706   -13772.045    60.170125    240.24284 
   25450    75.569005   -1277.1883    58859.717   -12850.113    913.19127   -13763.304    60.570355    236.75174 
   25500    74.315663   -1279.3706    58822.106   -12878.577    898.04563   -13776.622    60.272883    232.82512 
   25550    75.045097   -1040.4936    58822.252   -12856.616    906.86025   -13763.477    59.992343    235.11037 
   25600    78.264132   -1080.2147    58847.084   -12834.809    945.75974   -13780.569    60.305798    245.19536 
   25650    76.069636   -866.64045    58843.281   -12847.271    919.24099   -13766.512    60.202793    238.32017 
   25700    76.942586   -1023.0279    58800.585   -12858.996     929.7899   -13788.786    60.289818    241.05506 
   25750    76.909446   -946.83528    58839.586   -12839.647    929.38942   -13769.036    60.579845    240.95123 
   25800    76.273099   -1479.6973    58851.182   -12823.469    921.69968   -13745.169    60.914977    238.95761 
   25850    78.415108   -1306.6862    58877.709   -12815.823    947.58416   -13763.407    61.089791    245.66835 
   25900    77.512635   -864.52133    58901.346   -12799.374    936.67849   -13736.053    61.349406    242.84098 
   25950    75.495395   -1089.9454    58942.331   -12780.379    912.30175   -13692.681    61.341441    236.52112 
   26000     76.16734   -1076.3963    58957.189   -12780.502    920.42167   -13700.923    60.899264    238.62627 
   26050    75.963314   -1231.4006    58943.669   -12805.979    917.95617   -13723.935    60.750988    237.98707 
   26100    75.935216   -1149.5488    58978.004   -12816.947    917.61664   -13734.564     60.75656    237.89905 
   26150    72.010074   -979.72819    59005.492   -12843.122    870.18442   -13713.306    60.762885    225.60189 
   26200    74.100703   -982.40641    59000.606   -12835.719      895.448   -13731.167     60.71059    232.15166 
   26250    77.394465   -1179.3805     58984.21   -12841.757     935.2505   -13777.008    61.171897    242.47076 
   26300    75.920673   -1118.5718    58990.859   -12812.225    917.44089   -13729.666    61.151994    237.85348 
   26350    76.803196   -1344.9534    58961.837   -12771.223    928.10549   -13699.328    61.499971    240.61836 
   26400    74.011869   -1199.9579      58940.4     -12785.5    894.37452   -13679.875    61.631924    231.87335 
   26450    76.847796   -1298.8331     58893.36   -12802.232    928.64444   -13730.876    61.884339    240.75809 
   26500    76.395848   -875.16676    58888.491   -12803.469      923.183   -13726.652    62.024167    239.34217 
   26550    75.691212   -1268.7141    58842.268   -12799.914    914.66804   -13714.582    62.230232     237.1346 
   26600    74.023288   -1019.8104    58880.863    -12815.86    894.51251   -13710.373    62.077515    231.90913 
   26650    79.438354   -958.18568    58858.524   -12788.362    959.94927   -13748.311    61.910774     248.8741 
   26700    77.824359   -1278.4741    58891.556   -12837.513    940.44542   -13777.958    61.676262    243.81758 
   26750    75.880856   -1052.9964    58931.506   -12821.841    916.95974   -13738.801    61.736998    237.72874 
   26800    76.545509   -1041.5253    58942.236   -12827.772    924.99154   -13752.764    61.648766    239.81105 
   26850    75.453882   -1243.1254    58943.777   -12848.927     911.8001   -13760.727    61.847493    236.39106 
   26900    74.145784   -994.11647    58962.903   -12845.238    895.99278   -13741.231    62.005134     232.2929 
   26950    76.376509   -1387.3406    58956.967    -12832.35    922.94931     -13755.3    61.997136    239.28158 
   27000    76.710141   -893.69443    58959.746   -12815.551    926.98099   -13742.532    62.194514    240.32683 
   27050     76.93541   -908.85301    58956.449    -12794.31    929.70319   -13724.013    62.421446    241.03258 
   27100    76.728236   -1208.3461    58906.027   -12804.233    927.19965   -13731.433    62.533762    240.38352 
   27150    77.217531   -1294.9056    58871.002   -12788.166     933.1124   -13721.278    62.882669    241.91644 
   27200    78.193035   -787.68054    58864.671   -12793.402    944.90058   -13738.302    62.698417    244.97261 
   27250    79.805815   -809.06644    58906.839   -12789.618    964.38974   -13754.008    63.008457    250.02533 
   27300    79.703637   -1158.6989    58923.359    -12786.82      963.155   -13749.975    63.109647    249.70521 
   27350    79.209215   -1219.7936    58951.441   -12768.195    957.18031   -13725.375     63.41519    248.15623 
   27400    79.505868   -689.32435    58912.403   -12764.442    960.76513   -13725.207    63.374974    249.08562 
   27450    79.306398   -849.06776    58955.894   -12767.756    958.35469    -13726.11    62.975633    248.46069 
   27500    78.857129   -1081.1646    58982.179   -12786.902    952.92562   -13739.828    62.540325    247.05317 
   27550    75.624615   -1069.8538    58978.068   -12817.467    913.86327    -13731.33    62.987819    236.92596 
   27600    75.211458    -1310.334    58964.988   -12866.878     908.8706   -13775.749    63.298556    235.63157 
   27650    74.504023   -1080.0933    58936.098   -12874.835    900.32181   -13775.156    63.417572    233.41523 
   27700    74.115068   -1482.1993    58911.428   -12844.201     895.6216   -13739.823    63.685885    232.19667 
   27750      76.2832   -1023.5129    58861.629   -12848.705    921.82175   -13770.527    63.555441    238.98925 
   27800    71.028992   -1085.6824    58866.956   -12878.632    858.32883   -13736.961    63.848831    222.52823 
   27850    75.384932   -1185.6668    58837.964   -12863.174    910.96689   -13774.141    63.835532    236.17505 
   27900    74.272638   -866.01494    58918.121   -12849.999    897.52571   -13747.525    64.401611    232.69032 
   27950    74.143402   -918.88672    58936.488   -12825.289    895.96399   -13721.253    64.459317    232.28543 
   28000    75.927551   -1207.8191    58906.693   -12800.474    917.52401   -13717.998    64.746696    237.87503 
   28050    77.379397   -1141.3899    58894.452   -12779.007    935.06841   -13714.075    64.699215    242.42355 
   28100    77.172064   -1143.6841    58901.945   -12818.831    932.56296   -13751.394    64.604615    241.77399 
   28150    74.871989   -1045.1724    58926.879    -12831.59    904.76838   -13736.358    64.531654    234.56804 
   28200    78.064275   -1490.4092    58940.274    -12785.18    943.34462   -13728.525    64.624495    244.56922 
   28250    76.379727   -1127.5839    58918.371   -12803.852     922.9882   -13726.841    64.986095    239.29166 
   28300    77.446608   -1287.4879    58880.315   -12784.919     935.8806     -13720.8    65.729797    242.63412 
   28350    75.604934   -1134.9204    58838.551   -12800.951    913.62544   -13714.576    65.929145     236.8643 
   28400    73.788386   -653.33908    58850.496   -12821.309     891.6739   -13712.983    66.099193     231.1732 
   28450     74.73201   -695.50832    58831.855   -12840.825    903.07685   -13743.902    65.671306     234.1295 
   28500    74.364345    -1014.959    58874.784   -12848.045    898.63392   -13746.679    65.576739    232.97763 
   28550    77.574841   -1355.6135    58950.392   -12859.829     937.4302   -13797.259    65.596394    243.03586 
   28600    76.652515   -1078.2683    58966.254   -12838.086    926.28462   -13764.371    65.411878    240.14629 
   28650    77.573589   -801.67159    59035.712   -12805.476    937.41507   -13742.891    65.880592    243.03194 
   28700    75.841872   -629.31519     59066.28   -12820.327    916.48865   -13736.816    66.103137    237.60661 
   28750    76.081321   -791.36137    59075.044   -12830.721     919.3822   -13750.103    66.124718    238.35678 
   28800     74.35571   -1217.0455    59069.597   -12829.772    898.52956   -13728.301    65.991645    232.95058 
   28850    75.916543   -983.46861    59046.307   -12842.216    917.39099   -13759.607    66.064505    237.84054 
   28900    73.825707   -839.51431    59019.913    -12886.16     892.1249   -13778.285    65.663718    231.29012 
   28950    75.300237   -946.40324     59070.72   -12870.328    909.94342   -13780.272    66.020277    235.90971 
   29000     74.45665    -484.7531    59133.138   -12860.538    899.74934   -13760.287    66.286117    233.26681 
   29050    76.345902    -980.5837    59162.203   -12846.409    922.57945   -13768.989      66.3469    239.18569 
   29100    76.397433   -900.38687    59152.394   -12834.713    923.20216   -13757.915    66.357213    239.34714 
   29150    77.449344    -849.5111    59196.919   -12828.196    935.91367    -13764.11    66.168539    242.64269 
   29200    76.162048   -1182.2108    59196.612   -12831.969    920.35773   -13752.327    66.007139    238.60969 
   29250     76.29085   -1550.2188     59174.34   -12859.879    921.91419   -13781.793    66.125132    239.01322 
   29300    74.215235   -1106.5179    59144.975   -12868.384    896.83204   -13765.217    66.186678    232.51048 
   29350    73.110868   -1189.0009    59160.876   -12898.301    883.48664   -13781.787    66.627934    229.05059 
   29400    75.298321   -575.86222    59156.876   -12880.379    909.92027     -13790.3    66.276611    235.90371 
   29450    77.052491   -928.54917    59170.321   -12849.343    931.11801   -13780.461    66.344005    241.39938 
   29500    76.471185    -1165.825    59153.375   -12843.545     924.0934   -13767.638    66.446539     239.5782 
   29550    76.767667    -1197.154    59144.253   -12829.806    927.67614   -13757.482    66.708223    240.50705 
   29600     77.05928   -931.01734    59146.191   -12840.474    931.20006   -13771.674    67.362668    241.42065 
   29650    77.166302   -728.93157     59174.56    -12884.25    932.49333   -13816.743    67.623199    241.75594 
   29700    75.618552   -1212.6004    59203.461   -12871.271    913.79001   -13785.061    67.523819    236.90696 
   29750    75.413895   -978.85092    59215.474    -12880.93    911.31689   -13792.247    67.767066    236.26579 
   29800    76.776451   -1424.4141    59225.647   -12849.402    927.78229   -13777.184    67.837607    240.53457 
   29850    76.193252   -1383.5318    59214.723   -12846.761    920.73479   -13767.495    67.692543    238.70745 
   29900    76.449119   -945.01609    59207.457   -12872.983    923.82675    -13796.81    67.579161    239.50906 
   29950    74.258318   -1128.6443    59222.413    -12875.51    897.35266   -13772.862    67.689256    232.64546 
   30000     79.21152   -1001.6486    59218.909   -12843.368    957.20816   -13800.577    67.683692    248.16345 
   30050    77.661051   -941.22297    59264.238   -12872.226    938.47197   -13810.698    67.391249    243.30595 
   30100    76.295888    -1235.338     59311.72   -12868.256    921.97507   -13790.231    67.461049      239.029 
   30150    75.453498   -927.30365    59276.731   -12883.277    911.79546   -13795.072    67.370891    236.38986 
   30200    74.640338   -979.75948    59320.206   -12876.003    901.96907   -13777.972    67.726394     233.8423 
   30250    76.142389    -1005.577    59318.049   -12844.122    920.12016   -13764.243    68.059792     238.5481 
   30300    76.928437   -1072.7588     59321.76   -12836.547    929.61892   -13766.166    68.157005    241.01073 
   30350    76.574718   -944.45918    59298.374   -12839.775    925.34451    -13765.12    68.094281    239.90255 
   30400    74.481091   -1075.7665    59303.424   -12862.063     900.0447   -13762.107    68.289817    233.34339 
   30450     76.47218   -899.20404    59285.305   -12872.226    924.10542   -13796.331    67.954302    239.58131 
   30500    75.824837   -1022.0577    59305.972   -12841.366    916.28279   -13757.649    68.015419    237.55324 
   30550    76.832713   -835.93934    59316.192   -12849.146    928.46217   -13777.609    68.233168    240.71083 
   30600    78.308834   -805.15188    59351.659   -12824.337    946.29992   -13770.637    68.334252     245.3354 
   30650    77.998515   -1181.8284    59376.547   -12819.915    942.54996   -13762.465    68.693486     244.3632 
   30700    76.819545   -1066.9844     59375.09   -12842.329    928.30305   -13770.632    68.961124    240.66958 
   30750    77.342247   -909.47421    59355.218   -12827.569    934.61948   -13762.189    68.895421    242.30716 
   30800    74.005488   -889.54916    59335.413   -12853.223    894.29741    -13747.52     69.14016    231.85336 
   30850    76.953632   -860.27951    59291.653   -12830.357    929.92338    -13760.28    69.021783    241.08966 
   30900    77.557862   -1030.0121    59295.819   -12863.461    937.22502   -13800.686    69.193439    242.98267 
   30950    76.156196   -1121.1142    59283.835   -12840.459      920.287   -13760.746    69.254307    238.59136 
   31000    76.612145   -1102.5171    59293.244   -12860.643    925.79678   -13786.439    69.192279    240.01981 
   31050    75.236331   -1159.5951    59268.097   -12864.953    909.17117   -13774.125    68.884147     235.7095 
   31100    74.563588   -1096.2891    59268.325   -12894.056    901.04161   -13795.097    68.939796    233.60184 
   31150    74.523379   -1011.6485    59222.443   -12884.823    900.55571   -13785.379     68.82343    233.47587 
   31200    75.767346   -952.37432      59166.4    -12900.01    915.58806   -13815.598    69.095496    237.37312 
   31250    74.423781   -872.48701    59198.563   -12890.762    899.35214   -13790.115    69.411487    233.16384 
   31300    75.160511   -731.56956    59197.552   -12884.902    908.25494   -13793.157    69.188605    235.47196 
   31350    76.220822   -1081.6759    59274.695   -12864.142    921.06796    -13785.21    69.337575    238.79383 
   31400    76.357219    -1143.836    59237.527    -12886.25     922.7162   -13808.966    69.347634    239.22115 
   31450    77.497743   -1135.6958    59137.979   -12898.386    936.49853   -13834.885    69.271245    242.79432 
   31500      79.5286   -762.53538    59078.506   -12873.593    961.03983   -13834.633    69.382148    249.15684 
   31550    77.631414   -979.00284    59069.504   -12858.901    938.11383   -13797.015    69.303214     243.2131 
   31600    77.403534   -1333.4683    59044.279   -12882.669    935.36009   -13818.029    69.609461    242.49917 
   31650    77.536162   -1384.4473    58971.056   -12879.586     936.9628   -13816.549     69.81862    242.91468 
   31700    76.430754    -1200.545    58851.623   -12893.432    923.60481   -13817.037    70.448396    239.45153 
   31750    75.904826   -869.70952    58834.334   -12901.923     917.2494   -13819.172    70.825371    237.80384 
   31800     74.99884   -756.87455    58898.226   -12879.937    906.30128   -13786.238    71.199329    234.96545 
   31850    75.235796   -990.39043    58909.973     -12863.5     909.1647   -13772.665    71.297201    235.70782 
   31900    76.989013   -959.82658     58960.28    -12841.46    930.35093   -13771.811    71.632952    241.20051 
   31950    76.342687   -1203.0826     58960.66   -12841.451     922.5406   -13763.992    71.596695    239.17562 
   32000    75.926785   -848.62182     59011.86   -12864.647    917.51475   -13782.162    71.646321    237.87263 
   32050    76.109414   -1064.0278    59009.739   -12889.339    919.72169   -13809.061    71.722958     238.4448 
   32100    73.312514   -1185.4538    59021.162   -12903.524    885.92337   -13789.447    71.483095    229.68233 
   32150    79.196424   -765.92931     58996.95   -12852.398    957.02574   -13809.424    71.079816    248.11615 
   32200    78.544821   -796.58852     59075.46   -12840.689    949.15164   -13789.841    70.960464    246.07473 
   32250    76.451926   -1237.7974    59028.863   -12825.638    923.86067   -13749.499    70.699213    239.51786 
   32300    76.903976   -725.92203    59063.085   -12816.609    929.32333   -13745.933    70.302573     240.9341 
   32350    76.763648   -914.77791    59172.791   -12817.315    927.62758   -13744.942    70.646819    240.49446 
   32400    78.355192   -940.67869    59218.165   -12829.346    946.86012   -13776.206    70.862898    245.48064 
   32450    76.447706   -835.90986    59282.835   -12828.443    923.80968   -13752.253    71.440542    239.50464 
   32500    76.179389   -1125.2061    59316.241   -12820.442    920.56728   -13741.009    71.655774    238.66402 
   32550    78.195461   -785.97491    59292.068   -12803.778    944.92989   -13748.708     71.63286    244.98021 
   32600    77.360409   -630.58226    59304.733   -12791.352    934.83896    -13726.19    71.760769    242.36406 
   32650    77.623344   -901.07236      59305.6   -12787.762    938.01631   -13725.778     71.47652    243.18782 
   32700    78.556995   -939.94333    59320.266   -12789.639    949.29875   -13738.937    71.408582    246.11287 
   32750    76.533696   -1044.9335    59336.104   -12802.916    924.84879   -13727.765    71.140539    239.77404 
   32800    75.531955   -851.61871    59272.048   -12810.913    912.74355   -13723.656    70.965493    236.63566 
   32850     75.70446   -820.70319    59291.493   -12845.493    914.82814   -13760.321    70.683976    237.17611 
   32900    76.446671   -1320.6142     59283.61   -12829.135    923.79716   -13752.932    71.012831    239.50139 
   32950    74.012476   -1050.6212    59227.981   -12843.663    894.38185   -13738.045    71.522098    231.87525 
   33000    75.240274   -802.01934    59205.685   -12850.147    909.21881   -13759.366    71.532272    235.72185 
   33050    78.812803   -664.73961    59192.957   -12851.995    952.38999   -13804.385    71.760134     246.9143 
   33100    75.683249   -996.23194    59171.662   -12837.149    914.57182   -13751.721     71.99917    237.10965 
   33150    76.755219   -847.28291    59201.171   -12815.866    927.52572   -13743.392    72.034322    240.46805 
   33200    75.779554   -902.52566     59260.18   -12836.732    915.73558   -13752.468     72.15775    237.41137 
   33250    78.012965    -730.6717    59336.468   -12836.139    942.72457   -13778.863    71.967004    244.40847 
   33300    76.465442   -1263.3136    59353.942    -12818.06      924.024   -13742.084    71.826658     239.5602 
   33350     80.46913   -778.84906    59307.201   -12792.181    972.40538   -13764.587    71.993061    252.10344 
   33400    78.828108   -859.67566    59313.376   -12806.916    952.57493   -13759.491    71.911183    246.96225 
   33450    77.178121   -765.63258    59343.662   -12808.344    932.63615    -13740.98    72.019732    241.79297 
   33500    77.512892   -433.98267    59383.354   -12801.242    936.68159   -13737.924    72.135012    242.84178 
   33550     78.19881   -1307.1616    59400.801   -12820.288    944.97037   -13765.259    72.293378    244.99071 
   33600    74.536243   -854.89269    59404.015   -12843.293    900.71116   -13744.004    72.208871    233.51617 
   33650     77.09373   -1016.1912    59427.801   -12822.441    931.61635   -13754.058    72.417983    241.52858 
   33700    73.550406   -629.07684    59444.933   -12848.598    888.79811   -13737.396    72.256916    230.42762 
   33750    77.590987   -957.94879    59463.932   -12835.676    937.62531   -13773.301    72.719567    243.08644 
   33800    73.666565   -1101.1191     59461.18   -12867.179    890.20179   -13757.381    72.916211    230.79154 
   33850     76.50976   -1378.1194    59486.858   -12876.077    924.55954   -13800.637    73.292834    239.69905 
   33900    76.470986    -813.4209    59460.314   -12858.472    924.09099   -13782.563    73.606203    239.57757 
   33950    74.953082   -1321.8443    59432.781   -12892.351    905.74833     -13798.1    73.541633     234.8221 
[...]
   92000    74.248318   -1615.3596    61559.428   -13743.554    897.23182   -14640.786    104.32098    232.61413 
   92050    77.112481   -1462.8474     61550.02   -13706.538    931.84295   -14638.381    103.96798    241.58732 
   92100    76.568454   -1520.5547    61494.912    -13692.27    925.26881   -14617.539     103.8831    239.88293 
   92150    76.817675   -1502.0394    61534.614   -13720.973    928.28045   -14649.254    104.06566    240.66372 
   92200    77.879763   -1618.1649    61601.231   -13692.232    941.11493   -14633.347    104.07464    243.99116 
   92250    77.391719   -1713.3545    61616.123   -13726.885    935.21731   -14662.103    103.98453    242.46215 
   92300    76.147469   -1659.3642    61595.544   -13702.628    920.18154    -14622.81    103.97882    238.56402 
   92350     78.51476   -1620.8383    61597.684    -13678.86    948.78837   -14627.648     104.1732    245.98055 
   92400    75.579751   -1587.7501     61561.68   -13694.223    913.32112   -14607.544    104.10135     236.7854 
   92450    77.409736   -1680.8956    61576.939   -13711.226    935.43504   -14646.661    103.79578     242.5186 
   92500    74.137321   -1748.9543    61538.863   -13727.854    895.89051   -14623.745    103.83835    232.26638 
   92550    75.560467   -1710.1203    61563.278   -13715.524    913.08809   -14628.612    103.74109    236.72499 
   92600    76.663913    -1729.927    61589.231   -13711.943    926.42235   -14638.365    103.74221    240.18199 
   92650    77.696722    -1682.205     61580.25    -13717.29    938.90303   -14656.193     104.2121     243.4177 
   92700    75.472969   -1708.7619    61595.242   -13721.627    912.03075   -14633.658    104.15844    236.45086 
   92750    77.530498   -1663.0758    61567.315   -13705.229    936.89435   -14642.123    104.33127    242.89694 
   92800    76.799805   -1581.1486    61561.922   -13705.406    928.06451    -14633.47    104.31153    240.60774 
   92850    77.249197   -1646.1636    61581.249   -13716.694    933.49505   -14650.189    104.38073    242.01565 
   92900    76.178923   -1650.1493    61597.338   -13732.437    920.56165   -14652.999     104.3449    238.66256 
   92950    76.427376   -1529.7678    61587.352    -13716.95      923.564   -14640.514    104.26061    239.44094 
   93000    77.943733     -1533.39    61578.861    -13736.93    941.88797   -14678.817    103.90906    244.19157 
   93050    76.394791   -1539.1142    61607.042   -13765.564    923.17023   -14688.734     104.3266    239.33886 
   93100    72.861471   -1760.6664    61604.643   -13763.117    880.47288    -14643.59    104.12534    228.26925 
   93150     73.68761   -1593.8739    61624.407   -13774.489    890.45611   -14664.945    104.23573    230.85747 
   93200    77.260175   -1634.6795     61615.18   -13766.199    933.62771   -14699.827    104.13262    242.05004 
   93250    73.223754   -1521.0355    61644.819   -13740.787    884.85077   -14625.638    104.15307    229.40425 
   93300    75.319009   -1544.8634    61666.283   -13744.662    910.17027   -14654.832      104.417    235.96852 
   93350    75.246604     -1456.44    61710.477    -13738.36    909.29531   -14647.655    104.22393    235.74168 
   93400    75.936468   -1699.8344    61702.494   -13729.724    917.63176   -14647.356    104.72584    237.90297 
   93450    76.622268   -1707.2378    61680.069   -13726.436    925.91912   -14652.356     104.1652    240.05153 
   93500    74.322533   -1732.0104    61682.104   -13752.047    898.12865   -14650.175    104.25853    232.84664 
   93550    75.066586   -1700.6376    61673.487    -13763.26    907.11994    -14670.38    104.53804     235.1777 
   93600    75.107025   -1556.3645    61669.027   -13765.075    907.60861   -14672.684    104.19173    235.30439 
   93650    77.552252   -1717.5099     61641.34   -13742.477    937.15723   -14679.634    104.25239    242.96509 
   93700    76.040684   -1492.1064    61614.858   -13727.068    918.89113   -14645.959    104.11617    238.22947 
   93750    78.546311   -1767.9866    61602.368   -13727.365    949.16964   -14676.535    104.49414     246.0794 
   93800    76.106103   -1679.6899    61601.866   -13752.992    919.68168   -14672.674    104.56721    238.43442 
   93850    73.109952   -1679.4779     61612.16   -13792.389    883.47557   -14675.864    104.57127    229.04772 
   93900    73.672444    -1607.483    61632.031   -13787.231    890.27284   -14677.504     104.3828    230.80996 
   93950    73.476237   -1730.1958    61637.001   -13781.803    887.90183   -14669.705    104.50747    230.19526 
   94000     75.52253   -1650.0807    61598.182   -13786.795    912.62966   -14699.425    104.28379    236.60613 
   94050    76.631753   -1738.9366    61589.373   -13782.534    926.03373   -14708.567    104.20945    240.08124 
   94100    74.859565   -1568.3438    61574.556   -13738.443    904.61824   -14643.061    104.17112    234.52911 
   94150    75.575163   -1625.1788    61604.067   -13760.227    913.26568   -14673.493    104.43243    236.77103 
   94200    74.520818    -1614.655    61578.237   -13761.554    900.52477   -14662.078    104.19127    233.46785 
   94250    77.366288   -1674.2549    61570.987   -13740.063       934.91   -14674.973    104.29158    242.38248 
   94300    79.093663   -1682.3365    61581.871   -13746.368    955.78396   -14702.152    104.59851    247.79421 
   94350    75.854437   -1701.7956    61564.617   -13763.511    916.64048   -14680.151    104.75005    237.64597 
   94400    74.666777   -1689.9836    61585.013    -13772.99    902.28857   -14675.278    104.64228    233.92513 
   94450    73.478558   -1633.4702    61549.243   -13770.449    887.92988   -14658.378    104.27005    230.20253 
   94500    77.867808   -1621.7019    61528.575   -13770.766    940.97047   -14711.736    104.58774     243.9537 
   94550    73.166288   -1640.1274    61520.594   -13790.201    884.15635   -14674.358    104.30265    229.22421 
   94600    77.189106   -1645.8068    61544.592    -13769.87     932.7689   -14702.639    104.30798    241.82739 
   94650     72.89425   -1733.5862    61524.481    -13756.78    880.86898   -14637.649    103.89911    228.37194 
   94700    74.189723   -1586.0409     61523.15   -13734.811    896.52375   -14631.335     104.1579    232.43056 
   94750    75.482225   -1576.5819     61517.76   -13739.513     912.1426   -14651.656    104.25776    236.47986 
   94800    77.849763   -1546.9178    61534.152    -13764.33    940.75241   -14705.083     104.5931    243.89717 
   94850    74.955653    -1617.853    61547.276   -13740.918     905.7794   -14646.698     104.3377    234.83015 
   94900    78.620527   -1479.4691    61546.766   -13724.897    950.06649   -14674.964    104.49686    246.31191 
   94950    77.324346   -1507.6132    61586.682   -13732.176    934.40317   -14666.579    104.89933    242.25108 
   95000    76.361546   -1545.2217    61614.706   -13729.573     922.7685   -14652.341    104.77199     239.2347 
   95050     76.88692    -1512.533    61597.291    -13760.45    929.11722   -14689.568    104.52025    240.88066 
   95100    76.954407   -1492.2809    61620.932   -13775.517    929.93275    -14705.45    104.35674    241.09209 
   95150    75.247512   -1589.9181    61631.458   -13800.193    909.30628     -14709.5    104.25566    235.74452 
   95200    75.229339   -1518.8832    61646.292   -13794.516    909.08667   -14703.602    104.42489    235.68759 
   95250    75.859972   -1528.5949    61632.837   -13796.255    916.70738   -14712.963     104.4072    237.66331 
   95300    73.513585   -1717.8094    61638.913   -13764.239    888.35316   -14652.592    104.48901    230.31227 
   95350    74.522404   -1669.6166    61594.189   -13756.026    900.54393    -14656.57    104.50813    233.47282 
   95400    75.607499   -1730.2268    61580.624   -13768.331    913.65644   -14681.988    104.64306    236.87233 
   95450    75.539421   -1633.4681    61578.157   -13736.735    912.83377   -14649.569    104.28749    236.65905 
   95500    77.633618   -1685.2324    61590.168   -13732.205    938.14047   -14670.346    104.40338    243.22001 
   95550     75.75576   -1653.9691     61610.78   -13749.617    915.44806   -14665.065    104.37186    237.33683 
   95600    77.307402   -1636.6645    61589.224   -13777.622    934.19842    -14711.82    104.53481      242.198 
   95650    74.501237   -1583.4285    61598.462   -13767.662    900.28814    -14667.95    104.60303     233.4065 
   95700    71.756132   -1591.6984    61592.503   -13764.688    867.11574   -14631.803    104.22959    224.80631 
   95750    76.926896   -1508.8127     61529.77   -13738.978     929.6003   -14668.578    104.13612     241.0059 
   95800    78.463732    -1462.397    61502.135   -13736.343    948.17174   -14684.514    104.29295    245.82069 
   95850    77.698688   -1622.7074    61528.533   -13726.514    938.92679   -14665.441    104.57183    243.42386 
   95900    76.499375   -1483.4638    61512.552   -13729.167    924.43405   -14653.602    104.32307    239.66651 
   95950    76.316976   -1444.6693    61533.824   -13725.531     922.2299    -14647.76    104.64265    239.09507 
   96000    75.863277   -1503.0245    61560.199   -13743.227    916.74731   -14659.975    104.69937    237.67367 
   96050    75.894709    -1678.366    61554.847   -13735.332    917.12714   -14652.459    104.45576    237.77214 
   96100    75.831386   -1714.9613    61542.438   -13757.338    916.36193     -14673.7    104.27763    237.57375 
   96150    75.473095    -1656.171    61534.119   -13755.473    912.03228   -14667.505    104.21642    236.45126 
   96200    75.290274   -1555.2628    61536.878   -13742.449    909.82302   -14652.272    104.39499    235.87849 
   96250     77.20136   -1695.2563    61558.529   -13723.465    932.91698   -14656.382    104.34113    241.86577 
   96300    74.309928   -1604.5417    61546.619   -13738.256    897.97632   -14636.233    104.49972    232.80715 
   96350    76.349679   -1581.1996    61562.722   -13744.632     922.6251   -14667.257      104.645    239.19753 
   96400     76.64179   -1490.6504    61589.926   -13729.981    926.15502   -14656.136    104.79543    240.11269 
   96450    77.859576   -1631.3939    61583.608   -13716.461      940.871   -14657.332    104.59891    243.92791 
   96500    76.294645   -1623.8246    61542.269     -13712.8    921.96004    -14634.76    104.40026    239.02511 
   96550    80.255674   -1641.5843    61551.529   -13717.745    969.82593   -14687.571     104.4783     251.4347 
   96600    79.577429   -1645.2904    61580.938   -13665.691    961.62988   -14627.321    104.51212    249.30981 
   96650    81.057297   -1614.4651    61578.184   -13662.843     979.5129   -14642.356    104.62468    253.94612 
   96700    79.269116   -1581.0699    61533.452   -13688.159    957.90417   -14646.063    104.29156    248.34389 
   96750    78.163431   -1542.2831    61550.296   -13675.808    944.54284    -14620.35    104.29011    244.87987 
   96800    76.833959   -1602.0524    61543.785   -13693.102    928.47723   -14621.579    104.34715    240.71474 
   96850    79.157352   -1590.0764    61547.913   -13705.925    956.55359   -14662.478    104.26052    247.99375 
   96900    73.528148   -1757.6491    61532.447    -13753.92    888.52913   -14642.449     104.5797    230.35789 
   96950     75.34622   -1710.4742    61556.573   -13737.072    910.49909   -14647.571      104.673    236.05377 
   97000    74.292101    -1729.123    61545.397   -13741.741    897.76089   -14639.502    104.67549    232.75129 
   97050    76.074269   -1444.8968    61547.777   -13750.424    919.29699   -14669.721    104.56956    238.33469 
   97100     75.56289   -1515.9767    61575.414   -13765.606    913.11737   -14678.723    104.45719    236.73258 
   97150    74.896892   -1646.3642    61591.395   -13774.462    905.06932   -14679.531    104.50996    234.64606 
   97200    73.137073   -1656.6168    61608.902   -13761.639     883.8033   -14645.443    104.82967    229.13268 
   97250    78.110381   -1612.2613    61615.576   -13704.965    943.90177   -14648.867    104.83432    244.71367 
   97300     78.67552   -1570.7689    61623.105   -13722.194    950.73103   -14672.925    104.45244     246.4842 
   97350    76.748367   -1680.8296    61619.682   -13729.634    927.44292   -14657.077       104.47    240.44659 
   97400    76.572069   -1570.4944    61604.488   -13721.498    925.31249   -14646.811    104.43498    239.89425 
   97450    74.876394   -1616.3605    61639.501   -13732.528    904.82162   -14637.349    104.51287    234.58184 
   97500    80.277703   -1725.8638     61667.28   -13707.346    970.09214   -14677.439    105.06342    251.50372 
   97550    77.656237   -1637.2949    61652.338   -13710.101    938.41381   -14648.515    104.77334    243.29087 
   97600    77.681904   -1632.5289    61664.923    -13714.23    938.72397   -14652.954    104.68919    243.37128 
   97650    75.771522   -1582.0416    61670.809   -13733.616    915.63853   -14649.255    104.79807    237.38621 
   97700    75.862097   -1793.8408     61671.71    -13722.32    916.73305   -14639.053    104.50075    237.66997 
   97750    78.805698   -1722.0005    61662.681   -13676.541    952.30413   -14628.845    104.47447    246.89204 
   97800    77.303075   -1680.3562    61615.911   -13711.952    934.14612   -14646.098    104.34109    242.18444 
   97850    76.016345   -1660.7136    61591.505   -13721.986    918.59702   -14640.583    104.50025    238.15322 
   97900    75.616267   -1712.3236     61634.18   -13743.486    913.76239   -14657.249    104.38516     236.8998 
   97950    77.218971   -1588.9522     61635.61   -13729.778     933.1298   -14662.907    104.37598    241.92095 
   98000     78.09371   -1514.5482    61623.571   -13741.963    943.70031   -14685.663    104.60262    244.66144 
   98050    76.087131   -1604.0206    61639.059   -13750.928     919.4524   -14670.381    104.58537    238.37498 
   98100    75.374295   -1609.4755    61659.451   -13773.689    910.83835   -14684.527    105.00502    236.14173 
   98150    75.238131   -1598.4857    61648.631    -13788.41    909.19291   -14697.603    104.73985    235.71513 
   98200    76.323416   -1699.9907    61646.435   -13788.044    922.30772   -14710.352       104.67    239.11525 
   98250    75.169331   -1626.1369    61693.044   -13769.649    908.36152   -14678.011    104.43087    235.49959 
   98300    77.256644   -1655.1392    61704.635   -13758.921    933.58505   -14692.506    104.67113    242.03898 
   98350    75.068843   -1669.7049    61695.821   -13755.564     907.1472   -14662.712    104.31125    235.18477 
   98400    77.401434   -1788.4937    61697.678   -13742.828    935.33472   -14678.163    104.55239    242.49259 
   98450    75.325102   -1805.6364    61698.536   -13735.628    910.24389   -14645.872    104.42929    235.98761 
   98500    78.701066   -1685.7615    61691.876    -13742.11    951.03974   -14693.149    104.73501    246.56424 
   98550    78.298773   -1630.2048    61707.913   -13754.329    946.17835   -14700.507    104.70788    245.30389 
   98600    75.659114   -1721.7501    61719.872   -13748.249    914.28017   -14662.529    104.93777    237.03404 
   98650    73.995987   -1623.4491    61684.697   -13771.574     894.1826   -14665.757    104.92196    231.82359 
   98700    76.671429   -1679.0636    61664.814   -13747.967    926.51319    -14674.48    104.81001    240.20554 
   98750    73.832356   -1578.8363      61683.8   -13747.108    892.20525   -14639.313    104.89883    231.31095 
   98800    75.048486   -1858.4704    61702.182   -13731.175    906.90121   -14638.076    104.57126    235.12099 
   98850    77.077156    -1771.551    61667.539   -13740.509    931.41608   -14671.925       104.71    241.47666 
   98900    72.618493   -1631.2755    61695.421   -13761.521    877.53667   -14639.057    104.50889    227.50801 
   98950    74.069659   -1562.8123    61697.263   -13784.877    895.07286    -14679.95    104.36455     232.0544 
   99000    72.449516   -1740.7954    61665.597    -13817.52    875.49473   -14693.015    104.76073    226.97862 
   99050    73.295651   -1604.6999    61628.497    -13808.15    885.71959    -14693.87    104.74123     229.6295 
   99100    74.700107    -1625.826    61614.557   -13786.466    902.69133   -14689.157     105.0333    234.02955 
   99150    73.491053   -1606.5876    61620.613   -13777.343    888.08087   -14665.423    104.66286    230.24168 
   99200    75.061174    -1770.097    61625.327   -13784.358    907.05453   -14691.413    104.84169    235.16074 
   99250    73.713169   -1605.3337    61606.662    -13794.38    890.76496   -14685.145     104.7325    230.93755 
   99300    77.398008   -1579.3739    61624.919   -13774.074    935.29331   -14709.367    104.52798    242.48186 
   99350    75.914002   -1705.0868    61630.176   -13740.849    917.36028   -14658.209    104.27564    237.83258 
   99400    76.772414   -1556.3822    61603.523   -13743.173    927.73351   -14670.907    104.47228    240.52192 
   99450    75.637095   -1582.4347    61604.556   -13747.121    914.01408   -14661.135     104.5466    236.96506 
   99500    76.419041   -1562.1155    61563.954   -13765.501    923.46328   -14688.965     104.3185    239.41483 
   99550    74.796981   -1532.0664    61561.492   -13761.598    903.86197    -14665.46    104.53609    234.33304 
   99600    76.375787    -1589.421    61559.676   -13752.722    922.94059   -14675.662    104.91551    239.27932 
   99650    76.812593   -1522.0222    61587.819    -13733.76    928.21904   -14661.979    104.84117     240.6478 
   99700     76.44462   -1756.8245    61624.562   -13724.691    923.77238   -14648.464    104.91762    239.49497 
   99750    79.096933   -1561.3131    61597.307   -13705.058    955.82347   -14660.881    104.78158    247.80446 
   99800    74.833002    -1787.502    61589.802   -13711.005    904.29726   -14615.303    105.03798     234.4459 
   99850    77.810766   -1734.8158    61558.069   -13714.439    940.28117    -14654.72    104.36889      243.775 
   99900    75.756873   -1607.2492    61537.358   -13698.039     915.4615     -14613.5    104.23407    237.34031 
   99950    78.273642   -1552.6071    61528.078   -13683.682    945.87466   -14629.557    104.35166    245.22515 
  100000    77.443737   -1556.5284    61567.562   -13676.831    935.84591   -14612.677    104.41171    242.62512 
Loop time of 76.7057 on 80 procs for 100000 steps with 4055 atoms

Performance: 563.192 ns/day, 0.043 hours/ns, 1303.685 timesteps/s
99.5% CPU use with 80 MPI tasks x no OpenMP threads

MPI task timing breakdown:
Section |  min time  |  avg time  |  max time  |%varavg| %total
---------------------------------------------------------------
Pair    | 37.763     | 46.915     | 53.4       |  61.0 | 61.16
Neigh   | 0.39493    | 1.0005     | 1.8483     |  57.7 |  1.30
Comm    | 13.013     | 20.496     | 29.935     | 101.0 | 26.72
Output  | 0.12833    | 0.132      | 0.28994    |   4.9 |  0.17
Modify  | 6.3436     | 7.182      | 7.9847     |  14.5 |  9.36
Other   |            | 0.9805     |            |       |  1.28

Nlocal:    50.6875 ave 86 max 22 min
Histogram: 36 4 0 0 0 0 2 13 15 10
Nghost:    711.587 ave 751 max 671 min
Histogram: 11 10 8 7 4 2 7 8 10 13
Neighs:    0 ave 0 max 0 min
Histogram: 80 0 0 0 0 0 0 0 0 0
FullNghs:  5409.85 ave 10809 max 1074 min
Histogram: 40 0 0 0 0 0 1 7 19 13

Total # of neighbors = 432788
Ave neighs/atom = 106.729
Neighbor list builds = 5296
Dangerous builds = 0

write_data		${DIR}/data.eq-${NAME}-${TEMP}
write_data		run_9/data.eq-${NAME}-${TEMP}
write_data		run_9/data.eq-het_freeze_9-${TEMP}
write_data		run_9/data.eq-het_freeze_9-240
undump          1

reset_timestep  0

unfix           2
unfix           3
unfix           4


################################################
#######         Run Simulation         #########
################################################

log				${DIR}/log.run_${NAME}
log				run_9/log.run_${NAME}
log				run_9/log.run_het_freeze_9
