LAMMPS data file via write_data, version 16 Mar 2018, timestep = 100000

6736 atoms
2 atom types

0.0000000000000000e+00 4.9219999999999999e+01 xlo xhi
0.0000000000000000e+00 4.9019635930410494e+01 ylo yhi
8.2456849183852299e-01 5.9237431508160611e+01 zlo zhi

Masses

1 18.015
2 12.01

Atoms # atomic

318 1 1.2951567264417758e+00 1.5661682419302180e+01 2.3885440336201849e+00 0 0 0
4533 1 1.9480262501101260e+00 6.9194865618179369e-01 4.0532462015050914e+00 2 0 1
886 1 3.3300171597847328e+00 1.5535349073056054e+01 5.7301616511375455e+00 0 -1 1
2813 1 4.4521081760515164e+00 1.1808223814344647e+00 5.4807822782884026e+00 0 2 1
5125 1 7.8162433433806875e+00 3.2424521555942181e+00 3.1701654500646956e+00 0 0 0
5367 1 1.0518639205032136e+01 1.0884522132978558e+00 2.2965857863042194e+00 2 1 0
29 1 1.1009949588662371e+01 1.3651307249397732e+01 7.4086530991057629e+00 0 1 0
4355 1 3.8838857934032371e+00 5.0198671258516017e+00 1.1460185628956184e+01 1 1 1
6155 1 2.3944485734377050e+00 4.2034012092080992e+00 1.8946646736371666e+00 0 1 1
5470 1 4.5117062961591525e+00 7.6792649248733698e+00 1.1858692230422593e+01 1 0 0
3443 1 9.6511689497523570e+00 1.2031761563784535e+01 9.3731786639187789e+00 0 1 0
251 1 1.2179533457488894e+01 5.8580506779905788e+00 3.1276853382739986e+00 0 -1 1
2695 1 9.3730262149642041e+00 5.5631358381532889e+00 2.7140323990654593e+00 0 0 1
5141 1 3.6448430365438844e-01 1.9835753206509831e-02 7.4937960207244547e+00 2 -1 0
1003 1 6.3255120473112427e+00 8.4001089962355557e+00 4.3659903002101821e+00 1 0 1
3698 1 1.6699040294023344e+00 1.3879891418730430e+00 1.6716118232916557e+00 1 0 0
906 1 1.2144690888932496e+01 2.8075513989978478e+00 5.5082688557379180e+00 0 0 1
1237 1 5.9466350305700750e+00 1.5098032868301093e+01 6.1108742609212756e+00 0 -1 1
3635 1 7.6307118436290082e+00 7.8348426433289893e+00 2.2215778981159917e+00 0 1 0
2685 1 1.0717598209644509e+01 9.6162261771076203e+00 2.6468899921036515e+00 -1 0 1
5138 1 2.8607659784027493e+00 1.3509718125514235e+01 3.6648234971551812e+00 0 0 0
1972 1 5.2447883097378263e+00 1.3781086186666656e+01 2.6500325328620340e+00 1 1 0
1998 1 9.3398809172322093e+00 1.3609301857193939e+01 3.3095785369331172e+00 0 0 1
398 1 1.1412561271762989e+00 1.3118389292333953e+01 1.1423304080846307e+01 -1 0 0
3565 1 7.6132260287865323e+00 4.2630042031152726e-01 2.5990707007531371e+00 -1 1 0
888 1 2.0478741417458326e+00 1.0078392053041203e+00 9.4049007181989079e+00 0 1 1
2877 1 5.3482475754541525e+00 3.7725081437103314e+00 5.9726880708764982e+00 1 1 1
52 1 2.7143308751490736e-02 4.7349367635424136e+00 1.0433780224771619e+01 -1 0 1
54 1 7.9891665988125249e+00 4.0698840823080271e+00 5.4412649451055097e+00 -1 0 1
6138 1 9.3155061825782806e+00 3.6252225126092146e+00 9.3736255813364071e+00 1 1 0
2655 1 9.7762412062690824e+00 2.3010129677584219e+00 6.8952310443472014e+00 -1 0 1
771 1 3.1389258009835537e+00 5.2449867512630526e+00 4.8390605731974343e+00 1 0 1
2820 1 1.7661936707011550e+00 5.6514396019104280e+00 6.8230913709420058e+00 0 1 1
6209 1 7.3132457277526919e-01 7.8699730571517703e+00 7.3714683933907965e+00 0 1 1
3556 1 3.6923455531340221e+00 7.9218755803938370e+00 4.5887672431365809e+00 1 0 0
4361 1 5.2360813697940261e+00 4.3947973734119383e+00 8.4283354740525596e+00 0 0 1
2564 1 6.1003329457839683e+00 7.0012867008385777e+00 8.0196280239471598e+00 -1 1 0
869 1 3.0174600645326871e-01 1.5002920342076475e+01 9.4902680992758182e+00 2 -1 1
1846 1 7.8414038573175855e+00 6.7131477271128750e+00 6.1995678176099860e+00 0 2 0
1836 1 4.1559978367319426e+00 8.9651226674402231e+00 7.6884767867390007e+00 -2 -1 1
5425 1 1.9655754865922395e+00 9.8463270953415272e+00 5.7739792341849485e+00 1 0 0
770 1 6.7513105028786935e+00 1.1087566941513659e+01 6.0201812928981067e+00 1 0 1
5350 1 5.4356624907290971e+00 1.1097675503093072e+01 8.0388885586668906e+00 0 1 0
4370 1 9.2604902643846110e+00 1.0855847165039178e+01 6.8084725419181709e+00 0 1 1
5225 1 1.0976651738679227e+01 1.0841826077687431e+01 5.0320115478805389e+00 1 -1 0
4602 1 9.7829147156855676e+00 8.1017277374904122e+00 7.5851225049531488e+00 0 -1 1
6239 1 1.9441491549891932e+00 1.2543764400647589e+01 6.3554474896871156e+00 1 2 0
463 1 3.2311689277002502e+00 1.3084922998098911e+01 8.8418391341841041e+00 0 0 0
4333 1 5.6493746758644496e+00 1.4585921509313327e+01 8.6238065126781684e+00 1 0 1
246 1 6.9234602867188553e+00 1.3206966371549685e+01 4.4631057651468913e+00 -1 0 0
1019 1 1.1513802851577244e+00 1.2118273812225869e+01 1.6442423412516813e+00 1 0 1
3748 1 5.4944353994322519e+00 4.0391480495945897e+00 2.1979889700736193e+00 1 2 0
5870 1 4.4052833868777769e-01 8.5796388091557212e+00 1.7288170863429735e+00 1 1 0
2017 1 5.7263267419224704e+00 2.9180474328655399e+00 1.1771898192118334e+01 0 -1 0
5426 1 2.7103248434460830e-01 9.2384465884885039e+00 1.0668656778743649e+01 1 0 0
1834 1 6.7479707805469209e+00 2.2939670049203826e+00 9.2067008231397622e+00 1 1 0
417 1 1.0929100150863436e+01 1.9257981696142534e+00 1.0772949381946534e+01 0 1 0
35 1 2.3869172800781917e+00 3.7560212183247659e+00 9.1068717395697689e+00 0 0 0
5335 1 5.5484733590498356e+00 1.1652437551324020e+01 8.5997642823371911e-01 1 0 0
1055 1 8.2943328526802951e+00 1.4529879384947890e+01 9.7261579273854490e+00 0 0 1
6083 1 9.8816189310152041e+00 6.3439712407869804e+00 1.0058400841957059e+01 2 -1 1
2069 1 3.0349916132665165e+00 9.2730764574167388e+00 1.0301907720588529e+01 2 1 0
434 1 3.4245491433954678e+00 1.1572505958985992e+01 1.1457571359778424e+01 -1 0 0
3669 1 6.9335766968771297e+00 1.0890420486209827e+01 1.0033966824951273e+01 2 0 0
4224 1 6.9670444667425047e+00 8.0495144120795814e+00 1.0341561094675646e+01 1 0 1
2125 1 3.1825219800293238e+00 7.5696625316195343e+00 1.9139098467830833e+00 0 1 0
2725 1 8.8644836790779635e+00 7.6141289981518305e+00 1.2424013808124640e+01 2 1 1
6108 1 1.1534466910780496e+01 1.1529800972047274e+01 1.1370456645536446e+01 0 0 1
3534 1 5.0087247390907996e-01 1.2156701633440889e+00 1.2460466525216715e+01 1 0 1
27 1 9.6489510623925998e+00 1.6036697435869691e+01 8.0338841373195269e+00 0 0 0
5424 1 9.7023291553351019e+00 1.6330119014766812e+01 3.1847304790644388e+00 2 1 0
6297 1 1.2221975050822179e+01 1.3268849506323258e+01 4.5106963771041562e+00 0 1 0
2540 1 7.1917446522552417e+00 1.2594284044621100e+01 1.2495514221616277e+01 1 2 1
1161 1 9.0147900744040914e+00 1.2684202058803260e+01 8.7567922948899479e-01 1 1 0
5091 1 2.7811668776146288e+00 4.9492621783743731e+00 1.3831973357660488e+01 0 0 0
993 1 1.7679072465348245e+00 1.1060804129886836e+01 2.3402937956851954e+01 0 1 1
3392 1 3.7005927068273947e+00 2.7228923158640321e+00 1.4961047790227020e+01 1 0 0
3599 1 5.9945628819823353e+00 3.5688239296973108e+00 1.5640936923188802e+01 1 0 1
5372 1 6.7384269200859075e+00 1.0161337324617989e+01 2.2600283273663930e+01 1 0 0
2176 1 1.1891666501819037e+01 7.7756948062252036e+00 1.6666900468283153e+01 1 1 0
442 1 9.3875308826790214e+00 9.9257503335940651e+00 1.9931379684901543e+01 0 0 0
3586 1 9.7254308135839427e+00 1.6163405274714872e+01 2.3235839377160477e+01 -1 -1 0
1758 1 9.2578874389224879e+00 1.4906215135608745e+01 2.0807097675334699e+01 -1 0 1
5190 1 7.3835851890712823e+00 4.0558814577511573e+00 1.3387648428839436e+01 1 1 1
2773 1 3.8619862616189256e+00 1.4502982691272814e+01 2.0293521056442113e+01 1 1 1
5213 1 1.1313779196182370e+01 1.2176326625455374e+01 1.7173587479990282e+01 0 1 0
3442 1 5.2516199276095712e+00 9.9151060785647100e+00 1.9882128580915744e+01 2 0 0
775 1 8.0065817500602012e+00 6.7255818980328890e+00 1.4715122527774881e+01 0 0 1
4255 1 4.9419607385064985e+00 1.1960232806174229e+01 1.3494584180904011e+01 1 0 1
4543 1 2.6426085897595879e+00 1.1535735454192501e+01 1.7169656748166176e+01 1 1 0
4581 1 9.8623320733180542e-01 1.4762886798887855e+01 1.3455945509152468e+01 1 1 1
4230 1 4.0599307121219841e+00 9.2295526372773935e+00 1.4131876147821277e+01 0 0 1
3472 1 7.6627194319845748e-01 1.2998170876418259e+01 1.5809167377960064e+01 1 1 1
169 1 8.8412674876084587e+00 1.1290876136308958e+01 1.4113448413605290e+01 0 1 1
1856 1 7.1215238988515353e+00 6.3675535730976813e+00 2.3430500075422124e+01 0 1 1
2470 1 3.7414259870939657e+00 1.4498215679008508e+01 1.3691214200023945e+01 0 1 1
3513 1 8.7286215435344765e+00 1.3002672381515797e+01 1.6313159718524197e+01 0 1 1
313 1 1.0069108297940794e+01 1.4706026823599338e+01 1.4266251809583117e+01 0 1 0
1788 1 1.8906748146169478e-01 1.4258579630512312e+01 2.1627387055569031e+01 2 0 0
4260 1 1.2661541805757164e+00 1.9628058017590007e+00 1.9513463935045166e+01 1 1 1
6079 1 7.5195378369860535e+00 1.8961188668557418e+00 1.7547318283346733e+01 1 1 1
385 1 6.3354115370703212e+00 1.7144210959587662e+00 2.0004703069781403e+01 0 0 0
1822 1 9.3988066238302785e+00 3.6620945515125425e+00 1.8068445105837725e+01 1 1 0
5077 1 6.3343209444562634e+00 1.2472735012202829e+01 2.3729755870588690e+01 0 0 0
322 1 4.0949824579639422e+00 5.3201669549855470e+00 1.9671372936257260e+01 0 0 0
5302 1 1.6584186387948612e+00 8.5562120859950674e+00 1.6600876365495147e+01 1 1 1
3501 1 9.9706669082593458e-01 9.1166159843052483e+00 1.9275188492202286e+01 0 1 1
1971 1 5.6176776081800446e+00 5.6807209382285206e+00 1.7199519304792773e+01 1 0 0
73 1 8.8200883611654852e+00 7.2610270887431971e+00 1.9723408145826347e+01 -1 1 0
1013 1 3.7820392327423988e+00 6.9075914879273821e+00 1.5815576605089745e+01 0 0 1
2808 1 9.6348641786408695e+00 6.1763630319800438e+00 1.6874020920403133e+01 0 3 0
840 1 5.2994017789033414e+00 1.2032202367617852e+01 1.6363335535979068e+01 0 1 0
2033 1 1.0905035531732465e+00 1.1317950870839184e+01 2.1075270252453073e+01 1 0 0
4179 1 6.7160170504839023e+00 8.2519135225259195e+00 1.7799658384619427e+01 0 -1 1
2133 1 6.8908172263660568e+00 9.4937801419863597e+00 1.5355574356296460e+01 1 1 0
3816 1 1.1641488546415900e+01 9.7006698631804760e+00 1.8440318933363443e+01 1 0 0
3713 1 1.0918981293107128e+01 1.0159764130510041e+00 2.1244842944785319e+01 1 0 0
1954 1 9.8362237076587107e+00 2.4006444056369798e+00 1.3048738546214921e+01 0 -1 0
5176 1 5.1351722245746112e+00 1.4819952936051131e+01 1.6404577163942506e+01 -1 0 1
1911 1 7.3849633797482781e+00 1.1554871205325403e+01 1.8533131048154175e+01 0 0 0
2513 1 1.0566006806303575e+01 9.5981137049316061e+00 1.3255682706630814e+01 -1 0 1
431 1 7.8364923079559583e+00 1.5277340269814459e+01 1.8291422205505661e+01 -1 0 0
2709 1 6.6607717815501983e+00 1.3210305510835665e+01 2.0930618018270511e+01 1 0 1
778 1 9.2924253305556537e+00 9.3526770851190690e+00 2.2979080053025577e+01 0 -1 1
1800 1 1.0592431382410904e+01 1.2934277375953847e+01 2.0198866739774324e+01 0 2 0
1172 1 3.9129013577173661e+00 2.5793156520423715e+00 2.0837258519019851e+01 2 0 1
390 1 3.4973678898483787e+00 3.2876425455658560e+00 2.3507210680046800e+01 0 0 0
4511 1 2.6833147520891032e-01 5.1253738261437194e+00 1.3514748719991124e+01 0 1 1
3593 1 3.4469252681200531e+00 1.2052199456316504e+01 1.9697056633659479e+01 0 0 0
2065 1 7.8090812525131508e+00 3.5428890530959483e+00 2.1148315079402213e+01 1 0 0
5289 1 1.5246215863087702e+00 1.9544366391289609e+00 1.6742977384390500e+01 1 1 0
2883 1 1.0648514091042182e+01 1.1736001412966610e+01 2.2663456177365305e+01 2 1 1
3602 1 1.0562988938301700e+01 3.6099586300706314e+00 2.1072336628680269e+01 1 1 0
3801 1 1.3158925188250732e+00 5.7939629514095428e+00 2.0956454756333020e+01 1 0 0
1020 1 1.2146531670969690e+01 1.3831218316264620e+01 1.2763284321003999e+01 -1 0 0
1083 1 2.8740518766188718e+00 8.0442714201886005e+00 2.0610330124053153e+01 0 0 1
3582 1 6.8589451932726107e+00 5.8650037110477147e+00 2.0796739445597524e+01 0 2 0
1719 1 4.8906945573270786e+00 8.2321193854552588e-01 1.3072985594439620e+01 0 1 0
5327 1 1.0854089627912671e+00 4.6125766294293324e+00 2.3113423196405357e+01 1 1 0
3865 1 1.1333518450632310e+01 6.1753328122732949e+00 2.0182338423351840e+01 1 0 1
185 1 1.1633289482853877e+01 2.2879456239883100e+00 1.6817588540882927e+01 0 -1 0
447 1 2.7647041161524633e+00 1.4942355573282557e+01 2.2864465410345566e+01 0 2 0
4294 1 3.0421675205723959e+00 8.6340375963348723e+00 2.3464688537385864e+01 0 -1 1
2871 1 3.9783285985797284e-01 1.6069270264167983e+01 1.9681662847791884e+01 0 2 1
4226 1 1.0489526870922953e+01 3.9174791487882281e+00 2.4114132865794190e+01 0 1 0
928 1 8.1948819053361994e+00 2.3386233003893873e+00 2.3706353484173444e+01 0 0 1
2020 1 5.6325975795403096e+00 1.5961801144122854e+01 2.3908025255699712e+01 1 2 0
1960 1 1.0011765857767378e+01 6.8131171231814571e+00 2.3274772570166185e+01 0 0 0
147 1 1.1883898262189274e+00 7.0526795894160079e+00 2.4122604668529259e+01 0 1 1
6088 1 8.1109513938167588e+00 1.5382380855124147e+01 1.2567661429209270e+01 0 1 1
511 2 0.0000000000000000e+00 2.8417180249513345e+00 2.6811796557325795e+01 0 0 0
512 2 0.0000000000000000e+00 0.0000000000000000e+00 2.6811796557325795e+01 0 0 0
513 2 1.2305000000000001e+00 7.1042950623783474e-01 2.6811796557325795e+01 0 0 0
517 2 1.2305000000000001e+00 2.1312885187134998e+00 2.6811796557325795e+01 0 0 0
518 2 2.4610000000000003e+00 2.8417180249513345e+00 2.6811796557325795e+01 0 0 0
519 2 2.4610000000000003e+00 0.0000000000000000e+00 2.6811796557325795e+01 0 0 0
520 2 3.6915000000000004e+00 7.1042950623783474e-01 2.6811796557325795e+01 0 0 0
528 2 3.6914999999999996e+00 2.1312885187134998e+00 2.6811796557325795e+01 0 0 0
529 2 4.9220000000000006e+00 2.8417180249513332e+00 2.6811796557325795e+01 0 0 0
530 2 4.9220000000000006e+00 0.0000000000000000e+00 2.6811796557325795e+01 0 0 0
531 2 6.1524999999999999e+00 7.1042950623783407e-01 2.6811796557325795e+01 0 0 0
543 2 6.1524999999999999e+00 2.1312885187134989e+00 2.6811796557325795e+01 0 0 0
544 2 7.3829999999999991e+00 2.8417180249513345e+00 2.6811796557325795e+01 0 0 0
545 2 7.3829999999999991e+00 0.0000000000000000e+00 2.6811796557325795e+01 0 0 0
546 2 8.6134999999999984e+00 7.1042950623783407e-01 2.6811796557325795e+01 0 0 0
562 2 8.6134999999999984e+00 2.1312885187135002e+00 2.6811796557325795e+01 0 0 0
563 2 9.8440000000000012e+00 2.8417180249513332e+00 2.6811796557325795e+01 0 0 0
564 2 9.8440000000000012e+00 0.0000000000000000e+00 2.6811796557325795e+01 0 0 0
565 2 1.1074500000000002e+01 7.1042950623783330e-01 2.6811796557325795e+01 0 0 0
585 2 1.1074500000000002e+01 2.1312885187135002e+00 2.6811796557325795e+01 0 0 0
514 2 0.0000000000000000e+00 7.1042950623783341e+00 2.6811796557325795e+01 0 0 0
515 2 0.0000000000000000e+00 4.2625770374269996e+00 2.6811796557325795e+01 0 0 0
516 2 1.2305000000000001e+00 4.9730065436648339e+00 2.6811796557325795e+01 0 0 0
524 2 1.2305000000000001e+00 6.3938655561404980e+00 2.6811796557325795e+01 0 0 0
525 2 2.4610000000000003e+00 7.1042950623783341e+00 2.6811796557325795e+01 0 0 0
526 2 2.4610000000000003e+00 4.2625770374269996e+00 2.6811796557325795e+01 0 0 0
527 2 3.6914999999999996e+00 4.9730065436648339e+00 2.6811796557325795e+01 0 0 0
539 2 3.6914999999999996e+00 6.3938655561404980e+00 2.6811796557325795e+01 0 0 0
6059 1 6.3680547954851507e-01 9.8161984390980539e+00 3.5510742028090817e+01 1 -1 0
540 2 4.9220000000000006e+00 7.1042950623783341e+00 2.6811796557325795e+01 0 0 0
541 2 4.9220000000000006e+00 4.2625770374269978e+00 2.6811796557325795e+01 0 0 0
542 2 6.1524999999999999e+00 4.9730065436648339e+00 2.6811796557325795e+01 0 0 0
558 2 6.1524999999999999e+00 6.3938655561404980e+00 2.6811796557325795e+01 0 0 0
559 2 7.3830000000000009e+00 7.1042950623783341e+00 2.6811796557325795e+01 0 0 0
560 2 7.3829999999999991e+00 4.2625770374269996e+00 2.6811796557325795e+01 0 0 0
561 2 8.6135000000000002e+00 4.9730065436648339e+00 2.6811796557325795e+01 0 0 0
581 2 8.6135000000000002e+00 6.3938655561404980e+00 2.6811796557325795e+01 0 0 0
582 2 9.8440000000000012e+00 7.1042950623783341e+00 2.6811796557325795e+01 0 0 0
583 2 9.8440000000000012e+00 4.2625770374270004e+00 2.6811796557325795e+01 0 0 0
584 2 1.1074500000000002e+01 4.9730065436648339e+00 2.6811796557325795e+01 0 0 0
605 2 1.1074500000000002e+01 6.3938655561404980e+00 2.6811796557325795e+01 0 0 0
521 2 0.0000000000000000e+00 1.1366872099805333e+01 2.6811796557325795e+01 0 0 0
522 2 0.0000000000000000e+00 8.5251540748539991e+00 2.6811796557325795e+01 0 0 0
523 2 1.2305000000000001e+00 9.2355835810918343e+00 2.6811796557325795e+01 0 0 0
535 2 1.2305000000000001e+00 1.0656442593567498e+01 2.6811796557325795e+01 0 0 0
536 2 2.4610000000000003e+00 1.1366872099805333e+01 2.6811796557325795e+01 0 0 0
537 2 2.4610000000000003e+00 8.5251540748539991e+00 2.6811796557325795e+01 0 0 0
538 2 3.6915000000000004e+00 9.2355835810918343e+00 2.6811796557325795e+01 0 0 0
554 2 3.6914999999999996e+00 1.0656442593567499e+01 2.6811796557325795e+01 0 0 0
1999 1 8.9290200684472527e+00 1.3598008115537571e+01 2.4199530056290417e+01 1 0 0
555 2 4.9220000000000006e+00 1.1366872099805333e+01 2.6811796557325795e+01 0 0 0
556 2 4.9220000000000006e+00 8.5251540748539991e+00 2.6811796557325795e+01 0 0 0
557 2 6.1524999999999999e+00 9.2355835810918343e+00 2.6811796557325795e+01 0 0 0
577 2 6.1524999999999999e+00 1.0656442593567499e+01 2.6811796557325795e+01 0 0 0
578 2 7.3829999999999991e+00 1.1366872099805333e+01 2.6811796557325795e+01 0 0 0
579 2 7.3830000000000009e+00 8.5251540748539991e+00 2.6811796557325795e+01 0 0 0
5491 1 3.6142857677262796e+00 6.7994677920512192e-01 2.4470936735683559e+01 1 0 0
580 2 8.6134999999999984e+00 9.2355835810918343e+00 2.6811796557325795e+01 0 0 0
601 2 8.6134999999999984e+00 1.0656442593567498e+01 2.6811796557325795e+01 0 0 0
602 2 9.8440000000000012e+00 1.1366872099805333e+01 2.6811796557325795e+01 0 0 0
603 2 9.8440000000000012e+00 8.5251540748539956e+00 2.6811796557325795e+01 0 0 0
604 2 1.1074500000000002e+01 9.2355835810918343e+00 2.6811796557325795e+01 0 0 0
625 2 1.1074500000000002e+01 1.0656442593567498e+01 2.6811796557325795e+01 0 0 0
626 2 1.2304999999999998e+01 1.1366872099805333e+01 2.6811796557325795e+01 0 0 0
532 2 0.0000000000000000e+00 1.5629449137232333e+01 2.6811796557325795e+01 0 0 0
533 2 0.0000000000000000e+00 1.2787731112280996e+01 2.6811796557325795e+01 0 0 0
534 2 1.2305000000000001e+00 1.3498160618518829e+01 2.6811796557325795e+01 0 0 0
550 2 1.2305000000000001e+00 1.4919019630994494e+01 2.6811796557325795e+01 0 0 0
551 2 2.4610000000000003e+00 1.5629449137232328e+01 2.6811796557325795e+01 0 0 0
552 2 2.4610000000000003e+00 1.2787731112280996e+01 2.6811796557325795e+01 0 0 0
553 2 3.6915000000000004e+00 1.3498160618518829e+01 2.6811796557325795e+01 0 0 0
573 2 3.6915000000000004e+00 1.4919019630994494e+01 2.6811796557325795e+01 0 0 0
574 2 4.9220000000000006e+00 1.5629449137232333e+01 2.6811796557325795e+01 0 0 0
575 2 4.9220000000000006e+00 1.2787731112280996e+01 2.6811796557325795e+01 0 0 0
576 2 6.1524999999999990e+00 1.3498160618518829e+01 2.6811796557325795e+01 0 0 0
597 2 6.1524999999999990e+00 1.4919019630994494e+01 2.6811796557325795e+01 0 0 0
598 2 7.3829999999999991e+00 1.5629449137232333e+01 2.6811796557325795e+01 0 0 0
599 2 7.3829999999999991e+00 1.2787731112280996e+01 2.6811796557325795e+01 0 0 0
600 2 8.6135000000000002e+00 1.3498160618518835e+01 2.6811796557325795e+01 0 0 0
621 2 8.6135000000000002e+00 1.4919019630994494e+01 2.6811796557325795e+01 0 0 0
622 2 9.8440000000000012e+00 1.5629449137232328e+01 2.6811796557325795e+01 0 0 0
623 2 9.8440000000000012e+00 1.2787731112280996e+01 2.6811796557325795e+01 0 0 0
624 2 1.1074500000000002e+01 1.3498160618518829e+01 2.6811796557325795e+01 0 0 0
642 2 1.1074500000000002e+01 1.4919019630994494e+01 2.6811796557325795e+01 0 0 0
1523 2 9.8440000000000012e+00 1.2787731112280996e+01 3.3250203442674959e+01 0 0 0
1250 2 0.0000000000000000e+00 1.4208590124756650e+00 3.0030999999999736e+01 0 0 0
1251 2 0.0000000000000000e+00 0.0000000000000000e+00 3.0030999999999736e+01 0 0 0
1254 2 1.2305000000000001e+00 3.5521475311891644e+00 3.0030999999999736e+01 0 0 0
1255 2 1.2305000000000001e+00 2.1312885187134998e+00 3.0030999999999736e+01 0 0 0
1256 2 2.4610000000000003e+00 1.4208590124756650e+00 3.0030999999999736e+01 0 0 0
1257 2 2.4610000000000003e+00 0.0000000000000000e+00 3.0030999999999736e+01 0 0 0
1264 2 3.6914999999999996e+00 3.5521475311891644e+00 3.0030999999999736e+01 0 0 0
1265 2 3.6914999999999996e+00 2.1312885187134998e+00 3.0030999999999736e+01 0 0 0
1266 2 4.9220000000000006e+00 1.4208590124756650e+00 3.0030999999999736e+01 0 0 0
1267 2 4.9220000000000006e+00 0.0000000000000000e+00 3.0030999999999736e+01 0 0 0
1278 2 6.1524999999999999e+00 3.5521475311891644e+00 3.0030999999999736e+01 0 0 0
1279 2 6.1524999999999999e+00 2.1312885187134989e+00 3.0030999999999736e+01 0 0 0
1280 2 7.3829999999999991e+00 1.4208590124756659e+00 3.0030999999999736e+01 0 0 0
1281 2 7.3829999999999991e+00 0.0000000000000000e+00 3.0030999999999736e+01 0 0 0
1296 2 8.6134999999999984e+00 3.5521475311891657e+00 3.0030999999999736e+01 0 0 0
1297 2 8.6134999999999984e+00 2.1312885187135002e+00 3.0030999999999736e+01 0 0 0
1298 2 9.8440000000000012e+00 1.4208590124756659e+00 3.0030999999999736e+01 0 0 0
1299 2 9.8440000000000012e+00 0.0000000000000000e+00 3.0030999999999736e+01 0 0 0
1318 2 1.1074500000000002e+01 3.5521475311891644e+00 3.0030999999999736e+01 0 0 0
1319 2 1.1074500000000002e+01 2.1312885187135002e+00 3.0030999999999736e+01 0 0 0
1252 2 0.0000000000000000e+00 5.6834360499026637e+00 3.0030999999999736e+01 0 0 0
1253 2 0.0000000000000000e+00 4.2625770374269996e+00 3.0030999999999736e+01 0 0 0
1260 2 1.2305000000000001e+00 7.8147245686161639e+00 3.0030999999999736e+01 0 0 0
1261 2 1.2305000000000001e+00 6.3938655561404980e+00 3.0030999999999736e+01 0 0 0
1262 2 2.4610000000000003e+00 5.6834360499026637e+00 3.0030999999999736e+01 0 0 0
1263 2 2.4610000000000003e+00 4.2625770374269996e+00 3.0030999999999736e+01 0 0 0
1274 2 3.6914999999999996e+00 7.8147245686161639e+00 3.0030999999999736e+01 0 0 0
1275 2 3.6914999999999996e+00 6.3938655561404980e+00 3.0030999999999736e+01 0 0 0
1276 2 4.9220000000000006e+00 5.6834360499026637e+00 3.0030999999999736e+01 0 0 0
1277 2 4.9220000000000006e+00 4.2625770374269978e+00 3.0030999999999736e+01 0 0 0
1292 2 6.1524999999999999e+00 7.8147245686161639e+00 3.0030999999999736e+01 0 0 0
1293 2 6.1524999999999999e+00 6.3938655561404980e+00 3.0030999999999736e+01 0 0 0
1294 2 7.3829999999999991e+00 5.6834360499026637e+00 3.0030999999999736e+01 0 0 0
1295 2 7.3829999999999991e+00 4.2625770374269996e+00 3.0030999999999736e+01 0 0 0
1314 2 8.6135000000000002e+00 7.8147245686161639e+00 3.0030999999999736e+01 0 0 0
1315 2 8.6135000000000002e+00 6.3938655561404980e+00 3.0030999999999736e+01 0 0 0
1316 2 9.8440000000000012e+00 5.6834360499026637e+00 3.0030999999999736e+01 0 0 0
1317 2 9.8440000000000012e+00 4.2625770374270004e+00 3.0030999999999736e+01 0 0 0
1337 2 1.1074500000000002e+01 7.8147245686161639e+00 3.0030999999999736e+01 0 0 0
1338 2 1.1074500000000002e+01 6.3938655561404980e+00 3.0030999999999736e+01 0 0 0
1258 2 0.0000000000000000e+00 9.9460130873296642e+00 3.0030999999999736e+01 0 0 0
1259 2 0.0000000000000000e+00 8.5251540748539991e+00 3.0030999999999736e+01 0 0 0
1270 2 1.2305000000000001e+00 1.2077301606043163e+01 3.0030999999999736e+01 0 0 0
1271 2 1.2305000000000001e+00 1.0656442593567498e+01 3.0030999999999736e+01 0 0 0
1272 2 2.4610000000000003e+00 9.9460130873296642e+00 3.0030999999999736e+01 0 0 0
1273 2 2.4610000000000003e+00 8.5251540748539991e+00 3.0030999999999736e+01 0 0 0
1288 2 3.6914999999999996e+00 1.2077301606043163e+01 3.0030999999999736e+01 0 0 0
1289 2 3.6914999999999996e+00 1.0656442593567499e+01 3.0030999999999736e+01 0 0 0
1290 2 4.9220000000000006e+00 9.9460130873296642e+00 3.0030999999999736e+01 0 0 0
1291 2 4.9220000000000006e+00 8.5251540748539991e+00 3.0030999999999736e+01 0 0 0
1310 2 6.1524999999999999e+00 1.2077301606043163e+01 3.0030999999999736e+01 0 0 0
1311 2 6.1524999999999999e+00 1.0656442593567499e+01 3.0030999999999736e+01 0 0 0
1312 2 7.3830000000000009e+00 9.9460130873296642e+00 3.0030999999999736e+01 0 0 0
1313 2 7.3830000000000009e+00 8.5251540748539991e+00 3.0030999999999736e+01 0 0 0
1333 2 8.6135000000000002e+00 1.2077301606043163e+01 3.0030999999999736e+01 0 0 0
1334 2 8.6134999999999984e+00 1.0656442593567498e+01 3.0030999999999736e+01 0 0 0
1335 2 9.8440000000000012e+00 9.9460130873296642e+00 3.0030999999999736e+01 0 0 0
1336 2 9.8440000000000012e+00 8.5251540748539956e+00 3.0030999999999736e+01 0 0 0
1356 2 1.1074500000000002e+01 1.2077301606043163e+01 3.0030999999999736e+01 0 0 0
1357 2 1.1074500000000002e+01 1.0656442593567498e+01 3.0030999999999736e+01 0 0 0
1268 2 0.0000000000000000e+00 1.4208590124756663e+01 3.0030999999999736e+01 0 0 0
1269 2 0.0000000000000000e+00 1.2787731112280996e+01 3.0030999999999736e+01 0 0 0
1285 2 1.2305000000000001e+00 1.4919019630994494e+01 3.0030999999999736e+01 0 0 0
1286 2 2.4610000000000003e+00 1.4208590124756663e+01 3.0030999999999736e+01 0 0 0
1287 2 2.4610000000000003e+00 1.2787731112280996e+01 3.0030999999999736e+01 0 0 0
1307 2 3.6915000000000004e+00 1.4919019630994494e+01 3.0030999999999736e+01 0 0 0
1308 2 4.9220000000000006e+00 1.4208590124756663e+01 3.0030999999999736e+01 0 0 0
1309 2 4.9220000000000006e+00 1.2787731112280996e+01 3.0030999999999736e+01 0 0 0
1330 2 6.1524999999999990e+00 1.4919019630994494e+01 3.0030999999999736e+01 0 0 0
1331 2 7.3830000000000009e+00 1.4208590124756663e+01 3.0030999999999736e+01 0 0 0
1332 2 7.3829999999999991e+00 1.2787731112280996e+01 3.0030999999999736e+01 0 0 0
1373 2 1.1074500000000002e+01 1.6339878643470161e+01 3.0030999999999736e+01 0 0 0
1375 2 1.2304999999999998e+01 1.4208590124756658e+01 3.0030999999999736e+01 0 0 0
1355 2 9.8440000000000012e+00 1.2787731112280996e+01 3.0030999999999736e+01 0 0 0
1374 2 1.1074500000000002e+01 1.4919019630994494e+01 3.0030999999999736e+01 0 0 0
1354 2 9.8440000000000012e+00 1.4208590124756663e+01 3.0030999999999736e+01 0 0 0
1353 2 8.6135000000000002e+00 1.4919019630994494e+01 3.0030999999999736e+01 0 0 0
1411 2 0.0000000000000000e+00 2.8417180249513345e+00 3.3250203442674959e+01 0 0 0
1412 2 0.0000000000000000e+00 0.0000000000000000e+00 3.3250203442674959e+01 0 0 0
1413 2 1.2305000000000001e+00 7.1042950623783474e-01 3.3250203442674959e+01 0 0 0
1417 2 1.2305000000000001e+00 2.1312885187134998e+00 3.3250203442674959e+01 0 0 0
1418 2 2.4610000000000003e+00 2.8417180249513345e+00 3.3250203442674959e+01 0 0 0
1419 2 2.4610000000000003e+00 0.0000000000000000e+00 3.3250203442674959e+01 0 0 0
1420 2 3.6915000000000004e+00 7.1042950623783474e-01 3.3250203442674959e+01 0 0 0
1428 2 3.6914999999999996e+00 2.1312885187134998e+00 3.3250203442674959e+01 0 0 0
1429 2 4.9220000000000006e+00 2.8417180249513332e+00 3.3250203442674959e+01 0 0 0
1430 2 4.9220000000000006e+00 0.0000000000000000e+00 3.3250203442674959e+01 0 0 0
1431 2 6.1524999999999999e+00 7.1042950623783407e-01 3.3250203442674959e+01 0 0 0
1443 2 6.1524999999999999e+00 2.1312885187134989e+00 3.3250203442674959e+01 0 0 0
1444 2 7.3829999999999991e+00 2.8417180249513345e+00 3.3250203442674959e+01 0 0 0
1445 2 7.3829999999999991e+00 0.0000000000000000e+00 3.3250203442674959e+01 0 0 0
1446 2 8.6134999999999984e+00 7.1042950623783407e-01 3.3250203442674959e+01 0 0 0
1462 2 8.6134999999999984e+00 2.1312885187135002e+00 3.3250203442674959e+01 0 0 0
1463 2 9.8440000000000012e+00 2.8417180249513332e+00 3.3250203442674959e+01 0 0 0
1464 2 9.8440000000000012e+00 0.0000000000000000e+00 3.3250203442674959e+01 0 0 0
1465 2 1.1074500000000002e+01 7.1042950623783330e-01 3.3250203442674959e+01 0 0 0
1485 2 1.1074500000000002e+01 2.1312885187135002e+00 3.3250203442674959e+01 0 0 0
1414 2 0.0000000000000000e+00 7.1042950623783341e+00 3.3250203442674959e+01 0 0 0
1415 2 0.0000000000000000e+00 4.2625770374269996e+00 3.3250203442674959e+01 0 0 0
1416 2 1.2305000000000001e+00 4.9730065436648339e+00 3.3250203442674959e+01 0 0 0
1424 2 1.2305000000000001e+00 6.3938655561404980e+00 3.3250203442674959e+01 0 0 0
1425 2 2.4610000000000003e+00 7.1042950623783341e+00 3.3250203442674959e+01 0 0 0
1426 2 2.4610000000000003e+00 4.2625770374269996e+00 3.3250203442674959e+01 0 0 0
1427 2 3.6914999999999996e+00 4.9730065436648339e+00 3.3250203442674959e+01 0 0 0
1439 2 3.6914999999999996e+00 6.3938655561404980e+00 3.3250203442674959e+01 0 0 0
1440 2 4.9220000000000006e+00 7.1042950623783341e+00 3.3250203442674959e+01 0 0 0
1441 2 4.9220000000000006e+00 4.2625770374269978e+00 3.3250203442674959e+01 0 0 0
1442 2 6.1524999999999999e+00 4.9730065436648339e+00 3.3250203442674959e+01 0 0 0
1458 2 6.1524999999999999e+00 6.3938655561404980e+00 3.3250203442674959e+01 0 0 0
1459 2 7.3830000000000009e+00 7.1042950623783341e+00 3.3250203442674959e+01 0 0 0
1460 2 7.3829999999999991e+00 4.2625770374269996e+00 3.3250203442674959e+01 0 0 0
1521 2 8.6135000000000002e+00 1.4919019630994494e+01 3.3250203442674959e+01 0 0 0
1500 2 8.6135000000000002e+00 1.3498160618518835e+01 3.3250203442674959e+01 0 0 0
1461 2 8.6135000000000002e+00 4.9730065436648339e+00 3.3250203442674959e+01 0 0 0
1481 2 8.6135000000000002e+00 6.3938655561404980e+00 3.3250203442674959e+01 0 0 0
1482 2 9.8440000000000012e+00 7.1042950623783341e+00 3.3250203442674959e+01 0 0 0
1483 2 9.8440000000000012e+00 4.2625770374270004e+00 3.3250203442674959e+01 0 0 0
1484 2 1.1074500000000002e+01 4.9730065436648339e+00 3.3250203442674959e+01 0 0 0
1505 2 1.1074500000000002e+01 6.3938655561404980e+00 3.3250203442674959e+01 0 0 0
1421 2 0.0000000000000000e+00 1.1366872099805333e+01 3.3250203442674959e+01 0 0 0
1422 2 0.0000000000000000e+00 8.5251540748539991e+00 3.3250203442674959e+01 0 0 0
1423 2 1.2305000000000001e+00 9.2355835810918343e+00 3.3250203442674959e+01 0 0 0
1435 2 1.2305000000000001e+00 1.0656442593567498e+01 3.3250203442674959e+01 0 0 0
1436 2 2.4610000000000003e+00 1.1366872099805333e+01 3.3250203442674959e+01 0 0 0
1437 2 2.4610000000000003e+00 8.5251540748539991e+00 3.3250203442674959e+01 0 0 0
1438 2 3.6915000000000004e+00 9.2355835810918343e+00 3.3250203442674959e+01 0 0 0
1454 2 3.6914999999999996e+00 1.0656442593567499e+01 3.3250203442674959e+01 0 0 0
1455 2 4.9220000000000006e+00 1.1366872099805333e+01 3.3250203442674959e+01 0 0 0