LAMMPS data file via write_data, version 16 Mar 2018, timestep = 6000000

6736 atoms
2 atom types

1.2906874634052201e-01 4.9090931253656763e+01 xlo xhi
1.2854333514067662e-01 4.8891092595273953e+01 ylo yhi
1.1784187970863158e-01 5.9944158120289813e+01 zlo zhi

Masses

1 18.015
2 12.01

Atoms # atomic

5503 1 1.2298230025111592e+00 9.8352114506521837e-01 1.8087577563822239e+00 1 0 0
2079 1 9.9466108552632471e-01 3.5717390758632881e+00 1.0004775748220565e+00 -2 1 0
2906 1 5.6003027070518936e+00 1.5191743689171688e+00 2.1096486853678833e+00 2 1 1
3869 1 5.6004303713445314e+00 3.7304732461457335e+00 1.0941318834561247e+00 1 -2 0
5947 1 1.0126036694736490e+01 1.0360832468321153e+00 2.3071380719382817e+00 0 0 1
999 1 1.4544272331169353e+01 1.0941557702876696e+00 2.2778373848337301e+00 1 0 1
191 1 1.4547755708016931e+01 3.4808199857398168e+00 1.3469261421691050e+00 -1 -2 0
2762 1 5.7756628668009062e+00 3.4691812386357332e+00 1.1980360997314916e+01 -1 3 1
5590 1 3.1698576503672085e+00 4.6618033454614034e+00 2.1383376958874614e+00 0 1 0
2573 1 3.2815827607594574e+00 7.3307611791282339e+00 1.1646144359677524e+00 3 -1 1
5495 1 7.6775939489492071e+00 5.0473165459470186e+00 2.1513827613504928e+00 -1 3 0
5252 1 7.6201560196036997e+00 7.3121714854031623e+00 9.5906368194466463e-01 6 -2 0
1090 1 1.0064278117475737e+01 3.4572572703421232e+00 1.2687800513348935e+00 -2 3 0
4338 1 1.1942204388455250e+01 7.5102838406119474e+00 1.3082513719815907e+00 1 -3 1
3387 1 1.2221533238284884e+01 4.7568821260390548e+00 2.2155597507621638e+00 -2 -2 1
5508 1 8.3713022131464487e-01 8.5977648677401941e+00 2.2628045991332599e+00 4 -1 0
269 1 6.8329664079576979e-01 1.0816092205686182e+01 1.1780678069695747e+00 1 -5 0
3736 1 5.3073824958057489e+00 8.7160003707556033e+00 2.0876363544750167e+00 -1 0 0
95 1 5.1327528763470047e+00 1.1122040673808034e+01 9.1516290805519429e-01 -2 2 1
2547 1 9.7807005166751484e+00 8.6008815776972707e+00 2.1738899542353818e+00 1 5 1
2151 1 9.9599227775478063e+00 1.1147295556034043e+01 1.3678680100538270e+00 1 0 0
6045 1 1.4417898006955291e+01 8.5137679205846855e+00 2.3188040366926592e+00 0 -1 1
4464 1 1.4081548324428699e+01 1.1037857492367866e+01 1.2064229425238395e+00 2 2 1
3843 1 2.7888122633451928e+00 1.2431533431310537e+01 2.2169694412252117e+00 3 1 0
4149 1 2.7382289514820175e+00 1.5164774778405093e+01 1.5510396879935333e+00 -4 2 1
5117 1 5.1803144255867672e-01 1.5971599854317908e+01 2.2529451966679366e+00 -1 -2 0
438 1 7.4230914180331755e+00 1.2222611995722502e+01 2.1066575593115697e+00 -3 1 0
2914 1 7.2589212593702905e+00 1.4545658788700848e+01 1.3420394884039533e+00 0 -2 0
1164 1 5.3509332390873450e+00 1.5889712402689225e+01 2.2977289331868329e+00 -1 -2 0
3811 1 1.2007649280365621e+01 1.2409051917483168e+01 2.3475302373316347e+00 -1 -2 0
1061 1 1.1494602481169107e+01 1.4589657163658874e+01 1.3997574937880810e+00 5 -1 1
413 1 3.1418691649547892e-01 2.3701096828341264e+01 2.0423443075671819e+00 -3 -1 0
5300 1 1.3390634597759066e+01 2.1437676613218901e+01 8.6652211836016733e+00 0 -2 0
30 1 2.6323714835867009e+00 1.9749068563252386e+01 2.2232523230522823e+00 -3 3 0
253 1 5.1479432051431195e-01 1.8428101252326364e+01 1.2681451930538834e+00 -1 1 0
4196 1 4.9370750546188784e+00 1.8433213735291396e+01 1.4806730977773324e+00 0 1 0
2804 1 7.2919582078285199e+00 1.9552397278740553e+01 2.5697602871193128e+00 4 -4 1
1825 1 9.3980923718749860e+00 1.5737010758716565e+01 2.4454352974661688e+00 0 -2 0
1198 1 9.3522731153340342e+00 1.7936672008290376e+01 1.1607248903179441e+00 3 -1 1
149 1 1.3536208843009979e+01 1.6257368053639592e+01 2.0799985662453695e+00 -2 -3 0
2427 1 1.3717891758992401e+01 1.8660041435562324e+01 1.1294483493197980e+00 -1 -2 1
2918 1 1.5768805743853289e+01 2.0061653439691959e+01 1.9449784801788557e+00 -2 2 1
1783 1 2.5567312898340413e+00 2.2219599546788686e+01 1.2290610020062753e+00 -1 -2 0
2022 1 4.7651840531214855e+00 2.3468536250948002e+01 2.2560939042706001e+00 2 -1 0
39 1 1.5633683158389470e+01 2.2649133501713990e+01 9.2865021218656576e+00 -1 0 0
67 1 7.1234354173259069e+00 2.2109562377989924e+01 1.3327437230111898e+00 2 0 1
5426 1 1.1259326974606109e+01 1.9657328621331736e+01 2.0722426801504561e+00 0 0 0
2602 1 9.1288895758438642e+00 2.3735593613989813e+01 1.9101366849839712e+00 2 4 1
5541 1 1.1278165652594367e+01 2.2332911678455268e+01 1.0108186460164950e+00 0 -1 0
1989 1 1.3222644585749283e+01 2.3641353014562448e+01 2.0368251964340605e+00 2 4 1
1101 1 1.5790071742408017e+01 2.2446786001316816e+01 1.2607876358018009e+00 0 -1 1
4275 1 3.3838458218686029e+00 2.2461374733476083e+00 5.5922417140362510e+00 4 2 1
5489 1 1.1137136547341693e+00 1.1203709401348325e+00 4.7215577375698388e+00 -2 -1 0
6202 1 5.6993017991034538e+00 1.5468905474592827e+00 4.7109073570168922e+00 2 1 1
3636 1 7.9931100917619800e+00 2.6485835599348824e+00 5.5924318365908929e+00 1 2 0
5160 1 1.0100409635986955e+01 1.2297102027994997e+00 4.9146993119280822e+00 3 1 1
5934 1 1.2459923899718396e+01 2.6116422403311392e+00 5.9191302085761324e+00 -1 4 1
5260 1 1.4537806453198582e+01 1.0281577668062676e+00 5.0248808165260641e+00 2 1 0
3430 1 3.2928279757072909e+00 4.6342442932313768e+00 4.7932668504539375e+00 2 -1 1
2188 1 1.2055431595568438e+00 6.0511763715508771e+00 5.8006983480798198e+00 2 2 0
781 1 5.4191788626129460e+00 6.0618592422829183e+00 5.8136699535813818e+00 -1 3 1
5296 1 7.4942479321453819e+00 5.1328280549135519e+00 4.7296727711937727e+00 3 0 0
6172 1 1.0001924977401904e+01 6.0558986626933091e+00 5.8435637749533909e+00 -2 4 1
6078 1 1.2110427334898175e+01 4.8983712757988132e+00 4.8944876819704914e+00 0 1 1
5298 1 1.4250679424078200e+01 6.0935948473349288e+00 6.2054615815255492e+00 -1 -1 0
5982 1 1.0963150347581676e+00 8.4911174913663210e+00 4.9198395748666091e+00 -2 -3 1
2693 1 3.1624782825828164e+00 9.8258108344369699e+00 5.8496732321025604e+00 3 7 1
2659 1 3.1313248053606766e+00 1.2207041491072555e+01 4.7864008143189354e+00 2 2 1
5819 1 5.4471504182401942e+00 8.5602588021919477e+00 4.9459913634020616e+00 3 -4 1
1840 1 7.6471230070165541e+00 9.7374963427596999e+00 5.6144842481086359e+00 2 2 0
3734 1 9.9147898791653919e+00 8.4104417985115134e+00 4.5974447086031152e+00 3 -1 0
244 1 1.1845714629487968e+01 9.7901293924590416e+00 5.8950794901457906e+00 0 0 0
6165 1 1.4235615969703085e+01 8.6009700296215286e+00 5.1042105755782226e+00 4 0 1
6250 1 6.4527022701270331e-01 1.6293592125484100e+01 4.9701228587397335e+00 0 -4 1
369 1 8.1990853276051912e-01 1.3597525622026298e+01 5.7294665698873875e+00 1 1 0
5894 1 7.4676453030853986e+00 1.2137118579604847e+01 4.7506003424840708e+00 -2 -1 1
4596 1 5.3997586689941448e+00 1.3456441219683452e+01 5.7417916276378369e+00 1 -1 1
279 1 5.1390747663072327e+00 1.5956231944890966e+01 4.9390688718509494e+00 -1 -3 0
4403 1 1.1878480580353775e+01 1.2166156464329973e+01 5.0694892426935434e+00 3 3 1
1842 1 9.5038725192104305e+00 1.3432227991150819e+01 5.8597941700406295e+00 1 1 0
375 1 1.4036912152219804e+01 1.4042594685860282e+01 5.8587263649483967e+00 -3 -1 0
3628 1 3.2969624936915248e-01 2.0964898918027728e+01 8.4104562385703545e+00 -1 4 0
6034 1 2.8477739305232785e+00 1.7451319879789409e+01 5.8967684661319160e+00 1 -1 1
5572 1 2.7383453450059778e+00 1.9896690442697871e+01 5.0901824470131878e+00 2 3 0
277 1 7.0788435652313026e+00 1.7583209916958456e+01 6.2086769766318737e+00 -6 -2 0
3680 1 7.2092777616942127e+00 1.9869188158790660e+01 5.0945483849518904e+00 4 -2 0
2586 1 8.9195007992984117e+00 1.5959266947521471e+01 4.9803065839856711e+00 -3 -5 1
835 1 1.1237182813763679e+01 1.7444359609926430e+01 5.6470032223696673e+00 -3 -1 1
871 1 1.1507278597719202e+01 2.0037012523058209e+01 4.8452516978927704e+00 -1 1 1
3627 1 1.3774203852307727e+01 1.6555863619135192e+01 4.7919840152312947e+00 1 3 0
836 1 1.5821413709324638e+01 2.0620776067596115e+01 4.8685108348841055e+00 -3 1 1
1800 1 1.5928998710181615e+01 1.4950803304652549e+01 1.1835729612031470e+01 0 -1 0
3713 1 7.0164695748803156e+00 2.2155757235108492e+01 1.1914075591987178e+01 5 -2 0
2462 1 4.6699938207084992e+00 2.3598972048059220e+01 4.8845545172675662e+00 2 3 0
1135 1 5.1020276740614507e+00 2.1091901748859414e+01 5.8775383857822971e+00 -1 0 1
5385 1 9.4217983544456736e+00 2.1413655811342142e+01 5.7137573036738321e+00 2 -1 0
2698 1 9.3328062069152917e+00 2.3934664047890415e+01 4.5850154944812020e+00 0 3 1
6166 1 1.3565620374256149e+01 2.1212027594714556e+01 6.0778317954954639e+00 -5 1 1
165 1 1.3508243884932661e+01 2.3493716726878581e+01 4.6919910942092562e+00 0 -3 0
6079 1 3.3093070009698544e+00 2.7970193379255095e+00 8.5606175211095117e+00 1 0 1
2687 1 8.8665031543444484e-01 3.7156756666017627e+00 9.5017270640652765e+00 -1 0 1
1855 1 1.5918043574087822e+01 1.5069866224684960e+01 9.1297310447934326e+00 -4 0 0
1778 1 1.6358342101026153e+01 1.2382439353750975e+01 2.0239888887774327e+00 -1 3 0
5125 1 7.6757766065227671e+00 2.4350264045070209e+00 8.2583160154047963e+00 -2 -4 0
5174 1 5.4445669553737135e+00 3.7295088585664082e+00 9.4723443635406710e+00 0 1 1
394 1 9.6969468603276265e+00 3.4522385118086159e+00 9.4371084936200784e+00 0 -3 0
1719 1 9.2055694512880990e+00 2.1565490144881039e+01 8.4841052238689780e+00 -1 4 0
4337 1 1.2615350302089542e+01 2.6784065178233103e+00 8.7111024481543939e+00 2 -4 0
5310 1 1.4674055460096685e+01 3.7368695639937219e+00 9.7766877320599690e+00 -4 -2 1
2 1 6.8118542695846536e+00 2.2488238773730458e+01 9.0276571430032408e+00 -1 3 1
2433 1 8.5124131421435922e-01 6.1125440101935054e+00 8.4172736426293522e+00 3 0 0
5363 1 3.0678756409273880e+00 7.0111038766216947e+00 9.3173712847384014e+00 0 -1 0
4320 1 4.7028371699790714e+00 2.1006908762611502e+01 8.7105398912178895e+00 2 1 0
3567 1 5.3613197733424549e+00 6.1320924509088135e+00 8.5080930196157691e+00 -4 1 0
2164 1 7.4109940964635230e+00 7.3372787888674420e+00 9.4602992628606533e+00 -2 0 1
4122 1 2.3920053228280356e+00 2.2097406977253897e+01 9.4471802094486002e+00 1 -1 1
757 1 9.6230275625317443e+00 6.0243101823091783e+00 8.6246094928934589e+00 -5 0 1
2153 1 1.2309417384213322e+01 7.3959172900686054e+00 9.5776936934024040e+00 -3 4 0
3706 1 1.4414969801209274e+01 6.2442647667219573e+00 8.9488027876780887e+00 3 -2 0
913 1 1.1068107778743759e+01 2.2955557978868679e+01 9.5057658180004747e+00 4 1 1
4390 1 3.2917231049552758e+00 9.7489477524930024e+00 8.5138869267204278e+00 -4 2 1
5113 1 9.7762882439676146e-01 1.0749811203524551e+01 9.3079253034750593e+00 -3 2 1
5182 1 7.5488677383896041e+00 9.8835491500115911e+00 8.3504410061671095e+00 -2 -1 1
749 1 5.3856776142505973e+00 1.1274451215030172e+01 9.1799117004173549e+00 0 -3 0
2875 1 6.5630456766719925e-01 2.1278954228099654e+01 5.7679340869887747e+00 -3 1 1
3498 1 9.7191743532117894e+00 1.1080624518916295e+01 9.6125258497897050e+00 0 2 0
4199 1 1.1727855843047841e+01 9.7853216999778159e+00 8.6383703711867010e+00 -3 -1 1
5394 1 1.3346251048797457e+01 1.8902530317464596e+01 9.3575233587543227e+00 2 0 0
3674 1 1.4012143975396322e+01 1.1049669241754993e+01 9.5226898751582763e+00 1 0 0
503 1 8.0842777252646314e-01 1.3461371166313080e+01 8.1421538687401487e+00 -2 2 0
5468 1 3.0339000707366313e+00 1.4773464153034569e+01 9.2204974705964631e+00 -5 -2 0
3677 1 5.1638786674513790e+00 1.3586861716915083e+01 8.4192061588891036e+00 3 0 0
4347 1 7.2399710437241271e+00 1.4547717551720940e+01 9.7368484637000794e+00 1 0 1
3672 1 9.5146828264135053e+00 1.3405169257222102e+01 8.4636686534320713e+00 0 1 0
6297 1 1.1547305234544501e+01 1.4824468635030646e+01 9.1682725570885282e+00 1 5 0
2131 1 1.3722733649817451e+01 1.3602222492733770e+01 8.7016294100350926e+00 -2 -4 0
2567 1 1.5675174057270526e+01 1.7745752545921771e+01 8.3068718193331215e+00 -2 0 1
5587 1 2.7540243639439734e+00 1.7354958863687564e+01 8.5586284562881438e+00 2 2 0
2898 1 5.9345944326531042e-01 1.8620880735385416e+01 9.7951221681452711e+00 1 8 1
2008 1 7.3015235881082221e+00 1.7286651398248694e+01 8.8806722347884683e+00 2 -1 0
2817 1 4.9482115036559868e+00 1.8452389347819750e+01 9.6245151399855544e+00 1 4 1
6199 1 1.1447180753161954e+01 1.7471029211843888e+01 8.5444548588319318e+00 3 2 0
4519 1 9.2814196994380804e+00 1.8839968567799193e+01 9.3560770295258830e+00 -2 1 1
1000 1 1.5957019195053991e+01 1.4909901855361248e+01 1.4323617385681706e+00 1 0 1
2752 1 1.6330536511401462e+01 1.2445028687171554e+01 5.0378485138998164e+00 0 0 0
186 1 3.6224551140158439e+00 1.9994071040915173e-01 1.1458850238604750e+00 -1 3 0
5339 1 1.6232820624717036e+01 1.0026523850930241e+01 6.1470974047135876e+00 -2 0 0
2924 1 2.3000936190496504e-01 2.3792080664276291e+01 4.8278446701949962e+00 -1 4 0
2470 1 1.5768344858466484e+01 1.7890194738585251e+01 5.8231912214840236e+00 2 0 1
1042 1 1.6279300197184853e+01 1.0266101289314095e+01 8.6957518860637979e+00 -2 1 1
4250 1 3.5028956011606152e+00 1.3458175891957325e-01 9.3230784106062128e+00 1 1 1
5084 1 2.4907952695184390e+00 2.1812131200065295e+01 1.2009869857713916e+01 1 -2 0
6171 1 1.1122503869520022e+00 1.1129003275722075e+01 1.2046245623011691e+01 1 -2 1
5943 1 1.3315153624158433e+00 3.4272072418446506e+00 1.2017031660400951e+01 1 -1 1
1121 1 1.1672738953307455e+01 1.5231909116063493e+01 1.1924314937226535e+01 5 0 1
2503 1 3.2971132906990377e+00 7.0317845781492290e+00 1.1857591474351327e+01 -2 2 1
1008 1 1.1100889515834888e+01 2.2699825044487035e+01 1.2023464014174531e+01 1 -2 1
5976 1 9.6674047109409056e+00 3.6305927910156135e+00 1.2057788571401087e+01 -1 5 1
1902 1 5.6496908515859596e+00 1.1304853126765773e+01 1.1879380379739043e+01 -3 1 1
4467 1 1.4455822140964196e+00 8.6750575313032363e-01 1.2692264239719345e+01 3 3 1
414 1 1.1490620780626712e+00 9.3045838823688110e-01 1.5546674570916366e+01 2 -4 0
54 1 5.8903457341010128e+00 1.0520075902868076e+00 1.2914953277594259e+01 1 -1 1
194 1 5.6607531800004223e+00 9.8608516340713770e-01 1.5616644718595277e+01 2 1 1
226 1 1.0233197963693993e+01 1.2015450348620398e+00 1.3108089834357060e+01 -3 0 1
807 1 1.0374648139090999e+01 1.0013147420662216e+00 1.5867648883904668e+01 3 5 0
4612 1 1.4408296947354257e+01 1.4424849076315305e+00 1.3448347235163659e+01 2 0 1
5153 1 1.4763833686035143e+01 1.2145054564382762e+00 1.6101055799282683e+01 0 3 0
5989 1 3.6088853219803489e+00 4.6725313000122961e+00 1.2901592943258459e+01 -4 3 1
1070 1 1.3493827879321609e+00 8.5899574521977797e+00 1.3275426350666928e+01 -1 4 1
5481 1 7.7194398776401778e+00 5.0247321222067134e+00 1.3119163519283488e+01 1 3 0
5564 1 7.8184206415059965e+00 4.7296680911765971e+00 1.5902181341481203e+01 0 -2 0
188 1 1.2230847088874629e+01 5.2729916495385982e+00 1.2858744008664283e+01 1 2 1
252 1 1.5815328729590453e+01 2.0233655497134162e+01 2.3117110448115824e+01 -1 -2 0
1119 1 1.2418566627938393e+01 4.7434422879085325e+00 1.5322213722711485e+01 1 6 1
5322 1 4.6154864590600306e+00 2.3722614461088799e+01 2.2932917842762677e+01 -1 -2 0
312 1 1.2446591226317962e+00 8.5769855675165836e+00 1.6111465347967446e+01 1 0 0
463 1 3.5046321996822640e+00 1.2374988223483555e+01 1.3229610874027943e+01 -3 -1 0
2824 1 3.0252780109203541e+00 1.2320721361262315e+01 1.5864249977309704e+01 0 -1 1
1048 1 5.2917700517948303e+00 8.8083069120751833e+00 1.3207418536012423e+01 1 -1 1
1950 1 7.5168672156360357e+00 1.2568924377974444e+01 1.3406607541269592e+01 -1 -2 1
4407 1 5.7228365190175676e+00 8.7074100311032012e+00 1.5820882725812107e+01 3 0 1
5085 1 9.5039293703514662e+00 8.7892457148430072e+00 1.3002552866958039e+01 2 -1 0
1890 1 9.9529632683608256e+00 8.5328903160739955e+00 1.5702262303871098e+01 4 3 0
5484 1 6.7741617894359518e-01 1.8572445803808559e+01 1.6634094587425775e+01 0 1 0
1232 1 1.4172339632774467e+01 8.8467400856845053e+00 1.3296993562149034e+01 -4 1 1
815 1 1.4330964532501293e+01 8.8768877103964652e+00 1.6041168860841228e+01 2 2 1
5101 1 7.6247138720555352e+00 1.4925528375498047e+01 1.2494601578548023e+01 0 -2 1
1046 1 9.2171383514748173e-01 1.6056960823385566e+01 1.3012998647393824e+01 0 1 1
1759 1 7.3778759331250745e+00 1.2339318758184854e+01 1.5920015860802938e+01 3 5 0
1949 1 5.3931584483263615e+00 1.6018452492407157e+01 1.3247138026395916e+01 3 -1 0
5511 1 5.1118660026122287e-01 2.3500466765185948e+01 1.2937703909385970e+01 1 3 0
1014 1 1.1665867768988715e+01 1.2626600269452133e+01 1.5652557603793761e+01 -1 0 1
830 1 1.1709347303829384e+01 1.2791780007277911e+01 1.2965666910218374e+01 -2 2 1
5844 1 9.5329894533490513e+00 1.6204540797475126e+01 1.5924463881749242e+01 -1 0 1
1746 1 9.6197163264658130e+00 1.6274580818108284e+01 1.3393359231883714e+01 -2 1 0
2501 1 1.6173935678250960e+01 1.2592145860593970e+01 1.5874653170511580e+01 -1 -2 1
98 1 6.0644477936978669e-01 2.3807296049437952e+01 1.5570322748342399e+01 -1 -2 0
5516 1 1.4026735395605041e+01 1.6591808951270753e+01 1.5277382638540271e+01 3 -1 1
2016 1 1.6282666353595665e+01 7.1739895655648009e+00 1.6989361507846095e+01 3 -6 0
5840 1 6.4081077715080881e-01 2.3856505598739513e+01 2.0388221461855160e+01 1 -2 0
861 1 3.1296235402231463e+00 1.9592177751509681e+01 1.3200085922483114e+01 0 -4 0
3531 1 2.8103273018918817e+00 1.9979743972202979e+01 1.5939292412102850e+01 -2 0 0
5869 1 9.6083601295544891e+00 1.1406324736904176e+01 1.2113556075444171e+01 -2 -6 1
737 1 7.0601141617377872e+00 1.9796782482124705e+01 1.2983879800463258e+01 0 1 0
2792 1 7.1339059406657865e+00 1.9956142071206258e+01 1.5433199513451138e+01 -3 1 1
5569 1 1.5415090771211494e+01 2.0346826803053926e+01 2.0484663012696483e+01 -5 0 0
2540 1 1.1531897667583355e+01 2.0350271355810325e+01 1.3073301139221108e+01 1 3 1
5311 1 1.1581468685616692e+01 2.0087212638943516e+01 1.5606443778822420e+01 -1 2 0
6214 1 1.5998812357735153e+01 1.5206368755411630e+01 1.6560061477955685e+01 0 2 1
5212 1 1.3831713253067244e+01 1.6296664713666672e+01 1.2664985381072853e+01 0 3 0
1803 1 1.5611428804750943e+01 1.9959129230032236e+01 1.3358782959518466e+01 5 2 1
5349 1 1.5135979291318110e+01 2.0230096997507800e+01 1.6423215597167744e+01 1 -2 0
1776 1 4.6223236417635558e+00 2.3942016227433690e+01 2.0193629930736996e+01 2 -1 0
4426 1 4.5155886485347612e+00 2.3201200878751308e+01 1.2705695246025524e+01 -1 5 0
2514 1 4.8066910456143361e+00 2.3404318392709673e+01 1.5617539314908134e+01 -3 0 1
3726 1 1.3969821700319065e+01 1.1451402182066731e+01 1.2108230674213038e+01 0 -1 0
5265 1 9.0130447947245358e+00 2.3460951759011994e+01 1.3194229268923428e+01 7 -2 1
5559 1 1.3191391427054970e+01 2.3950919342947625e+01 1.5946410500089357e+01 0 6 0
2121 1 1.3280689636443970e+01 2.3830890760491283e+01 1.3283534734636826e+01 -2 0 0
4113 1 1.0096557536815094e+00 3.3413125458238473e+00 1.6354094836811125e+01 1 3 0
5334 1 9.8612025523118652e-01 3.3357057205945173e+00 1.9038830674675363e+01 0 2 0
3761 1 5.7253905809625909e+00 3.4948649219678587e+00 1.6544710715608616e+01 -2 1 0
5205 1 5.7158768329277558e+00 3.5104890727842126e+00 1.9173000515728159e+01 2 1 0
6190 1 9.9274888165294595e+00 3.5982949858056417e+00 1.9397390016373944e+01 1 0 1
1826 1 9.9548167595766817e+00 3.6809336073713332e+00 1.6728121759114934e+01 3 3 0
4349 1 1.1494718937097248e+01 2.0033878276406877e+01 2.3277090484751604e+01 4 1 1
2476 1 1.5865661025385418e+01 1.7441766953330674e+01 2.3556502517982697e+01 -2 -2 1
1180 1 1.4478088663588922e+01 3.8650628490819861e+00 1.9714296354162574e+01 1 -1 1
882 1 3.2237433460138960e+00 4.8912596321505459e+00 1.5750575483014718e+01 1 3 1
2591 1 3.5502512601851342e+00 7.4051174529389945e+00 1.6761918127692216e+01 3 -1 1
2761 1 3.3596422172388611e+00 7.4003884489879965e+00 1.9340157798755840e+01 -2 2 1
3842 1 7.7599315121652142e+00 7.2637127680102527e+00 1.6805801020714149e+01 -1 1 0
2513 1 7.6487390290428738e+00 7.3686586884850556e+00 1.9360090115500086e+01 -5 4 1
6257 1 1.2137974171189502e+01 7.3089848231832244e+00 1.6599155783774854e+01 -1 -1 0
2061 1 1.2178364972365419e+01 7.5532380106801824e+00 1.9211687444173197e+01 0 -1 0
5314 1 1.4534702000183383e+01 3.6110199296640619e+00 1.7036495229827100e+01 -1 2 1
4112 1 6.8174423319831523e-01 1.1283354949151677e+01 1.6918709874432654e+01 1 -2 1
2432 1 9.3051949803433487e-01 1.1146519587828831e+01 1.9662352036479483e+01 -2 2 1
1915 1 5.3675268361299171e+00 1.1027200266377767e+01 1.6881910693474548e+01 -1 1 0
5554 1 5.2325918082009668e+00 1.1090449663333160e+01 1.9658823710455430e+01 -1 -1 0
1763 1 9.6884306486406881e+00 1.1269170503079337e+01 1.6668990493830339e+01 1 0 0
2910 1 9.7950581793861584e+00 1.1251945917711339e+01 1.9210011179096337e+01 2 0 1
278 1 1.3853856167420854e+01 1.1384362831384282e+01 1.6806007707797018e+01 -2 1 0
2196 1 1.4390357458780173e+01 1.1150408711231549e+01 1.9599609643093803e+01 1 -1 0
2431 1 9.4207039746105492e-01 1.5883728018206023e+01 1.5608880523824746e+01 2 -1 1
3738 1 3.0973879463735878e+00 1.4700103512949479e+01 1.6782306890685970e+01 -3 4 0
2115 1 2.9028955098235758e+00 1.4640959207894332e+01 1.9500120683681576e+01 -2 2 0
5181 1 5.1439055151494584e+00 1.6131958238086195e+01 1.5828145902022834e+01 3 -4 0
385 1 7.3150081508323419e+00 1.4899057977532353e+01 1.6896773926040279e+01 -2 3 0
3602 1 7.3756730879305721e+00 1.4916219156950872e+01 1.9453676699681054e+01 0 1 0
5342 1 1.1975598240104983e+01 1.5096617478899772e+01 1.6697133464878899e+01 0 -2 0
298 1 1.1799267705122768e+01 1.4987727086030246e+01 1.9342486373731845e+01 -1 0 0
5832 1 1.6145027704070564e+01 1.2333531027091546e+01 1.3074583911450643e+01 1 4 0
117 1 1.6108432936060044e+01 1.4694490083566642e+01 1.9351739635314246e+01 0 -2 0
4215 1 8.7180811836259076e-01 1.8634079265126758e+01 1.9228127564978742e+01 3 2 1
6020 1 7.3091687142157724e-01 2.3747793088370159e+01 2.3143792432796282e+01 -2 -1 1
953 1 5.0641956421585128e+00 1.8743051021378683e+01 1.6640147877692577e+01 2 3 1
60 1 5.1856340944786785e+00 1.8264065885721298e+01 1.9217729943335993e+01 3 1 0
305 1 9.5233179531274637e+00 1.8617816045237952e+01 1.9263027330306389e+01 2 0 0
5936 1 9.4957737170357124e+00 1.8783650712943050e+01 1.6462626475312131e+01 1 1 1
5331 1 1.3279117869850937e+01 1.8629636916261070e+01 1.6590404293675451e+01 -1 -2 0
4331 1 1.3409611721989480e+01 1.8594713320385743e+01 1.9397430313687522e+01 1 1 1
6305 1 2.7811449996812443e+00 2.2490432398062847e+01 1.9306666647895184e+01 0 -1 0
1772 1 2.6640146517213763e+00 2.2604205562932357e+01 1.6785114038474685e+01 1 3 0
801 1 6.8311636153774655e+00 2.2640300135687230e+01 1.9375937488330795e+01 2 -1 1
1718 1 6.9889351958491952e+00 2.2329589239631975e+01 1.6557578116330259e+01 0 -2 0
4343 1 9.0341873364356697e+00 2.3744559679262075e+01 1.5762225382225369e+01 -2 3 1
146 1 1.1102723778075863e+01 2.2561807735391735e+01 1.7036977495044351e+01 1 -2 0
5188 1 1.0825832286061630e+01 2.2603465173850910e+01 1.9803767767913303e+01 3 1 0
3486 1 1.5319378555703411e+01 2.2881629154996308e+01 1.9518715177743353e+01 -1 1 0
5157 1 1.5190893768941297e+01 2.2687758342444667e+01 1.7045866215578638e+01 0 0 0
1923 1 1.2692097764415204e+00 1.2218280293668953e+00 2.2869065571949875e+01 2 1 1
384 1 1.2715682496862408e+00 7.6286555341054507e-01 2.0053940728638775e+01 -1 -6 0
236 1 8.8182093393416547e+00 2.3931911739060350e+01 2.0518826626215066e+01 -1 -3 1
5450 1 5.7147557814114824e+00 9.5021150465077664e-01 2.2858493239736678e+01 0 0 0
5474 1 5.4571821221590353e+00 1.0896611411366903e+00 2.0081586158726861e+01 4 -1 0
2700 1 1.0126854123803197e+01 1.2285685003130611e+00 2.0494584735701132e+01 -2 0 1
5116 1 1.0380569850245330e+01 1.1754956804398715e+00 2.3342371676292057e+01 -3 -1 0
6206 1 1.4428963121703180e+01 1.2532593302326922e+00 2.0628938793899721e+01 0 0 1
1936 1 1.4589936235091866e+01 1.0569618315916802e+00 2.3194993259009010e+01 2 1 0
5255 1 3.3630929529309448e+00 4.6663007352090844e+00 2.2854771911273062e+01 1 7 0
3625 1 3.5037023034096988e+00 4.7697421981948125e+00 2.0042799860600535e+01 2 -4 1
4611 1 8.6536591823970443e+00 2.4041679778229863e+01 2.3052393606520948e+01 -2 3 1
4405 1 7.7407132839231583e+00 4.8660286306706455e+00 2.0500432301914202e+01 2 2 0
1075 1 7.4954449572826514e+00 4.6170829725221907e+00 2.3284371989297988e+01 -2 2 0
3857 1 1.2035144910027547e+01 4.8414863436436422e+00 2.3192033282084978e+01 1 2 1
6179 1 1.2252300008068771e+01 5.0991676678012130e+00 2.0421418610882611e+01 2 0 1
412 1 1.0142924171306653e+00 8.5874491767648209e+00 2.2876005017106298e+01 1 1 0
2664 1 1.1910676088962628e+00 8.4544478254195035e+00 2.0155211917050131e+01 1 3 1
2604 1 3.3040492086780429e+00 1.2436156470645171e+01 2.3442315822198225e+01 -2 -1 1
2056 1 5.4224818026391670e+00 8.4949759308861417e+00 2.0505450388758703e+01 1 -2 1
5358 1 5.2114486790599921e+00 8.5268465322537921e+00 2.3312938095143238e+01 -1 -1 1
2733 1 9.8431196003401062e+00 8.6876324014828086e+00 2.3004577366928963e+01 3 0 1
97 1 1.0032406233123943e+01 8.7551697975649212e+00 2.0232097947508443e+01 -3 -1 1
92 1 1.3316406009987405e+01 2.4080689802651261e+01 2.3491973671331859e+01 1 1 1
2770 1 1.4449715380143124e+01 8.3062619839197431e+00 2.3520028132546692e+01 5 -3 1
212 1 1.4403074418367668e+01 8.5604387731849254e+00 2.0706738683908519e+01 -5 0 0
2904 1 3.2782699500997055e+00 1.2175276294645638e+01 2.0828830099413079e+01 0 3 1
2922 1 8.0462692750633547e-01 1.6205456398840234e+01 2.0104733533056336e+01 -1 0 1
6126 1 3.4234836859542495e-01 1.6498911603690967e+01 2.3000523863541847e+01 -1 -2 1
228 1 7.7429793910335816e+00 1.2441400888652907e+01 2.2861783139191317e+01 3 -3 0
190 1 7.7637235116557282e+00 1.2269128952785854e+01 2.0208412317350120e+01 1 -1 1
2670 1 5.1571895768878111e+00 1.5991994489390901e+01 2.0138082562568009e+01 2 -1 1
6293 1 1.2206119558872199e+01 1.2342543427021209e+01 2.0329380835355568e+01 0 0 1
896 1 1.2336083547243852e+01 1.2323990135882818e+01 2.3008675350849458e+01 -1 -1 1
2713 1 9.7852164435723914e+00 1.6083862972820906e+01 2.3381867669645782e+01 2 -2 1
1790 1 9.4993243255823607e+00 1.6174748348598342e+01 2.0462285619921101e+01 0 1 0
5245 1 1.3980617697073178e+01 1.6209823769345871e+01 2.0302153174566655e+01 -1 -1 0
1040 1 1.3858637989062569e+01 1.5801900989132390e+01 2.2831371402005679e+01 0 -1 1
198 1 3.0403598235502596e+00 1.9829281039962140e+01 2.0188276364128470e+01 0 0 1
4150 1 2.8365705483661294e+00 1.9900390791881165e+01 2.3058547539915949e+01 3 2 0
3434 1 1.3066438064738742e+01 2.3728095290889559e+01 2.0583776859563930e+01 -1 0 0
483 1 7.2085058766223380e+00 2.0065944779440702e+01 2.3130765851447975e+01 3 -3 0
4562 1 5.1584269674406649e+00 1.6358889343056280e+01 2.3061781402103513e+01 2 2 0
4319 1 7.2312653744770925e+00 2.0003830925967748e+01 2.0340892414662669e+01 -3 5 1
4453 1 1.1331923686534250e+01 2.0004572852830215e+01 2.0560449394701408e+01 2 -1 1
2890 1 5.1942301008299880e+00 1.8262667045274888e+01 1.2398175013999181e+01 3 1 1
3421 1 7.0807363156450365e-01 1.8495223454174909e+01 1.2303584106946834e+01 0 2 0
6180 1 1.4561316047433126e+01 3.7213230701443636e+00 1.2394081142946678e+01 4 -2 1
919 1 1.1581405390381065e+00 6.0900263571621194e+00 2.3535854580458206e+01 0 2 1
3562 1 1.1989432571544741e+01 7.7413142161979485e+00 1.2293975485057818e+01 -1 0 0
5099 1 7.8800258785883068e+00 2.1251406297305646e+00 2.3876122788437108e+01 0 -2 0
6036 1 9.7147499351517599e+00 6.2020082813042885e+00 2.3852542434875090e+01 -1 1 1
2199 1 9.5389610224262054e+00 1.8500010474450143e+01 1.2161034664926715e+01 2 -2 0
5576 1 7.5762169014464833e+00 1.7440775241054688e+01 2.3832327921570741e+01 -4 -1 0
1128 1 1.3531657477173910e+01 2.1539416721463017e+01 2.3342681328174059e+01 -2 -1 1
3532 1 1.2203162364267520e+01 9.6359254460562234e+00 2.3963642789872651e+01 6 2 0
6208 1 4.8193828799393428e+00 2.1339298102253295e+01 2.3696090361009396e+01 1 1 1
4605 1 3.6321423047642765e+00 2.3754276857296115e+00 2.3867220619904582e+01 5 0 1
1118 1 3.0465678714166700e+00 9.9918139091488154e+00 2.4012182854395359e+01 -1 -2 1
2066 1 5.0773279352325353e+00 6.1185928773640530e+00 2.3850807241712221e+01 0 4 0
4216 1 7.4744990614519295e+00 9.8868526232850584e+00 2.3805257520207910e+01 -2 5 1
3799 1 9.1832603483303821e+00 2.1490186782820299e+01 2.3736564282710550e+01 3 -3 0
3442 1 1.5196601177685224e+01 2.2367152659494966e+01 1.2102940868446831e+01 3 -2 0
4393 1 7.5543902888733196e+00 7.5084971029423482e+00 1.2120170218558336e+01 -1 0 1
4363 1 3.2370855164685710e+00 1.4763484112684225e+01 1.2127005463119955e+01 3 2 0
5227 1 1.3479684316369168e+01 1.9016186458332751e+01 1.2084993803009587e+01 1 1 0
511 2 1.2906874634052201e-01 2.9553577850035206e+00 2.6733899442699652e+01 0 0 0
512 2 1.2906874634052201e-01 1.2854333514067662e-01 2.6733899442699652e+01 0 0 0
513 2 1.3531153090231571e+00 8.3524694760663842e-01 2.6733899442699652e+01 0 0 0
517 2 1.3531153090231571e+00 2.2486541725373979e+00 2.6733899442699652e+01 0 0 0
518 2 2.5771618717057923e+00 2.9553577850035206e+00 2.6733899442699652e+01 0 0 0
519 2 2.5771618717057923e+00 1.2854333514067662e-01 2.6733899442699652e+01 0 0 0
520 2 3.8012084343893271e+00 8.3524694760663842e-01 2.6733899442699652e+01 0 0 0
528 2 3.8012084343893271e+00 2.2486541725373979e+00 2.6733899442699652e+01 0 0 0
529 2 5.0252549970710625e+00 2.9553577850035206e+00 2.6733899442699652e+01 0 0 0
530 2 5.0252549970710625e+00 1.2854333514067662e-01 2.6733899442699652e+01 0 0 0
531 2 6.2493015597550503e+00 8.3524694760663842e-01 2.6733899442699652e+01 0 0 0
543 2 6.2493015597550503e+00 2.2486541725373979e+00 2.6733899442699652e+01 0 0 0
544 2 7.4733481224381322e+00 2.9553577850035206e+00 2.6733899442699652e+01 0 0 0
545 2 7.4733481224381322e+00 1.2854333514067662e-01 2.6733899442699652e+01 0 0 0
3369 1 1.2537427193546200e+01 2.1098688087428696e+00 2.4316208038526913e+01 3 0 1
546 2 8.6973946851197983e+00 8.3524694760663842e-01 2.6733899442699652e+01 0 0 0
562 2 8.6973946851197983e+00 2.2486541725373979e+00 2.6733899442699652e+01 0 0 0
563 2 9.9214412478016030e+00 2.9553577850035206e+00 2.6733899442699652e+01 0 0 0
564 2 9.9214412478016030e+00 1.2854333514067662e-01 2.6733899442699652e+01 0 0 0
565 2 1.1145487810489399e+01 8.3524694760663842e-01 2.6733899442699652e+01 0 0 0
585 2 1.1145487810489399e+01 2.2486541725373979e+00 2.6733899442699652e+01 0 0 0
586 2 1.2369534373169579e+01 2.9553577850035206e+00 2.6733899442699652e+01 0 0 0
587 2 1.2369534373169579e+01 1.2854333514067662e-01 2.6733899442699652e+01 0 0 0