LAMMPS data file via write_data, version 16 Mar 2018, timestep = 6000000

6736 atoms
2 atom types

0.0000000000000000e+00 4.9219999999999999e+01 xlo xhi
0.0000000000000000e+00 4.9019635930410494e+01 ylo yhi
4.4689218752975179e-01 5.9615107812446496e+01 zlo zhi

Masses

1 18.015
2 12.01

Atoms # atomic

3492 1 2.7862618350130299e+00 2.7904142683478836e+00 2.4436582222947401e+00 0 2 0
4397 1 3.0098381546295311e-01 3.6747529927732305e+00 1.9820871261309521e+00 4 1 1
3660 1 1.0202350600842463e+01 1.3611666735271156e+01 1.0101924558170762e+01 1 2 0
1887 1 9.3110231766422622e+00 2.1811135254638554e+00 2.4441248713461472e+00 0 1 1
5805 1 7.8151096666059336e+00 9.2557962885009759e-01 9.3046606691869815e+00 -2 0 0
4304 1 5.7670516365095139e+00 1.5347059408510585e+01 9.2855691373112474e+00 1 1 0
1947 1 2.7379370132163015e+00 6.7469476391107808e+00 2.0513184813925718e+00 0 -1 0
4213 1 4.0678011943083203e-01 6.0834858254122368e+00 3.0319792388488809e+00 3 -5 0
3770 1 4.4971055174237131e+00 4.7115547344419397e+00 1.4038303428645040e+00 -2 0 1
1007 1 7.0724472126918272e+00 5.6110271854235423e+00 2.7504366067295605e+00 1 0 1
1895 1 9.3898771595438930e+00 4.9610887888913080e+00 1.7848737596583395e+00 0 2 0
31 1 1.1532471368975699e+01 6.2330576058369198e+00 2.4602065229390844e+00 3 0 0
3756 1 3.9308712354868791e+00 1.1533042328728383e+01 2.2923398692596484e+00 -3 2 0
5276 1 4.4585257572196246e+00 9.0378937103081274e+00 2.9635541072033806e+00 0 -1 0
329 1 6.7963256034711081e+00 8.1571368485772506e+00 1.8199438946766449e+00 1 -2 0
153 1 9.2018424568531980e+00 9.5904509935229463e+00 2.8642627881111045e+00 0 -1 0
2028 1 1.1323720626159108e+01 8.4768598078557797e+00 1.6403941130254971e+00 -3 0 0
5511 1 1.3261958427861029e+00 1.2355884888060489e+01 2.9180802233644241e+00 -1 -1 0
3434 1 1.4335208398142043e+00 1.4630047446459153e+01 1.7011831293330824e+00 1 -1 0
3490 1 6.2754632947763076e+00 1.2822173576888737e+01 2.9292953670930362e+00 4 2 0
3446 1 5.8082132049050879e+00 1.5246503365854812e+01 1.9378375973714674e+00 -2 1 1
1040 1 8.8138360925605497e+00 1.1968482842261304e+01 1.9307864341287932e+00 -1 1 1
3430 1 1.0463437803784855e+01 1.3867189959274029e+01 2.5465518442659514e+00 -1 -1 1
2075 1 8.2528756553502325e-01 3.3232037657982052e+00 6.4495675874841636e+00 0 4 0
5255 1 2.9315624571920784e+00 2.2874344521402437e+00 5.3285660705450182e+00 2 5 0
2797 1 1.2041457330654399e+01 1.4287993394201939e+00 9.0981854463888148e+00 -2 -2 1
3713 1 9.5797935995899426e+00 2.2980516644145670e+00 5.4434538147570688e+00 2 -1 0
811 1 5.9683879149173977e+00 1.2593481733430487e+01 1.0053808012096860e+01 -2 -4 0
5479 1 8.0276209636515261e-01 5.8124496112738600e+00 5.5552385399122519e+00 -1 0 0
2654 1 3.0682508268537978e+00 6.6036928716470440e+00 6.7405383860800203e+00 1 2 1
5801 1 4.5378095133101493e+00 4.3093498329387723e+00 6.3499747354308820e+00 -1 0 1
5134 1 6.8509132751799466e+00 5.5073523258058561e+00 5.4808180764995287e+00 0 2 0
3848 1 6.6509930575960370e+00 8.1530888574646667e+00 6.1782225946985161e+00 0 3 0
4498 1 9.2306951680091753e+00 4.7247102986573202e+00 6.2579985703576666e+00 0 -1 1
5252 1 1.1397077084689386e+01 6.0418833374615870e+00 5.1869426235952885e+00 0 -3 0
5332 1 3.7980143744175732e+00 1.1296052586359114e+01 6.4035807216141132e+00 0 -1 1
2150 1 4.3115922729993406e+00 8.7282719957782025e+00 5.6551631292480318e+00 1 0 0
2894 1 8.8541191569844084e+00 9.5313402266549847e+00 5.5933778914740477e+00 1 1 1
1837 1 1.1316018929428536e+01 8.4807326455413037e+00 6.3090332091143804e+00 3 1 0
4271 1 1.0903528240732241e+00 1.2396494994039523e+01 5.5500112702666806e+00 1 2 1
2704 1 1.1935976436342595e+00 1.4816965165339544e+01 6.6318748977018496e+00 -3 2 1
252 1 5.9858035471604181e+00 1.3008697922424913e+01 5.3891290168039738e+00 0 1 0
6238 1 5.8031196325708141e+00 1.5450112059999041e+01 6.1605118665230973e+00 3 0 0
253 1 8.5189597320508081e+00 1.2289473457476086e+01 6.2894266231227984e+00 0 -2 0
5550 1 1.0497641516011811e+01 1.3816537945880597e+01 5.2307643295657584e+00 0 -3 0
2001 1 1.0418469038613749e+01 1.6303068069046766e+01 6.3669459017508840e+00 0 1 0
3653 1 5.1728410238683784e+00 1.2999200261223895e+00 9.7065842078412583e+00 1 -1 0
3642 1 5.2666643764091328e+00 4.0093556171994189e+00 8.9470852529080531e+00 3 0 0
5233 1 8.1892798347427700e+00 8.2228168236327601e-02 6.6294138996394683e+00 2 1 0
5085 1 9.8183870181590986e+00 2.0665839609340311e+00 1.0310545952123682e+01 2 1 0
2650 1 2.6326298672896056e+00 4.3591740109536063e+00 1.0239724988926703e+01 2 -1 1
815 1 2.7819783659839890e+00 6.9040700091566505e+00 9.4751872242803774e+00 -2 -2 1
975 1 6.9054232336820212e+00 7.9065306464158525e+00 9.0282282195989207e+00 1 -1 0
2475 1 7.0764229348446346e+00 5.5382384751592646e+00 1.0097840538622467e+01 2 2 1
4453 1 9.2910079433256616e+00 4.5076775644540019e+00 9.0737024127713379e+00 2 0 1
2835 1 1.1225926585358712e+01 6.4232296601023071e+00 1.0072113275133258e+01 0 0 1
5251 1 3.8722382140790348e+00 1.1262748890438232e+01 9.0100425650252465e+00 0 1 0
1832 1 1.5471684116636226e+00 1.2009210933441125e+01 9.9888335426483010e+00 3 1 0
4222 1 4.4588372567382413e+00 8.9211333203667813e+00 1.0150605956523417e+01 1 1 1
6142 1 8.1779127107752387e+00 1.1976603609823139e+01 8.9884193449728489e+00 2 3 1
3541 1 8.5823886503082374e+00 9.6398822887070299e+00 1.0014499900161782e+01 1 0 0
6234 1 1.1032262011130248e+01 9.1605716139708608e+00 8.8818108056229512e+00 3 0 1
5808 1 1.5694241657616124e+00 1.4518214562702106e+01 9.2358317168321573e+00 0 0 1
1901 1 3.3382056279065198e-01 3.6690828402210607e+00 9.0868687181091286e+00 0 -3 0
5800 1 3.8198773369178507e-01 7.9646401657132504e+00 1.0271261277221146e+01 5 1 0
5981 1 1.1945145613218758e+01 1.4446136873971935e+00 6.0318881157219755e+00 1 -2 1
2647 1 1.1921784285869958e+01 1.1640085929604436e+00 1.7758708276662218e+00 2 -3 0
5304 1 1.0171648348353068e+01 1.6229673922903988e+01 1.5660966017068312e+00 -1 0 0
2136 1 7.8856540694559492e+00 2.6408655940233866e-01 1.5666443367815233e+00 3 -1 0
1762 1 3.3831428405257684e+00 1.6261958723484870e+01 1.0140535774514236e+01 -2 1 1
498 1 3.2945647380667595e+00 1.6172685203038426e+01 5.7601120988719607e+00 -2 -1 0
256 1 1.0176029877322552e+01 1.6246010003324965e+01 9.2301744838678541e+00 1 -1 0
2653 1 3.1869368817299009e+00 1.5676066559664029e-01 1.9624524327045225e+00 2 3 1
6151 1 1.4444333953278703e+00 1.2446683130328642e+01 1.2925409559845308e+01 -2 1 1
2493 1 5.1825395286936518e+00 1.5781179436124173e+00 1.2599846617296755e+01 -2 -5 1
958 1 7.5325613794736341e+00 4.1218294001099443e-01 1.3865003362417909e+01 -2 -4 1
485 1 9.5605930985841905e+00 1.9252875218595780e+00 1.2930516368771920e+01 3 0 0
5414 1 6.3719892803953568e+00 7.7702315711775916e-01 2.3669185230948273e+01 -2 2 0
4264 1 2.3499299152993136e+00 7.3337432146842918e+00 1.3513738644461743e+01 -2 0 1
5952 1 2.3910318195780040e+00 4.8077423365861902e+00 1.2802606674435777e+01 0 2 1
1851 1 4.7284926762206689e+00 4.2377654388340389e+00 1.3761406625023943e+01 -2 1 0
1794 1 6.8757098330566917e+00 5.5135766981973067e+00 1.2881810221980109e+01 2 2 0
5107 1 6.7765977372015920e+00 7.9484622634362285e+00 1.3873908158363564e+01 -1 0 0
236 1 6.8291991601489874e+00 7.9042104424122526e+00 1.6322506744198105e+01 0 -2 1
5447 1 9.3075183790998341e+00 4.3741140488257697e+00 1.3893921160497015e+01 0 3 0
2599 1 1.1271749950562072e+01 5.9927058637327173e+00 1.2684207734557271e+01 2 2 1
29 1 4.0500988942314153e+00 1.1270600197789456e+01 1.3852620219816714e+01 -3 2 0
2697 1 8.0851026987266739e+00 4.8433743129334372e+00 2.3559495486913370e+01 -2 -1 1
2127 1 8.2604661913766417e+00 1.2318451063968897e+01 1.3839784004025033e+01 -1 -3 0
2760 1 1.1062863962516873e+01 8.6232681001610345e+00 1.3786904964649077e+01 2 0 1
798 1 8.4295646203021164e+00 9.6452150848026985e+00 1.2873120340828299e+01 2 1 0
4315 1 1.1016584362122607e+01 8.7102242251710535e+00 1.6611038923796404e+01 0 -3 1
1859 1 1.3664917449612698e-01 8.2798556759807020e+00 1.9963585519295549e+01 5 3 0
3398 1 1.2803761112504075e+00 1.4922945052878365e+01 1.3906812775932666e+01 1 -5 1
4115 1 5.4643469868965173e+00 1.5568677971043526e+01 1.3873291412330808e+01 2 0 1
4586 1 5.7405390807503602e+00 1.2938428211315173e+01 1.2808867133964704e+01 3 2 0
5290 1 1.0168608058984338e+01 1.3961381296990258e+01 1.2832266743122132e+01 1 -2 0
5819 1 1.2087372776735972e+01 1.3652916580412533e+00 1.6683502088929561e+01 3 1 1
923 1 9.9879858928677603e+00 1.6154441867924909e+01 2.3519978324673172e+01 1 0 1
3467 1 1.1571365649259708e+00 5.7695215974130831e-01 1.9992242735127384e+01 2 -2 1
2602 1 8.7715519582271426e+00 1.2281602121647952e+01 2.0832283801118052e+01 0 3 1
5889 1 5.0326050021272328e+00 3.9584550490729224e+00 1.6529681892922827e+01 1 1 1
1051 1 5.4206815278392870e+00 1.2145349211585186e+00 1.7185503973816999e+01 2 3 1
6155 1 5.5586359417170668e+00 9.2532360850445339e-01 2.0089859054034076e+01 0 4 1
3393 1 1.0453687656768244e+01 1.3421187625463560e+01 2.3977521381097500e+01 0 1 1
1710 1 7.3883614746911519e+00 7.5209449155979291e+00 2.3368465043864365e+01 1 0 0
1086 1 9.7924099198379260e+00 2.2511748177178115e+00 1.7277860114701173e+01 6 0 1
33 1 9.5734268886782488e+00 1.9309764235306237e+00 1.9773913669852636e+01 -3 4 0
250 1 2.1991662887465844e+00 7.2484377976098253e+00 1.6402731230685852e+01 3 0 0
3536 1 2.1026315927185069e+00 4.8571138447208044e+00 1.7708771072504483e+01 1 -3 1
79 1 6.8655959537698275e+00 5.5993173324693402e+00 1.7273915828324011e+01 -1 1 1
4431 1 9.2257758869605357e+00 4.5999056803647287e+00 1.6443883662373821e+01 -1 1 1
1200 1 1.1202010707658649e+01 6.2479410573606629e+00 1.7250621516647588e+01 -1 -1 1
6189 1 1.1099053397850973e+01 6.1736463029327959e+00 2.0039669914689384e+01 -4 -1 1
4555 1 3.8458463084277907e+00 1.1308025077820300e+01 1.6685738445336209e+01 -3 -2 1
4386 1 4.3506108833640882e+00 8.8811997318781515e+00 1.9906439760140564e+01 -4 3 1
3689 1 4.4160619029845849e+00 8.9654105511058635e+00 1.7284805974935317e+01 -1 -3 0
1057 1 8.6536364658837446e+00 9.6381360192100889e+00 1.7152947477778415e+01 0 0 1
4182 1 8.5041728621056443e+00 9.6671272240690431e+00 1.9583104297674819e+01 1 2 1
3431 1 1.7505860809655671e+00 1.2435332571500117e+01 1.7625352498271262e+01 0 2 1
2889 1 1.2637257096644035e+00 1.4808777182526805e+01 1.6597577979258219e+01 1 -2 1
6114 1 8.5514750946643350e+00 1.2144084400439150e+01 1.6484846401381770e+01 0 2 1
104 1 6.0624424282816856e+00 1.2777861570674906e+01 1.7110640006475471e+01 -3 2 1
1165 1 5.5940014471111352e+00 1.5511834858317330e+01 1.6550325459576037e+01 -1 -2 1
6133 1 1.0482040638619468e+01 1.3765652007002434e+01 1.7343325193050674e+01 1 1 1
4394 1 1.0592088893395585e+01 1.3874662854472149e+01 1.9818686690410249e+01 1 4 1
5583 1 7.3936601319234474e-01 2.9692027298515309e+00 2.0909419089900808e+01 0 4 0
5976 1 4.3442093441884584e+00 8.7537104274206285e+00 1.2824672319391727e+01 -2 1 1
6101 1 6.3458826261171772e+00 1.3169071974847842e+01 1.9842422124494984e+01 2 0 1
5425 1 5.4288175025574485e+00 3.2847753786210561e+00 2.0754568754598573e+01 1 1 0
3789 1 1.1169412019459076e+01 1.3013618379324203e+00 2.3924245939754339e+01 2 0 0
4130 1 7.8426526709434903e+00 4.4123547945581743e-01 1.6701196979839644e+01 -2 -4 0
6242 1 1.7590547252168294e+00 1.2406402828044481e+01 2.0150925139202069e+01 1 0 0
379 1 2.9157614627425890e+00 4.4366382652909229e+00 2.0462906362671866e+01 -3 -1 0
2489 1 2.5996389426257682e+00 7.1364242489100835e+00 2.0671320015261880e+01 -2 -2 0
3596 1 1.1949765736462641e+01 1.1986537446870511e+00 1.4043819231010968e+01 2 -2 0
766 1 7.2589550637536704e-01 3.0733116392503357e+00 1.6413008788864147e+01 0 -1 0
3557 1 8.6200305676579134e+00 1.1756708799624620e+01 2.3573155742822877e+01 3 0 0
2014 1 6.9914279506842014e+00 5.1891519686265397e+00 1.9777361403689905e+01 -3 -2 0
3506 1 6.8506807893337456e+00 7.6812223411951104e+00 2.0691545550776993e+01 -2 -2 1
4229 1 4.4055434834361140e+00 1.1220391080700766e+01 2.3454110877071084e+01 0 0 0
5330 1 9.4328222950722509e+00 4.5074281306131123e+00 2.1160076512881197e+01 0 -3 0
2785 1 6.0216621558525976e+00 1.5667985986258927e+01 2.3398020747315091e+01 2 1 1
6078 1 5.7459718866652292e+00 3.4189567918099422e+00 2.3488127077599799e+01 3 3 1
4489 1 4.4025679746161295e+00 1.1524029447345617e+01 2.0718654580432641e+01 3 0 1
2818 1 6.1591278745128406e+00 1.5777200408434151e+01 2.0824017706588801e+01 2 -1 1
406 1 4.9645071656658599e+00 8.2933570652985296e+00 2.3994079314440484e+01 0 -3 0
2093 1 7.8243298839461961e-01 2.4871599637292352e+00 2.3669437422017971e+01 4 0 0
5095 1 1.1395037182953239e+01 8.6716744701897177e+00 2.0674464177876079e+01 2 3 1
368 1 1.6732915177684540e+00 1.4765990616500478e+01 2.0835547457859992e+01 2 2 0
994 1 1.2390720017143513e+00 1.4829346412944222e+01 2.3483664986775871e+01 0 0 0
5216 1 7.9898518610063851e+00 2.1585598450131771e-01 2.0952316782372552e+01 1 1 0
869 1 2.3731042195727450e+00 6.8707958380247867e+00 2.3654699288593267e+01 2 -3 1
18 1 9.8876757057603082e-01 5.8477277807577865e-01 1.7392296594208645e+01 -3 -1 0
4214 1 1.9308840266562310e-01 3.7446733423661942e+00 1.3886541811104575e+01 -1 1 1
6128 1 3.2887967779969003e+00 1.6265670164853951e+01 2.3973999256682855e+01 2 1 1
5386 1 1.2002159105272607e+01 1.2287661478886953e+00 2.1087056115307231e+01 2 -3 0
5932 1 3.6688888937365127e+00 1.6298705399954532e+01 2.0127634179021772e+01 0 1 1
906 1 1.1429792247383277e+01 8.4690108813909113e+00 2.3185924333994048e+01 1 -1 1
4543 1 3.1661964850446958e+00 4.3927735878052889e+00 2.3707789991065194e+01 2 1 0
511 2 0.0000000000000000e+00 2.8417180249513345e+00 2.6770168162596111e+01 0 0 0
512 2 0.0000000000000000e+00 0.0000000000000000e+00 2.6770168162596111e+01 0 0 0
513 2 1.2305000000000001e+00 7.1042950623783474e-01 2.6770168162596111e+01 0 0 0
517 2 1.2305000000000001e+00 2.1312885187134998e+00 2.6770168162596111e+01 0 0 0
518 2 2.4610000000000003e+00 2.8417180249513345e+00 2.6770168162596111e+01 0 0 0
519 2 2.4610000000000003e+00 0.0000000000000000e+00 2.6770168162596111e+01 0 0 0
520 2 3.6915000000000004e+00 7.1042950623783474e-01 2.6770168162596111e+01 0 0 0
528 2 3.6914999999999996e+00 2.1312885187134998e+00 2.6770168162596111e+01 0 0 0
1523 2 9.8440000000000012e+00 1.2787731112280996e+01 3.3291831837383342e+01 0 0 0
529 2 4.9220000000000006e+00 2.8417180249513332e+00 2.6770168162596111e+01 0 0 0
530 2 4.9220000000000006e+00 0.0000000000000000e+00 2.6770168162596111e+01 0 0 0
531 2 6.1524999999999999e+00 7.1042950623783407e-01 2.6770168162596111e+01 0 0 0
543 2 6.1524999999999999e+00 2.1312885187134989e+00 2.6770168162596111e+01 0 0 0
544 2 7.3829999999999991e+00 2.8417180249513345e+00 2.6770168162596111e+01 0 0 0
545 2 7.3829999999999991e+00 0.0000000000000000e+00 2.6770168162596111e+01 0 0 0
546 2 8.6134999999999984e+00 7.1042950623783407e-01 2.6770168162596111e+01 0 0 0
562 2 8.6134999999999984e+00 2.1312885187135002e+00 2.6770168162596111e+01 0 0 0
563 2 9.8440000000000012e+00 2.8417180249513332e+00 2.6770168162596111e+01 0 0 0
564 2 9.8440000000000012e+00 0.0000000000000000e+00 2.6770168162596111e+01 0 0 0
565 2 1.1074500000000002e+01 7.1042950623783330e-01 2.6770168162596111e+01 0 0 0
585 2 1.1074500000000002e+01 2.1312885187135002e+00 2.6770168162596111e+01 0 0 0
1524 2 1.1074500000000002e+01 1.3498160618518829e+01 3.3291831837383342e+01 0 0 0
514 2 0.0000000000000000e+00 7.1042950623783341e+00 2.6770168162596111e+01 0 0 0
515 2 0.0000000000000000e+00 4.2625770374269996e+00 2.6770168162596111e+01 0 0 0
516 2 1.2305000000000001e+00 4.9730065436648339e+00 2.6770168162596111e+01 0 0 0
524 2 1.2305000000000001e+00 6.3938655561404980e+00 2.6770168162596111e+01 0 0 0
525 2 2.4610000000000003e+00 7.1042950623783341e+00 2.6770168162596111e+01 0 0 0
526 2 2.4610000000000003e+00 4.2625770374269996e+00 2.6770168162596111e+01 0 0 0
527 2 3.6914999999999996e+00 4.9730065436648339e+00 2.6770168162596111e+01 0 0 0
539 2 3.6914999999999996e+00 6.3938655561404980e+00 2.6770168162596111e+01 0 0 0
266 1 1.5583523719449064e+00 1.8818266698350783e-01 2.4282396888630338e+01 7 -1 0
540 2 4.9220000000000006e+00 7.1042950623783341e+00 2.6770168162596111e+01 0 0 0
541 2 4.9220000000000006e+00 4.2625770374269978e+00 2.6770168162596111e+01 0 0 0
542 2 6.1524999999999999e+00 4.9730065436648339e+00 2.6770168162596111e+01 0 0 0
558 2 6.1524999999999999e+00 6.3938655561404980e+00 2.6770168162596111e+01 0 0 0
559 2 7.3830000000000009e+00 7.1042950623783341e+00 2.6770168162596111e+01 0 0 0
560 2 7.3829999999999991e+00 4.2625770374269996e+00 2.6770168162596111e+01 0 0 0
561 2 8.6135000000000002e+00 4.9730065436648339e+00 2.6770168162596111e+01 0 0 0
581 2 8.6135000000000002e+00 6.3938655561404980e+00 2.6770168162596111e+01 0 0 0
582 2 9.8440000000000012e+00 7.1042950623783341e+00 2.6770168162596111e+01 0 0 0
583 2 9.8440000000000012e+00 4.2625770374270004e+00 2.6770168162596111e+01 0 0 0
584 2 1.1074500000000002e+01 4.9730065436648339e+00 2.6770168162596111e+01 0 0 0
605 2 1.1074500000000002e+01 6.3938655561404980e+00 2.6770168162596111e+01 0 0 0
521 2 0.0000000000000000e+00 1.1366872099805333e+01 2.6770168162596111e+01 0 0 0
522 2 0.0000000000000000e+00 8.5251540748539991e+00 2.6770168162596111e+01 0 0 0
523 2 1.2305000000000001e+00 9.2355835810918343e+00 2.6770168162596111e+01 0 0 0
535 2 1.2305000000000001e+00 1.0656442593567498e+01 2.6770168162596111e+01 0 0 0
536 2 2.4610000000000003e+00 1.1366872099805333e+01 2.6770168162596111e+01 0 0 0
537 2 2.4610000000000003e+00 8.5251540748539991e+00 2.6770168162596111e+01 0 0 0
538 2 3.6915000000000004e+00 9.2355835810918343e+00 2.6770168162596111e+01 0 0 0
554 2 3.6914999999999996e+00 1.0656442593567499e+01 2.6770168162596111e+01 0 0 0
555 2 4.9220000000000006e+00 1.1366872099805333e+01 2.6770168162596111e+01 0 0 0
556 2 4.9220000000000006e+00 8.5251540748539991e+00 2.6770168162596111e+01 0 0 0
557 2 6.1524999999999999e+00 9.2355835810918343e+00 2.6770168162596111e+01 0 0 0
577 2 6.1524999999999999e+00 1.0656442593567499e+01 2.6770168162596111e+01 0 0 0
578 2 7.3829999999999991e+00 1.1366872099805333e+01 2.6770168162596111e+01 0 0 0
579 2 7.3830000000000009e+00 8.5251540748539991e+00 2.6770168162596111e+01 0 0 0
2021 1 1.0827714998737862e+01 9.1630076918107513e+00 3.5843797832846903e+01 1 2 -1
580 2 8.6134999999999984e+00 9.2355835810918343e+00 2.6770168162596111e+01 0 0 0
601 2 8.6134999999999984e+00 1.0656442593567498e+01 2.6770168162596111e+01 0 0 0
602 2 9.8440000000000012e+00 1.1366872099805333e+01 2.6770168162596111e+01 0 0 0
603 2 9.8440000000000012e+00 8.5251540748539956e+00 2.6770168162596111e+01 0 0 0
604 2 1.1074500000000002e+01 9.2355835810918343e+00 2.6770168162596111e+01 0 0 0
625 2 1.1074500000000002e+01 1.0656442593567498e+01 2.6770168162596111e+01 0 0 0
626 2 1.2304999999999998e+01 1.1366872099805333e+01 2.6770168162596111e+01 0 0 0
1500 2 8.6135000000000002e+00 1.3498160618518835e+01 3.3291831837383342e+01 0 0 0
532 2 0.0000000000000000e+00 1.5629449137232333e+01 2.6770168162596111e+01 0 0 0
533 2 0.0000000000000000e+00 1.2787731112280996e+01 2.6770168162596111e+01 0 0 0
534 2 1.2305000000000001e+00 1.3498160618518829e+01 2.6770168162596111e+01 0 0 0
550 2 1.2305000000000001e+00 1.4919019630994494e+01 2.6770168162596111e+01 0 0 0
551 2 2.4610000000000003e+00 1.5629449137232328e+01 2.6770168162596111e+01 0 0 0
552 2 2.4610000000000003e+00 1.2787731112280996e+01 2.6770168162596111e+01 0 0 0
553 2 3.6915000000000004e+00 1.3498160618518829e+01 2.6770168162596111e+01 0 0 0
573 2 3.6915000000000004e+00 1.4919019630994494e+01 2.6770168162596111e+01 0 0 0
1542 2 1.1074500000000002e+01 1.4919019630994494e+01 3.3291831837383342e+01 0 0 0
574 2 4.9220000000000006e+00 1.5629449137232333e+01 2.6770168162596111e+01 0 0 0
575 2 4.9220000000000006e+00 1.2787731112280996e+01 2.6770168162596111e+01 0 0 0
576 2 6.1524999999999990e+00 1.3498160618518829e+01 2.6770168162596111e+01 0 0 0
597 2 6.1524999999999990e+00 1.4919019630994494e+01 2.6770168162596111e+01 0 0 0
598 2 7.3829999999999991e+00 1.5629449137232333e+01 2.6770168162596111e+01 0 0 0
599 2 7.3829999999999991e+00 1.2787731112280996e+01 2.6770168162596111e+01 0 0 0
600 2 8.6135000000000002e+00 1.3498160618518835e+01 2.6770168162596111e+01 0 0 0
621 2 8.6135000000000002e+00 1.4919019630994494e+01 2.6770168162596111e+01 0 0 0
622 2 9.8440000000000012e+00 1.5629449137232328e+01 2.6770168162596111e+01 0 0 0
623 2 9.8440000000000012e+00 1.2787731112280996e+01 2.6770168162596111e+01 0 0 0
624 2 1.1074500000000002e+01 1.3498160618518829e+01 2.6770168162596111e+01 0 0 0
642 2 1.1074500000000002e+01 1.4919019630994494e+01 2.6770168162596111e+01 0 0 0
1250 2 0.0000000000000000e+00 1.4208590124756650e+00 3.0030999999988314e+01 0 0 0
1251 2 0.0000000000000000e+00 0.0000000000000000e+00 3.0030999999988314e+01 0 0 0
1254 2 1.2305000000000001e+00 3.5521475311891644e+00 3.0030999999988314e+01 0 0 0
1255 2 1.2305000000000001e+00 2.1312885187134998e+00 3.0030999999988314e+01 0 0 0
1256 2 2.4610000000000003e+00 1.4208590124756650e+00 3.0030999999988314e+01 0 0 0
1257 2 2.4610000000000003e+00 0.0000000000000000e+00 3.0030999999988314e+01 0 0 0
1264 2 3.6914999999999996e+00 3.5521475311891644e+00 3.0030999999988314e+01 0 0 0
1265 2 3.6914999999999996e+00 2.1312885187134998e+00 3.0030999999988314e+01 0 0 0
1266 2 4.9220000000000006e+00 1.4208590124756650e+00 3.0030999999988314e+01 0 0 0
1267 2 4.9220000000000006e+00 0.0000000000000000e+00 3.0030999999988314e+01 0 0 0
1278 2 6.1524999999999999e+00 3.5521475311891644e+00 3.0030999999988314e+01 0 0 0
1279 2 6.1524999999999999e+00 2.1312885187134989e+00 3.0030999999988314e+01 0 0 0
1280 2 7.3829999999999991e+00 1.4208590124756659e+00 3.0030999999988314e+01 0 0 0
1281 2 7.3829999999999991e+00 0.0000000000000000e+00 3.0030999999988314e+01 0 0 0
1296 2 8.6134999999999984e+00 3.5521475311891657e+00 3.0030999999988314e+01 0 0 0
1297 2 8.6134999999999984e+00 2.1312885187135002e+00 3.0030999999988314e+01 0 0 0
1298 2 9.8440000000000012e+00 1.4208590124756659e+00 3.0030999999988314e+01 0 0 0
1299 2 9.8440000000000012e+00 0.0000000000000000e+00 3.0030999999988314e+01 0 0 0
1318 2 1.1074500000000002e+01 3.5521475311891644e+00 3.0030999999988314e+01 0 0 0
1319 2 1.1074500000000002e+01 2.1312885187135002e+00 3.0030999999988314e+01 0 0 0
1252 2 0.0000000000000000e+00 5.6834360499026637e+00 3.0030999999988314e+01 0 0 0
1253 2 0.0000000000000000e+00 4.2625770374269996e+00 3.0030999999988314e+01 0 0 0
1260 2 1.2305000000000001e+00 7.8147245686161639e+00 3.0030999999988314e+01 0 0 0
1261 2 1.2305000000000001e+00 6.3938655561404980e+00 3.0030999999988314e+01 0 0 0
1262 2 2.4610000000000003e+00 5.6834360499026637e+00 3.0030999999988314e+01 0 0 0
1263 2 2.4610000000000003e+00 4.2625770374269996e+00 3.0030999999988314e+01 0 0 0
1274 2 3.6914999999999996e+00 7.8147245686161639e+00 3.0030999999988314e+01 0 0 0
1275 2 3.6914999999999996e+00 6.3938655561404980e+00 3.0030999999988314e+01 0 0 0
1276 2 4.9220000000000006e+00 5.6834360499026637e+00 3.0030999999988314e+01 0 0 0
1277 2 4.9220000000000006e+00 4.2625770374269978e+00 3.0030999999988314e+01 0 0 0
1292 2 6.1524999999999999e+00 7.8147245686161639e+00 3.0030999999988314e+01 0 0 0
1293 2 6.1524999999999999e+00 6.3938655561404980e+00 3.0030999999988314e+01 0 0 0
1294 2 7.3829999999999991e+00 5.6834360499026637e+00 3.0030999999988314e+01 0 0 0
1295 2 7.3829999999999991e+00 4.2625770374269996e+00 3.0030999999988314e+01 0 0 0
1314 2 8.6135000000000002e+00 7.8147245686161639e+00 3.0030999999988314e+01 0 0 0
1315 2 8.6135000000000002e+00 6.3938655561404980e+00 3.0030999999988314e+01 0 0 0
1316 2 9.8440000000000012e+00 5.6834360499026637e+00 3.0030999999988314e+01 0 0 0
1317 2 9.8440000000000012e+00 4.2625770374270004e+00 3.0030999999988314e+01 0 0 0
1337 2 1.1074500000000002e+01 7.8147245686161639e+00 3.0030999999988314e+01 0 0 0
1338 2 1.1074500000000002e+01 6.3938655561404980e+00 3.0030999999988314e+01 0 0 0
1258 2 0.0000000000000000e+00 9.9460130873296642e+00 3.0030999999988314e+01 0 0 0
1259 2 0.0000000000000000e+00 8.5251540748539991e+00 3.0030999999988314e+01 0 0 0
1270 2 1.2305000000000001e+00 1.2077301606043163e+01 3.0030999999988314e+01 0 0 0
1271 2 1.2305000000000001e+00 1.0656442593567498e+01 3.0030999999988314e+01 0 0 0
1272 2 2.4610000000000003e+00 9.9460130873296642e+00 3.0030999999988314e+01 0 0 0
1273 2 2.4610000000000003e+00 8.5251540748539991e+00 3.0030999999988314e+01 0 0 0
1288 2 3.6914999999999996e+00 1.2077301606043163e+01 3.0030999999988314e+01 0 0 0
1289 2 3.6914999999999996e+00 1.0656442593567499e+01 3.0030999999988314e+01 0 0 0
1290 2 4.9220000000000006e+00 9.9460130873296642e+00 3.0030999999988314e+01 0 0 0
1291 2 4.9220000000000006e+00 8.5251540748539991e+00 3.0030999999988314e+01 0 0 0
1310 2 6.1524999999999999e+00 1.2077301606043163e+01 3.0030999999988314e+01 0 0 0
1311 2 6.1524999999999999e+00 1.0656442593567499e+01 3.0030999999988314e+01 0 0 0
1312 2 7.3830000000000009e+00 9.9460130873296642e+00 3.0030999999988314e+01 0 0 0
1313 2 7.3830000000000009e+00 8.5251540748539991e+00 3.0030999999988314e+01 0 0 0
1333 2 8.6135000000000002e+00 1.2077301606043163e+01 3.0030999999988314e+01 0 0 0
1334 2 8.6134999999999984e+00 1.0656442593567498e+01 3.0030999999988314e+01 0 0 0
1335 2 9.8440000000000012e+00 9.9460130873296642e+00 3.0030999999988314e+01 0 0 0
1336 2 9.8440000000000012e+00 8.5251540748539956e+00 3.0030999999988314e+01 0 0 0
1356 2 1.1074500000000002e+01 1.2077301606043163e+01 3.0030999999988314e+01 0 0 0
1357 2 1.1074500000000002e+01 1.0656442593567498e+01 3.0030999999988314e+01 0 0 0
1268 2 0.0000000000000000e+00 1.4208590124756663e+01 3.0030999999988314e+01 0 0 0
1269 2 0.0000000000000000e+00 1.2787731112280996e+01 3.0030999999988314e+01 0 0 0
1285 2 1.2305000000000001e+00 1.4919019630994494e+01 3.0030999999988314e+01 0 0 0
1286 2 2.4610000000000003e+00 1.4208590124756663e+01 3.0030999999988314e+01 0 0 0
1287 2 2.4610000000000003e+00 1.2787731112280996e+01 3.0030999999988314e+01 0 0 0
1307 2 3.6915000000000004e+00 1.4919019630994494e+01 3.0030999999988314e+01 0 0 0
1308 2 4.9220000000000006e+00 1.4208590124756663e+01 3.0030999999988314e+01 0 0 0
1309 2 4.9220000000000006e+00 1.2787731112280996e+01 3.0030999999988314e+01 0 0 0
1330 2 6.1524999999999990e+00 1.4919019630994494e+01 3.0030999999988314e+01 0 0 0
1331 2 7.3830000000000009e+00 1.4208590124756663e+01 3.0030999999988314e+01 0 0 0
1332 2 7.3829999999999991e+00 1.2787731112280996e+01 3.0030999999988314e+01 0 0 0
1375 2 1.2304999999999998e+01 1.4208590124756658e+01 3.0030999999988314e+01 0 0 0
1353 2 8.6135000000000002e+00 1.4919019630994494e+01 3.0030999999988314e+01 0 0 0
1355 2 9.8440000000000012e+00 1.2787731112280996e+01 3.0030999999988314e+01 0 0 0
1374 2 1.1074500000000002e+01 1.4919019630994494e+01 3.0030999999988314e+01 0 0 0
1354 2 9.8440000000000012e+00 1.4208590124756663e+01 3.0030999999988314e+01 0 0 0
1373 2 1.1074500000000002e+01 1.6339878643470161e+01 3.0030999999988314e+01 0 0 0
1411 2 0.0000000000000000e+00 2.8417180249513345e+00 3.3291831837383342e+01 0 0 0
1412 2 0.0000000000000000e+00 0.0000000000000000e+00 3.3291831837383342e+01 0 0 0
1413 2 1.2305000000000001e+00 7.1042950623783474e-01 3.3291831837383342e+01 0 0 0
1417 2 1.2305000000000001e+00 2.1312885187134998e+00 3.3291831837383342e+01 0 0 0
1418 2 2.4610000000000003e+00 2.8417180249513345e+00 3.3291831837383342e+01 0 0 0
1419 2 2.4610000000000003e+00 0.0000000000000000e+00 3.3291831837383342e+01 0 0 0
1420 2 3.6915000000000004e+00 7.1042950623783474e-01 3.3291831837383342e+01 0 0 0
1428 2 3.6914999999999996e+00 2.1312885187134998e+00 3.3291831837383342e+01 0 0 0
1429 2 4.9220000000000006e+00 2.8417180249513332e+00 3.3291831837383342e+01 0 0 0
1430 2 4.9220000000000006e+00 0.0000000000000000e+00 3.3291831837383342e+01 0 0 0
1431 2 6.1524999999999999e+00 7.1042950623783407e-01 3.3291831837383342e+01 0 0 0
1443 2 6.1524999999999999e+00 2.1312885187134989e+00 3.3291831837383342e+01 0 0 0
1444 2 7.3829999999999991e+00 2.8417180249513345e+00 3.3291831837383342e+01 0 0 0
1445 2 7.3829999999999991e+00 0.0000000000000000e+00 3.3291831837383342e+01 0 0 0
1446 2 8.6134999999999984e+00 7.1042950623783407e-01 3.3291831837383342e+01 0 0 0
1462 2 8.6134999999999984e+00 2.1312885187135002e+00 3.3291831837383342e+01 0 0 0
1463 2 9.8440000000000012e+00 2.8417180249513332e+00 3.3291831837383342e+01 0 0 0
1464 2 9.8440000000000012e+00 0.0000000000000000e+00 3.3291831837383342e+01 0 0 0
1465 2 1.1074500000000002e+01 7.1042950623783330e-01 3.3291831837383342e+01 0 0 0
1485 2 1.1074500000000002e+01 2.1312885187135002e+00 3.3291831837383342e+01 0 0 0
1414 2 0.0000000000000000e+00 7.1042950623783341e+00 3.3291831837383342e+01 0 0 0
1415 2 0.0000000000000000e+00 4.2625770374269996e+00 3.3291831837383342e+01 0 0 0
1416 2 1.2305000000000001e+00 4.9730065436648339e+00 3.3291831837383342e+01 0 0 0
1424 2 1.2305000000000001e+00 6.3938655561404980e+00 3.3291831837383342e+01 0 0 0
1425 2 2.4610000000000003e+00 7.1042950623783341e+00 3.3291831837383342e+01 0 0 0
1426 2 2.4610000000000003e+00 4.2625770374269996e+00 3.3291831837383342e+01 0 0 0
1427 2 3.6914999999999996e+00 4.9730065436648339e+00 3.3291831837383342e+01 0 0 0
1439 2 3.6914999999999996e+00 6.3938655561404980e+00 3.3291831837383342e+01 0 0 0
1440 2 4.9220000000000006e+00 7.1042950623783341e+00 3.3291831837383342e+01 0 0 0
1441 2 4.9220000000000006e+00 4.2625770374269978e+00 3.3291831837383342e+01 0 0 0
1442 2 6.1524999999999999e+00 4.9730065436648339e+00 3.3291831837383342e+01 0 0 0
1458 2 6.1524999999999999e+00 6.3938655561404980e+00 3.3291831837383342e+01 0 0 0
1459 2 7.3830000000000009e+00 7.1042950623783341e+00 3.3291831837383342e+01 0 0 0
1460 2 7.3829999999999991e+00 4.2625770374269996e+00 3.3291831837383342e+01 0 0 0
5546 1 9.2724709701868999e+00 9.4491247416542876e+00 2.4358321040727262e+01 0 -1 0
1461 2 8.6135000000000002e+00 4.9730065436648339e+00 3.3291831837383342e+01 0 0 0
1481 2 8.6135000000000002e+00 6.3938655561404980e+00 3.3291831837383342e+01 0 0 0
1482 2 9.8440000000000012e+00 7.1042950623783341e+00 3.3291831837383342e+01 0 0 0