
# Create simulation box and atoms

read_data data.graphite_substrate
  orthogonal box = (0 0 -0.0398667) to (49.22 49.0196 60.1019)
  4 by 3 by 5 MPI processor grid
  reading atoms ...
  6736 atoms
  reading velocities ...
  6736 velocities
group water type 1
3976 atoms in group water
group graphite type 2
2760 atoms in group graphite

# Define potential

pair_style sw
pair_coeff * * mWC.sw mW C
Reading potential file mWC.sw with DATE: 2019-02-27


# Fix graphite atoms in place

fix 5 graphite setforce 0.0 0.0 0.0
velocity graphite set 0.0 0.0 0.0


# Equilibration of molecular water

# Add velocity/set timestep

velocity	    water create ${TEMP} ${SEED} rot yes dist gaussian
velocity	    water create 225 ${SEED} rot yes dist gaussian
velocity	    water create 225 14529 rot yes dist gaussian
timestep	    5.0

# Define output

compute			1 water msd
compute			3 water temp
thermo	    	50
thermo_style	custom step temp press vol etotal ke pe c_1[4] c_3

# Neighbor lists

neigh_modify    delay 0 every 1 check yes

# Set fixes

fix             1 water momentum 10 linear 1 1 1 rescale
fix             2 water nve
fix             3 water temp/csvr ${TEMP} ${TEMP} 500.0 ${SEED}
fix             3 water temp/csvr 225 ${TEMP} 500.0 ${SEED}
fix             3 water temp/csvr 225 225 500.0 ${SEED}
fix             3 water temp/csvr 225 225 500.0 14529
fix             4 water press/berendsen z ${PRES} ${PRES} 1000.0 modulus 20000
fix             4 water press/berendsen z 1 ${PRES} 1000.0 modulus 20000
fix             4 water press/berendsen z 1 1 1000.0 modulus 20000

# Run 0.5 ns equilibration

dump		    1 all atom 2000 ${DIR}/eq.${NAME}-${TEMP}.dump
dump		    1 all atom 2000 run_7/eq.${NAME}-${TEMP}.dump
dump		    1 all atom 2000 run_7/eq.het_freeze_7-${TEMP}.dump
dump		    1 all atom 2000 run_7/eq.het_freeze_7-225.dump

reset_timestep  0

run	            100000
Neighbor list info ...
  update every 1 steps, delay 0 steps, check yes
  max neighbors/atom: 2000, page size: 100000
  master list distance cutoff = 7.76
  ghost atom cutoff = 7.76
  binsize = 3.88, bins = 13 13 16
  1 neighbor lists, perpetual/occasional/extra = 1 0 0
  (1) pair sw, perpetual
      attributes: full, newton on
      pair build: full/bin/atomonly
      stencil: full/bin/3d
      bin: standard
Per MPI rank memory allocation (min/avg/max) = 4.091 | 4.193 | 4.508 Mbytes
Step Temp Press Volume TotEng KinEng PotEng c_1[4] c_3 
       0     132.7951   -1147.9579    145106.76   -36018.829     2665.962   -38684.791            0          225 
      50    171.55276   -733.94957    144518.91   -36427.609    3444.0513   -39871.661   0.86485374    290.66864 
     100    164.17236   -804.61316    144081.62   -36815.915    3295.8842   -40111.799    1.9501026    278.16374 
     150    160.66409   -1036.2891    143560.55   -37174.357     3225.453    -40399.81    2.8464978    272.21953 
     200    156.23465   -1000.1691    143155.31   -37447.032    3136.5286   -40583.561    3.5996137    264.71455 
     250      152.006   -695.73411     142726.8   -37666.879    3051.6353   -40718.514     4.315586    257.54978 
     300    148.91057   -843.91007    142333.69   -37881.439    2989.4922   -40870.932    4.9509058    252.30507 
     350    146.15097   -706.21852    141958.36   -38053.434    2934.0911   -40987.525    5.5940484    247.62938 
     400     145.2056   -612.84698    141739.12   -38149.419    2915.1121   -41064.531    6.1434831     246.0276 
     450    145.55814    -707.7248     141588.5   -38272.978    2922.1896   -41195.167    6.6841663    246.62492 
     500    142.11156   -642.31931    141233.53   -38472.126    2852.9969   -41325.123    7.2791887    240.78524 
     550    140.35167   -446.91272    140955.82   -38538.511    2817.6659   -41356.177    7.9230198     237.8034 
     600    140.58072   -211.04895    140825.09   -38606.362    2822.2642   -41428.626    8.4037945    238.19148 
     650    139.84209   -413.48068    140755.86    -38646.49    2807.4357   -41453.925    8.7404547       236.94 
     700    137.93618    -463.7993    140579.27   -38766.556     2769.173   -41535.729    9.1529419    233.71073 
     750    136.82385   -430.64474    140441.43   -38819.849    2746.8421   -41566.691    9.5738939    231.82607 
     800    140.23835   -431.60096    140407.21   -38838.467    2815.3909   -41653.858    9.9206198     237.6114 
     850    134.66758   -497.69584    140271.11   -38907.925    2703.5534   -41611.479    10.290616    228.17261 
     900    135.43672   -483.85181    140232.17   -38935.354    2718.9946   -41654.349    10.649498    229.47581 
     950     136.0397   -455.23123    140135.51   -38974.366    2731.0998   -41705.465    11.019139    230.49745 
    1000    134.95409   -170.90606    140100.45   -39011.241    2709.3054   -41720.546    11.435319    228.65807 
    1050    137.11957   -249.87798    140096.24   -38966.517    2752.7791   -41719.296     11.82242    232.32713 
    1100    133.67738    -143.3016    140130.79   -39039.092    2683.6744   -41722.766    12.196467    226.49488 
    1150    133.06344   -384.21667    140082.09   -39061.953    2671.3492   -41733.302    12.573113    225.45466 
    1200    134.30998   -290.71611    140037.62   -39073.847    2696.3744   -41770.221    12.961115    227.56673 
    1250    133.80619   -384.86276     139992.8   -39046.624    2686.2604   -41732.884    13.386728    226.71313 
    1300     135.4673   -362.18946    139998.71   -39084.439    2719.6083   -41804.047    13.727546    229.52761 
    1350    133.05546   -124.85601       139941   -39114.712    2671.1888   -41785.901    13.947737    225.44113 
    1400    133.62331   -287.66411    139870.16   -39119.644    2682.5889   -41802.233     14.30194    226.40327 
    1450    133.03944    -26.28381    139858.36   -39156.995    2670.8672   -41827.862    14.751247    225.41399 
    1500    132.36817    15.559042    139962.91   -39160.056    2657.3911   -41817.447    15.071608    224.27664 
    1550    134.09746   -119.35135    140030.24     -39156.8    2692.1079   -41848.908    15.407355    227.20665 
    1600    133.86577   -219.65859    140069.41     -39178.5    2687.4565   -41865.956    15.681912    226.81408 
    1650    135.22208   -197.49663    140150.28   -39166.709    2714.6855   -41881.394    15.933419    229.11214 
    1700    133.18562   -402.49989    140099.84   -39184.541    2673.8019   -41858.343    16.257892    225.66167 
    1750    132.91194   -31.881277    140116.36   -39186.526    2668.3077   -41854.834    16.477826    225.19797 
    1800    135.73107   -186.04311    140120.63   -39172.979    2724.9037   -41897.883    16.689232    229.97453 
    1850    136.43683   -255.65983    140116.31    -39216.22    2739.0726   -41955.293    16.992756    231.17033 
    1900    133.38386   -118.45359    140128.56   -39213.577    2677.7817   -41891.359    17.216242    225.99755 
    1950     131.7672   -286.32041    140099.35   -39239.599    2645.3261   -41884.925    17.568356    223.25839 
    2000     134.5496   -354.41902    140089.85   -39249.051     2701.185   -41950.236     17.83196    227.97272 
    2050    134.55896   -106.98716    140084.37     -39206.3    2701.3727   -41907.673    18.122939    227.98857 
    2100    136.77919   -192.40003     140078.1   -39167.458    2745.9456   -41913.404    18.377014     231.7504 
    2150     135.0013   -23.054648    140171.05   -39217.544    2710.2531   -41927.797    18.707551    228.73805 
    2200     133.2375   -49.845079    140197.26   -39246.472    2674.8434   -41921.316    18.904945    225.74957 
    2250    134.65852   -313.77063    140177.91   -39249.576    2703.3716   -41952.948     19.02196    228.15727 
    2300    135.71094   -335.45704    140056.01    -39207.94    2724.4997    -41932.44    19.411748    229.94043 
    2350    134.43259   -54.093974    140062.86   -39195.514    2698.8357    -41894.35    19.730856    227.77446 
    2400    133.61149   -114.16301    140100.48   -39207.906    2682.3516   -41890.258    20.060463    226.38324 
    2450    132.28784   -288.18082    140114.27   -39283.198    2655.7784   -41938.977    20.524628    224.14053 
    2500    131.72648    -227.6797    140122.29   -39304.724    2644.5086   -41949.232    20.751629    223.18939 
    2550     129.5506   -383.98035    140066.83   -39365.342    2600.8261   -41966.168    21.003366    219.50271 
    2600    131.84874   -171.41005    139968.68    -39324.95     2646.963   -41971.913    21.368597    223.39654 
    2650    132.17332   -195.21298    140010.56   -39295.695    2653.4794   -41949.174    21.578296     223.9465 
    2700    137.50843   -30.758731    140033.88   -39307.564    2760.5856   -42068.149    21.870688    232.98597 
    2750    133.33457   -257.98482    140010.73   -39294.176    2676.7922   -41970.968    22.050673    225.91404 
    2800    132.64677   -214.31956    140003.85   -39315.418    2662.9842   -41978.402      22.2507    224.74869 
    2850    132.50169   -278.30089    139902.88   -39331.754    2660.0716   -41991.826    22.563449    224.50286 
    2900    132.98695    32.769811    139912.62   -39360.258    2669.8135   -42030.071    22.848157    225.32506 
    2950    132.54327    72.922538    139910.28   -39315.099    2660.9064   -41976.006    23.259142    224.57332 
    3000    134.10899   -312.57385    139917.61   -39301.909    2692.3393   -41994.248    23.517737    227.22618 
    3050    132.60879   -337.39063    139909.68   -39314.202    2662.2218   -41976.424    23.910733    224.68433 
    3100    131.20032   -155.76141    139931.97   -39313.489    2633.9456   -41947.435    24.026437    222.29791 
    3150    132.56722   -168.50893    139948.09   -39362.854    2661.3872   -42024.241    24.174702     224.6139 
    3200    133.48289   -123.89149    139935.35   -39338.885    2679.7698   -42018.655    24.256236    226.16535 
    3250    131.71226    45.679804    139941.57    -39318.71    2644.2232   -41962.933    24.626367    223.16531 
    3300    133.17167   -9.0438864    140039.57   -39260.655     2673.522   -41934.177    24.893504    225.63804 
    3350    136.02002   -28.395593    140101.31   -39263.344    2730.7048   -41994.049    25.098126    230.46412 
    3400    135.17309   -152.01175    140138.11   -39267.662    2713.7019   -41981.364    25.382018    229.02912 
    3450    133.94441  -0.19613031    140088.99   -39285.548    2689.0353   -41974.584    25.733651    226.94733 
    3500      132.526   -173.93281    140136.51   -39297.345    2660.5596   -41957.905    26.059441    224.54405 
    3550    132.96088   -42.312555    140111.23   -39322.188    2669.2901   -41991.478    26.409541    225.28089 
    3600    131.80597   -83.659271    140084.68   -39365.795    2646.1045   -42011.899    26.827592    223.32408 
    3650    127.83571   -99.320449    140120.79   -39368.834    2566.3984   -41935.233    27.074302     216.5971 
    3700     131.3938   -142.74739    140151.66   -39370.863    2637.8299   -42008.692    27.306473    222.62572 
    3750    131.69079   -412.62663    140029.84   -39394.479    2643.7921   -42038.272    27.555009    223.12892 
    3800    134.20064   -236.75311    140029.66   -39388.697    2694.1793   -42082.876    27.870609    227.38147 
    3850    132.26944   -146.32019    140062.84   -39363.666     2655.409   -42019.075    28.255638    224.10936 
    3900    131.75921    59.001078    140111.06   -39397.498    2645.1658   -42042.664    28.423762    223.24485 
    3950    130.28227   -166.18676    140153.65   -39419.823     2615.515   -42035.338    28.616585    220.74241 
    4000     133.3903   -5.7462282    140206.11    -39409.12    2677.9111   -42087.031     28.95753    226.00848 
    4050    131.29596   -180.76165    140177.83   -39381.646    2635.8656   -42017.512     29.17758    222.45994 
    4100    130.42123   -82.968171    140194.21   -39382.602    2618.3047   -42000.907    29.271407    220.97785 
    4150     128.2406   -127.21106     140162.6   -39411.284    2574.5269   -41985.811    29.407921    217.28312 
    4200    134.44834   -270.40607    140205.02   -39409.379     2699.152   -42108.531    29.428705    227.80115 
    4250    132.20435   -210.50345    140281.97   -39416.184    2654.1023   -42070.286    29.689543    223.99907 
    4300    131.47301   -336.16494    140196.52   -39412.289    2639.4201   -42051.709    30.102481    222.75993 
    4350    131.35843    87.089821    140202.04   -39364.891    2637.1197    -42002.01    30.298383    222.56579 
    4400    133.04581   -209.57928    140238.15   -39394.962    2670.9951   -42065.957     30.35606    225.42478 
    4450    132.02883   -46.924277    140181.01   -39375.621    2650.5786     -42026.2    30.655525    223.70168 
    4500    133.49673   -98.184564     140169.7   -39364.642    2680.0478   -42044.689    30.872823     226.1888 
    4550    133.38796    56.447698    140193.95   -39409.682    2677.8641   -42087.546     31.21277     226.0045 
    4600    131.94748   -3.3571988    140264.59   -39397.705    2648.9454    -42046.65    31.337004    223.56385 
    4650    129.62262   -137.52007    140382.57   -39454.805    2602.2721   -42057.077    31.571077    219.62475 
    4700    132.44674   -342.59847     140343.1   -39448.109    2658.9683   -42107.077    31.744596    224.40975 
    4750    133.06462   -234.87569    140347.83   -39478.753    2671.3727   -42150.126    31.915839    225.45665 
    4800    131.00753   -212.35981    140368.54   -39462.222    2630.0753   -42092.297    32.117695    221.97126 
    4850    132.28039   -251.05262    140364.19   -39445.292    2655.6289   -42100.921     32.57754    224.12791 
    4900    129.34713   -256.69888    140354.62   -39461.525    2596.7415   -42058.266    32.879875    219.15798 
    4950    131.61646   -182.25842    140370.77   -39481.775    2642.2998   -42124.075    33.143126    223.00298 
    5000    129.27876   -259.31488    140373.97    -39498.09    2595.3688   -42093.459    33.319239    219.04213 
    5050    130.98282   -163.48139    140325.11   -39549.364    2629.5791   -42178.943     33.56796    221.92939 
    5100    130.77238   -258.71111    140337.73   -39524.409    2625.3544   -42149.763    33.858728    221.57283 
    5150    132.98864    77.176054    140343.01   -39488.371    2669.8475   -42158.218    34.069631    225.32793 
    5200    129.68727   -129.05471    140360.35   -39523.643      2603.57   -42127.213    34.201213    219.73428 
    5250    130.88561   -265.42484    140395.78   -39457.341    2627.6275   -42084.969    34.482249    221.76467 
    5300    128.42863   -155.51286    140374.45   -39471.891    2578.3018   -42050.193    34.781945    217.60172 
    5350    131.85575   -33.800239    140358.93   -39449.504    2647.1038   -42096.607    35.135701    223.40842 
    5400    131.93611   -30.318239    140373.23   -39419.216    2648.7172   -42067.933    35.418916    223.54459 
    5450    134.49803   -14.729497    140367.44    -39368.79    2700.1496    -42068.94    35.748289    227.88535 
    5500    131.66095   -149.99031    140388.98   -39381.725    2643.1931   -42024.918    36.087825    223.07837 
    5550    133.90783    120.82447    140394.66   -39420.537    2688.3009   -42108.838    36.328681    226.88534 
    5600    132.12567    158.73792    140506.66   -39406.865    2652.5226   -42059.387    36.422212    223.86575 
    5650    133.37475    62.623704    140517.66   -39421.195    2677.5989   -42098.794    36.697581    225.98213 
    5700    130.50528    19.256128    140496.91   -39399.058    2619.9922    -42019.05    36.983339    221.12027 
    5750    132.66921    92.248847    140475.91   -39451.352    2663.4347   -42114.786    37.137782     224.7867 
    5800    133.39087    28.403587    140552.57   -39353.485    2677.9225   -42031.407    37.390939    226.00943 
    5850     134.7024   -188.39754    140612.08   -39341.652    2704.2525   -42045.905    37.738414    228.23162 
    5900    133.27785   -176.54032    140664.06   -39326.599    2675.6535   -42002.253    37.937516    225.81794 
    5950    132.96173   -81.388788     140705.8   -39307.738    2669.3072   -41977.045    38.100017    225.28233 
    6000    135.66659   -19.808004    140671.38   -39307.639    2723.6094   -42031.249    38.206612    229.86528 
    6050     130.7101   -356.20447    140639.49   -39334.436    2624.1041    -41958.54     38.39038    221.46731 
    6100    133.12444   -157.84857     140560.7   -39321.916    2672.5737    -41994.49    38.880285    225.55801 
    6150    134.57173    -2.195469    140511.04   -39316.652    2701.6292   -42018.281    39.160884    228.01022 
    6200    131.38561   -250.58788    140546.97    -39398.68    2637.6654   -42036.346    39.474862    222.61185 
    6250    131.31348    14.547521    140507.11   -39376.506    2636.2174   -42012.723     39.72804    222.48963 
    6300    132.24736   -156.83697    140433.94   -39392.222    2654.9658   -42047.187    40.065616    224.07195 
    6350    131.48587   -212.29393    140339.17    -39323.28    2639.6781   -41962.958    40.211231    222.78171 
    6400    132.80077    -95.41433    140349.15   -39352.311    2666.0758   -42018.387    40.352573     225.0096 
    6450    130.45318   -132.13235    140369.43   -39372.016    2618.9462   -41990.962    40.387029    221.03199 
    6500    130.94024   -185.39679    140338.81   -39385.896    2628.7243   -42014.621     40.68896    221.85724 
    6550    133.78997   -23.744513    140321.47   -39373.929    2685.9348   -42059.864    40.811828    226.68565 
    6600    133.52901   -23.231279    140440.04   -39437.755    2680.6959    -42118.45    40.907023     226.2435 
    6650     130.0949    12.541991    140510.18   -39482.371    2611.7534   -42094.125    41.062017    220.42494 
    6700    129.84535   -24.320327    140542.93   -39456.668    2606.7436   -42063.411    41.262915    220.00213 
    6750    133.49781      33.7836     140585.2    -39387.29    2680.0695    -42067.36    41.278078    226.19063 
    6800    133.35211   -294.70259     140580.2    -39439.97    2677.1444   -42117.114    41.669786    225.94376 
    6850    132.28518   -60.796433       140569   -39425.948    2655.7249   -42081.673    41.824146    224.13601 
    6900    130.08405   -155.98557    140636.45   -39437.228    2611.5356   -42048.764    41.892353    220.40656 
    6950    131.19413   -208.19271    140622.91   -39401.159    2633.8214    -42034.98    41.982879    222.28742 
    7000    131.58891   -187.33381    140620.61   -39411.765    2641.7468   -42053.511    42.141255     222.9563 
    7050    134.97164   -267.13179    140550.52    -39391.15    2709.6577   -42100.808    42.161794     228.6878 
    7100    131.99858   -105.01824     140528.9    -39367.78    2649.9712   -42017.751    42.296893    223.65042 
    7150    137.40917   -181.39695    140560.26   -39364.223     2758.593   -42122.816    42.274427     232.8178 
    7200    132.54481   -76.426563    140515.18   -39411.042    2660.9373    -42071.98    42.450431    224.57593 
    7250    134.13596   -200.76873    140561.37   -39390.254    2692.8808   -42083.135    42.599023    227.27188 
    7300    135.31154   -162.33029     140567.2   -39411.248    2716.4814   -42127.729    42.656001     229.2637 
    7350    132.53125   -198.82524    140584.44   -39412.878     2660.665   -42073.543    42.975122    224.55295 
    7400    133.04219   -82.864171    140587.73   -39374.146    2670.9225   -42045.068    43.330352    225.41865 
    7450    136.21033   -137.00868    140635.24   -39427.443    2734.5252   -42161.969    43.606831    230.78655 
    7500    130.92264   -74.378697    140638.73   -39459.943    2628.3709   -42088.314    43.960606    221.82742 
    7550    134.35498   -227.25989    140655.77   -39458.088    2697.2778   -42155.366    44.074967    227.64297 
    7600    132.09312   -3.9850541    140614.23    -39445.49    2651.8692   -42097.359    44.189295    223.81061 
    7650     133.7566   -202.79108    140613.87   -39419.877    2685.2648   -42105.142    44.107006     226.6291 
    7700    131.79254   -135.84587    140520.95    -39421.17    2645.8349   -42067.005    44.272985    223.30133 
    7750    135.53796   -96.583179    140601.45   -39352.764     2721.027   -42073.791    44.369969    229.64734 
    7800    135.05682   -212.89701    140646.22   -39401.596    2711.3677   -42112.964    44.671636    228.83212 
    7850    134.54282   -136.45824    140655.58   -39414.476    2701.0489   -42115.525    44.885737    227.96124 
    7900    132.88209   -134.60068    140660.33   -39402.669    2667.7084   -42070.377    45.251358    225.14739 
    7950     133.3523   -221.00895    140630.59   -39413.874    2677.1482   -42091.022    45.683815    225.94408 
    8000    132.62026    36.576125    140679.88   -39356.359    2662.4519   -42018.811    46.004852    224.70376 
    8050    132.52864   -92.215851    140715.32   -39374.141    2660.6126   -42034.753    46.187119    224.54853 
    8100     135.0392   -287.44346    140677.26   -39383.202     2711.014   -42094.216    46.373805    228.80227 
    8150    132.65272   -48.717627    140606.41   -39403.642    2663.1037   -42066.746    46.401409    224.75877 
    8200    132.00417   -203.20263    140581.72   -39466.939    2650.0835   -42117.022    46.619662     223.6599 
    8250    133.45615   -225.25357    140529.37     -39465.5     2679.233   -42144.733    46.924742    226.12004 
    8300    133.36277     -22.1428    140401.79   -39396.058    2677.3584   -42073.416    47.267904    225.96183 
    8350    134.04471   -128.54803    140418.96   -39415.875    2691.0489   -42106.924    47.777385    227.11727 
    8400    133.32729   -171.01169    140363.13   -39435.679    2676.6461   -42112.325    48.013758    225.90171 
    8450    132.96643   -150.80074    140371.77   -39393.942    2669.4015   -42063.344    48.123195    225.29029 
    8500     134.1221    -18.12848    140381.38   -39370.357    2692.6025   -42062.959    48.196922    227.24839 
    8550    130.95468   -67.166269    140418.78   -39436.638    2629.0142   -42065.652    48.480745     221.8817 
    8600    133.33745   -120.01434    140404.04   -39395.773    2676.8501   -42072.623    48.697608    225.91892 
    8650    134.67591   -34.478266    140477.46   -39364.148    2703.7206   -42067.869     48.75388    228.18673 
    8700    136.18151   -166.32756    140571.47   -39385.189    2733.9467   -42119.136    48.805215    230.73773 
    8750     137.1076   -47.437521    140641.57    -39355.91    2752.5387   -42108.448    48.937933    232.30684 
    8800    135.68514    149.19268    140700.02   -39327.915    2723.9816   -42051.897    49.076847     229.8967 
    8850    135.42644    -114.9535    140786.45   -39347.353    2718.7881   -42066.141    49.270498    229.45839 
    8900    132.04882   -150.79585     140787.8   -39426.289    2650.9799   -42077.269    49.613523    223.73555 
    8950    136.37236   -56.476982    140898.66   -39427.591    2737.7781   -42165.369    49.717401    231.06109 
    9000    130.82241   -333.23435    140856.46   -39533.007    2626.3587   -42159.366    49.963831    221.65759 
    9050    133.44731   -320.94333    140833.79   -39506.275    2679.0557   -42185.331    50.208701    226.10507 
    9100    132.30664   -194.77344    140807.98   -39453.683    2656.1558   -42109.839    50.386387    224.17239 
    9150    134.88526   -294.92279    140850.51   -39432.469    2707.9235   -42140.392    50.686745    228.54144 
    9200    136.36158    24.198868    140911.82   -39408.362    2737.5618   -42145.924    50.938969    231.04283 
    9250    134.54639   -282.74574    141007.22   -39438.864    2701.1205   -42139.984    51.328652    227.96728 
    9300     134.6238   -222.50787    141037.48   -39405.528    2702.6744   -42108.202    51.562495    228.09843 
    9350    134.79125   -356.95362    140926.65   -39451.261    2706.0361   -42157.297    51.632007    228.38215 
    9400    136.44982     -150.327    140933.66   -39446.756    2739.3333    -42186.09    51.506461    231.19234 
    9450    134.40782    71.973926    140981.47   -39424.369    2698.3385   -42122.707    51.515074    227.73249 
    9500    132.06775   -100.70478     140995.4   -39482.486    2651.3599   -42133.846    51.495882    223.76762 
    9550    132.09685   -334.88902    140986.99   -39525.295    2651.9442    -42177.24     51.58698    223.81693 
    9600    131.85564   -296.93057    140925.53   -39487.753    2647.1017   -42134.854    51.670987    223.40824 
    9650    132.13377   -326.95896    140917.48    -39445.08    2652.6853   -42097.766     51.59989    223.87949 
    9700    133.41191   -416.02794    140928.86    -39403.97     2678.345   -42082.315    51.756456    226.04509 
    9750    132.09622   -111.94851    140962.29   -39436.928    2651.9314   -42088.859    51.714227    223.81586 
    9800     134.6571    -313.1573    140951.88   -39427.927     2703.343    -42131.27    51.702962    228.15486 
    9850    131.83144   -275.19159    140997.45    -39411.97    2646.6158   -42058.586     51.88487    223.36723 
    9900     131.9462   -315.48752     140961.8   -39435.484    2648.9197   -42084.404    51.895007    223.56167 
    9950    132.76978   -277.77057    140856.19   -39416.319    2665.4536   -42081.773    52.298483    224.95709 
   10000    138.19587   -357.49655    140834.65   -39361.479    2774.3866   -42135.865    52.547669    234.15074 
   10050    133.44084   -38.760315    140821.11   -39395.992    2678.9256   -42074.917    52.801778     226.0941 
   10100    130.90608   -195.80447    140874.17   -39386.055    2628.0386   -42014.094    53.007117    221.79937 
   10150    133.20916   -225.38878    140880.68   -39369.036    2674.2745    -42043.31     53.25549    225.70155 
   10200    134.52876   -444.72266     140899.5   -39363.655    2700.7665   -42064.421    53.422655    227.93741 
   10250    131.26204   -494.33929    140834.88   -39425.124    2635.1846   -42060.309     53.54823    222.40247 
   10300    131.75042     -139.025    140771.54   -39409.331    2644.9893    -42054.32    53.945788    223.22996 
   10350     132.7578   -262.29384    140781.28   -39379.283    2665.2132   -42044.496    54.233142    224.93681 
   10400    134.73732    -299.7642    140836.85    -39390.09    2704.9535   -42095.044    54.333286    228.29078 
   10450     133.4515   -154.98127    140873.83   -39416.902    2679.1397   -42096.041    54.498784    226.11216 
   10500    133.61814   -166.70212    140935.97    -39389.07     2682.485   -42071.555    54.670388     226.3945 
   10550    133.20129    -159.5201    140927.25   -39421.525    2674.1165   -42095.642    54.548536    225.68822 
   10600    132.74666   -54.583347     141013.5   -39400.337    2664.9894   -42065.327    54.562112    224.91792 
   10650    134.72273   -226.05046    141027.63   -39353.522    2704.6605   -42058.183    54.660661    228.26605 
   10700    137.17902   -267.37862    141107.48   -39301.755    2753.9725   -42055.728    54.852318    232.42785 
   10750    137.17314    -224.4898    141108.97   -39311.358    2753.8545   -42065.213     55.03965    232.41789 
   10800     134.3938   -281.98385    141094.74   -39338.531    2698.0572   -42036.588    55.091652    227.70875 
   10850    135.20697   -342.59172    141089.82   -39405.222    2714.3821   -42119.604    55.325345    229.08653 
   10900    133.84266   -276.15568    141065.12   -39369.019    2686.9924   -42056.012    55.592275    226.77491 
   10950    133.98179   -76.275203    141114.56   -39430.507    2689.7856   -42120.293    55.626671    227.01065 
   11000    137.40739   -373.21361    141226.72   -39370.411    2758.5572   -42128.969     55.79754    232.81479 
   11050    135.43202   -448.57059    141184.01   -39389.681    2718.9001   -42108.581    56.105735    229.46784 
   11100    134.65553   -375.95846    141104.84   -39373.924    2703.3115   -42077.236    56.189052     228.1522 
   11150    132.42981   -261.12921    141113.55   -39400.531    2658.6286   -42059.159    56.664262    224.38108 
   11200    134.35033   -551.00725    141046.58   -39426.287    2697.1844   -42123.471    56.731986    227.63509 
   11250    134.22482   -172.49111    140994.58   -39463.868    2694.6648   -42158.533    56.909124    227.42244 
   11300    131.44693    -255.9897    141036.16   -39481.293    2638.8965    -42120.19    57.247775    222.71574 
   11350     135.4182   -309.09229    141085.71   -39417.952    2718.6227   -42136.575    57.415413    229.44442 
   11400    133.43928   -445.99164    141088.97   -39409.406    2678.8945   -42088.301    57.473556    226.09147 
   11450    133.79303   -203.32039    141109.99   -39428.054    2685.9962    -42114.05    57.605829    226.69083 
   11500    133.24361   -379.25602    141102.22    -39446.72    2674.9662   -42121.686    57.950277    225.75993 
   11550    132.07586   -219.11916     141083.7   -39472.423    2651.5227   -42123.946    58.086247    223.78136 
   11600    132.61329   -315.76796    141094.32   -39507.069     2662.312   -42169.381     58.19308    224.69195 
   11650    133.29544   -369.80387    141084.61   -39499.916    2676.0067   -42175.922    58.309259    225.84775 
   11700    133.95763    -155.5707    141091.01   -39464.112    2689.3007   -42153.412    58.505893    226.96972 
   11750    133.38737    -259.4929    141075.69   -39510.262    2677.8523   -42188.115    58.738374    226.00351 
   11800    130.26116   -361.52215    141043.32   -39542.869    2615.0912    -42157.96    58.970089    220.70664 
   11850    134.12908   -373.40654       141039   -39533.114    2692.7426   -42225.857    59.240287    227.26021 
   11900    131.78237   -145.22774       141063   -39530.561    2645.6307   -42176.191    59.429574    223.28409 
   11950    129.28798   -287.22931    141078.74   -39541.362    2595.5539   -42136.916    59.471581    219.05775 
   12000    132.93472   -337.65407    141046.06   -39548.293     2668.765   -42217.058    59.717655    225.23657 
   12050    132.47582    -117.1368    141048.98   -39528.291    2659.5523   -42187.844    59.944513    224.45904 
   12100    130.32709   -43.837196     141081.5   -39528.738    2616.4149   -42145.153    60.101595    220.81836 
   12150    133.62439   -53.431891    141049.58   -39510.224    2682.6106   -42192.835    60.178456     226.4051 
   12200    137.05284   -117.56499    141008.78   -39468.586    2751.4393   -42220.025     60.30592    232.21405 
   12250    133.73484   -194.37086    141083.36   -39492.901    2684.8279   -42177.729    60.392143    226.59223 
   12300    134.26571   -238.52263    141117.07   -39508.695    2695.4855   -42204.181    60.574479    227.49171 
   12350    133.54365   -404.49094     141051.8   -39502.695    2680.9896   -42183.685    60.972278    226.26829 
   12400    131.52065   -519.33926    140999.43   -39465.207    2640.3765   -42105.584    61.356682    222.84065 
   12450    132.48265   -437.17045    140950.85   -39467.053    2659.6894   -42126.743    61.516882    224.47061 
   12500    133.34064   -182.81334    140941.17   -39452.069    2676.9141   -42128.983    61.806734    225.92433 
   12550    134.36587     -214.971    140912.52   -39433.559    2697.4964   -42131.055    62.134478    227.66142 
   12600    133.21758   -334.80051     140917.1   -39443.164    2674.4436   -42117.608    62.343931    225.71583 
   12650     132.1981   -233.68834    140983.26   -39460.173    2653.9767    -42114.15    62.734703    223.98847 
   12700    130.39056   -375.34522    140973.78   -39489.357    2617.6891   -42107.046    62.825855     220.9259 
   12750    132.56595   -70.497694    140957.84   -39445.463    2661.3617   -42106.824    63.056631    224.61174 
   12800    132.70685   -243.05376    140999.21   -39486.686    2664.1902   -42150.876    63.378855    224.85047 
   12850    133.04159   -334.77387    141130.11   -39479.626    2670.9105   -42150.536    63.608774    225.41764 
   12900    131.63971   -298.71376     141104.4   -39527.187    2642.7667   -42169.954    63.899474    223.04238 
   12950    131.70165   -123.88978    141090.07   -39574.873    2644.0101   -42218.883    64.062303    223.14732 
   13000    132.93612   0.71787866     141086.9   -39506.123    2668.7931   -42174.916    64.030851    225.23894 
   13050    133.68582   -163.10774    141092.91   -39516.086    2683.8438   -42199.929    63.821464    226.50918 
   13100    129.61272   -207.12966       141080   -39531.769    2602.0732   -42133.842     64.00079    219.60796 
   13150    131.15182   -265.37856    141059.66   -39559.823     2632.972   -42192.795    64.041361    222.21573 
   13200    132.95254   -247.88045    141033.68   -39564.359    2669.1227   -42233.482    64.497805    225.26675 
   13250    130.20256   -159.29885     140953.7   -39561.554    2613.9148   -42175.469     64.66877    220.60736 
   13300    131.03973   -275.14211    140931.95   -39520.777    2630.7217   -42151.499    65.077282    222.02581 
   13350    131.83953    -81.03877    140943.52   -39545.161    2646.7781   -42191.939    65.335604    223.38093 
   13400    131.63392   -373.30396    140986.19   -39531.873    2642.6504   -42174.523    65.493005    223.03256 
   13450    133.84837    -178.7278    140989.67    -39555.92    2687.1072   -42243.028    65.680308     226.7846 
   13500    132.22171   -34.090143    141040.19   -39499.838    2654.4507   -42154.289    66.090537    224.02848 
   13550    131.49084   -116.81585    141119.37   -39507.957    2639.7779   -42147.734    66.173255    222.79013 
   13600    133.18763    -126.2046     141171.1   -39562.074    2673.8424   -42235.917    66.246586    225.66508 
   13650    132.90446   -258.71764    141254.28   -39529.626    2668.1574   -42197.783    66.524722    225.18529 
   13700    131.73586   -180.53863     141252.7   -39547.424    2644.6968   -42192.121    66.775374    223.20528 
   13750    132.40724   -391.97386    141185.63   -39544.439    2658.1754   -42202.614    67.027465    224.34283 
   13800    132.62143   -135.15427    141152.95   -39494.053    2662.4753   -42156.529    67.029907    224.70574 
   13850    132.34748   -319.56469    141174.87   -39526.483    2656.9757   -42183.459    67.325366    224.24158 
   13900    129.65653   -327.72265    141101.27   -39544.987    2602.9528    -42147.94    67.575813     219.6822 
   13950    131.89508   -483.20987    141055.65   -39527.412    2647.8934   -42175.306     67.79974    223.47506 
   14000    131.60797   -247.77081    141003.65   -39536.684    2642.1294   -42178.814    68.254631    222.98859 
   14050    132.23715   -175.77413    141096.75   -39534.968    2654.7606   -42189.728    68.444975    224.05464 
   14100    129.24989   -258.47061    141155.76   -39546.753    2594.7893   -42141.543    68.813068    218.99322 
   14150    130.62186   -372.39071    141137.67    -39587.78    2622.3325   -42210.113    69.013283    221.31779 
   14200     131.9794   -406.11878    141059.58    -39533.02    2649.5863   -42182.606    69.290097    223.61793 
   14250    131.67762   -408.52401    141010.82   -39464.312    2643.5277    -42107.84    69.504086     223.1066 
   14300    132.97603   -245.84585    140997.58   -39457.038    2669.5943   -42126.632    69.728558    225.30656 
   14350    131.88362   -320.23181    141005.16   -39441.525    2647.6634   -42089.188    70.078462    223.45565 
   14400    131.99426   -278.89241    141005.97    -39500.23    2649.8845   -42150.115    70.401308     223.6431 
   14450    131.93834   -375.32542     140961.6   -39483.378    2648.7619    -42132.14    70.623909    223.54836 
   14500    133.87001   -168.61934     140910.5   -39412.482    2687.5416   -42100.024    70.984836    226.82126 
   14550    132.41221   -67.293228    140896.48   -39457.895    2658.2752    -42116.17    71.152142    224.35126 
   14600    134.02559   -115.89803    140960.78   -39403.341     2690.665   -42094.006    71.415721    227.08486 
   14650    130.50886    -104.3627    140956.19   -39481.979     2620.064   -42102.043    71.557988    221.12634 
   14700    131.82012   -299.59643    140898.56   -39492.826    2646.3886   -42139.215    71.849835    223.34805 
   14750    130.24441   -273.75406    140944.83   -39488.825    2614.7549    -42103.58    72.068508    220.67826 
   14800    128.10579   -347.08003    140976.24   -39508.742    2571.8205   -42080.562    72.539374    217.05471 
   14850    131.55593   -144.30917    140950.84   -39485.355    2641.0848    -42126.44     72.65034    222.90043 
   14900    129.47831   -57.800762     140942.8   -39491.333    2599.3749   -42090.708    72.887709    219.38023 
   14950    130.25499   -271.23815    140942.97   -39486.234    2614.9674   -42101.201    73.090722    220.69619 
   15000    128.93484   -386.56495    140846.23   -39471.604    2588.4644   -42060.068    73.399308    218.45942 
   15050    130.59172   -192.10478    140739.23   -39478.184    2621.7274   -42099.912     73.83706    221.26672 
   15100    130.71741   -151.15038    140653.49   -39509.317    2624.2509   -42133.568    74.020602     221.4797 
   15150    132.41624   -177.81918    140680.84   -39467.353    2658.3561   -42125.709    74.191993    224.35808 
   15200    129.80615   -198.55928    140734.07   -39455.281    2605.9566   -42061.238    74.554741     219.9357 
   15250    132.94332   -138.09231    140671.95    -39441.35    2668.9375   -42110.287    74.825846    225.25113 
   15300    131.86734   -398.65567    140550.31   -39419.059    2647.3364   -42066.396    74.941737    223.42805 
   15350    134.15231   -231.66971    140480.76   -39398.084     2693.209   -42091.293     75.27862    227.29957 
   15400    131.39228   -247.47851    140547.82   -39460.441    2637.7994    -42098.24    75.606482    222.62315 
   15450    131.02396   -244.23523    140589.37   -39431.158    2630.4049   -42061.563    75.804709    221.99908 
   15500     129.0575   -443.02621    140585.74   -39490.875    2590.9268   -42081.802    75.830247    218.66723 
   15550    131.04485   -170.65956     140508.6   -39433.809    2630.8243   -42064.634    75.836925    222.03448 
   15600    132.00025    -207.6403    140478.52   -39362.493    2650.0047   -42012.497    76.083128    223.65325 
   15650    131.61267   -28.159836    140437.23   -39336.951    2642.2238   -41979.175    76.515967    222.99656 
   15700    132.49586    91.402897    140375.65   -39344.452    2659.9546   -42004.406    76.620153    224.49299 
   15750    132.94055    115.69674    140536.17   -39379.279    2668.8819   -42048.161    76.821863    225.24644 
   15800    134.10122   -230.66911    140555.75   -39390.699    2692.1834   -42082.882    76.881922    227.21302 
   15850    133.16223   -338.07705    140540.79   -39383.037    2673.3325   -42056.369    76.850431    225.62205 
   15900    130.77326   -150.67522    140512.68   -39415.147    2625.3719   -42040.518    76.990942    221.57431 
   15950    131.61902   -68.642761    140590.64   -39438.364    2642.3514   -42080.716    77.030053    223.00733 
   16000    131.48843   -236.96834    140656.94   -39433.846    2639.7295   -42073.576    77.401467    222.78605 
   16050    132.98949   -322.48518    140579.72   -39437.228    2669.8645   -42107.092    77.761505    225.32936 
   16100    131.82701    -92.07126    140556.28   -39466.875    2646.5268   -42113.401    77.762897    223.35972 
   16150    131.42046   -275.98016    140541.45    -39399.98    2638.3651   -42038.346    77.883374     222.6709 
   16200    131.22558    -146.6324    140534.37   -39365.665    2634.4528   -42000.118    78.163941    222.34071 
   16250    135.22292   -356.51658    140525.42   -39322.301    2714.7022   -42037.003    78.396469    229.11354 
   16300    135.85742   -87.865491    140489.73   -39307.949    2727.4403    -42035.39    78.585858     230.1886 
   16350    135.89062    -261.5128    140544.08   -39304.609    2728.1068   -42032.716    78.863274    230.24485 
   16400    133.90228    -292.9256    140491.28   -39359.508    2688.1894   -42047.698    79.022274    226.87593 
   16450    132.78499   -296.34663     140392.3   -39353.952    2665.7591   -42019.711    79.235727    224.98288 
   16500    134.02897   -228.73891    140349.23   -39344.992    2690.7328   -42035.725    79.509263    227.09059 
   16550     131.0203    92.850993    140362.29   -39307.024    2630.3315   -41937.356     79.93249    221.99288 
   16600    137.05589   -166.31616    140425.06   -39318.742    2751.5005   -42070.243    80.446843    232.21922 
   16650    134.52826   -266.03979    140341.66   -39312.289    2700.7565   -42013.046    80.766615    227.93656 
   16700     133.8267   -126.39411    140381.72   -39311.944    2686.6721   -41998.616    80.843785    226.74788 
   16750    136.22663   -60.793503    140417.29   -39301.647    2734.8525     -42036.5    80.863382    230.81418 
   16800    135.99084   -148.65016    140437.95   -39334.797    2730.1189   -42064.916    80.760599    230.41467 
   16850     134.7617   -176.62789    140484.08   -39320.977     2705.443    -42026.42    80.981281    228.33209 
   16900    132.77072   -59.795766    140507.57   -39328.987    2665.4725   -41994.459    81.103291    224.95869 
   16950    133.82369   -140.45423    140510.14   -39306.267    2686.6118   -41992.879    81.434821    226.74279 
   17000    135.74908   -297.72912    140480.84   -39307.422    2725.2654   -42032.687    81.771659    230.00505 
   17050    133.86883   -264.77082    140500.74   -39360.652     2687.518    -42048.17    82.010691    226.81927 
   17100    130.62077    112.32173    140485.58   -39362.432    2622.3107   -41984.743    82.183469    221.31595 
   17150     131.9775   -81.849654    140585.55    -39359.97    2649.5481   -42009.518    82.314476    223.61471 
   17200    134.31202   -121.74007    140608.76   -39358.061    2696.4152   -42054.476    82.229641    227.57017 
   17250    134.49164   -296.45322    140570.24   -39379.362    2700.0212   -42079.383    82.371001    227.87451 
   17300    131.37597   -53.124842    140569.81   -39363.618    2637.4719    -42001.09    82.554288    222.59552 
   17350    135.22716    -266.7863    140623.58   -39318.988    2714.7874   -42033.775    82.738193    229.12074 
   17400    135.38646   -338.08726    140613.16   -39257.573    2717.9855   -41975.558    82.828498    229.39064 
   17450    133.08722   -396.55284    140512.89   -39287.561    2671.8265   -41959.388    83.081399    225.49495 
   17500      132.453   -261.85041    140450.14   -39293.368    2659.0941   -41952.462     83.36625    224.42037 
   17550    130.88522   -288.21886    140447.12   -39388.368    2627.6197   -42015.988    83.297953    221.76401 
   17600    133.10727   -233.51294    140449.84   -39398.352     2672.229   -42070.581     83.40129    225.52892 
   17650    131.51186   -364.34967    140425.27   -39339.457    2640.2001   -41979.657    83.495643    222.82576 
   17700    132.25846   -177.61514    140389.95   -39339.126    2655.1886   -41994.315    83.435131    224.09075 
   17750    133.06802   -140.42243    140418.88   -39285.745     2671.441   -41957.186    83.566903    225.46241 
   17800    135.01593   -176.22487    140505.81   -39334.022    2710.5469   -42044.569    83.821216    228.76284 
   17850    133.99496   -170.71022    140495.73   -39313.753      2690.05   -42003.803    84.357231    227.03296 
   17900    136.42594   -406.08062    140473.96   -39323.661    2738.8538   -42062.514    84.985816    231.15187 
   17950    135.12155   -82.463524    140442.48   -39306.115    2712.6673   -42018.783    85.395427     228.9418 
   18000    134.43716    -149.7239    140477.35   -39311.593    2698.9276   -42010.521     85.75372    227.78221 
   18050    133.20234   -237.98339    140546.48   -39311.315    2674.1376   -41985.452    86.113475       225.69 
   18100    131.61001   -193.31234    140565.88   -39315.412    2642.1704   -41957.583     86.47317    222.99206 
   18150    135.24083   -414.92007    140605.62   -39272.291    2715.0618   -41987.353    86.486221     229.1439 
   18200    137.16013   -186.57161    140571.13   -39263.017    2753.5933    -42016.61    86.691701    232.39585 
   18250    133.88324   -43.401551    140499.56   -39318.436    2687.8071   -42006.243    86.821452    226.84367 
   18300    132.63721   -184.70135    140538.98   -39297.958    2662.7923    -41960.75    87.135351    224.73248 
   18350    133.19293   -158.53556    140571.41   -39325.608    2673.9488   -41999.557    87.399485    225.67407 
   18400    133.54594    -176.7848    140585.59    -39359.96    2681.0356   -42040.996    87.592468    226.27218 
   18450    131.83968   -239.58498    140582.48   -39360.086    2646.7811   -42006.868    87.682532    223.38119 
   18500    132.58015   -224.26021    140652.99   -39292.412    2661.6468   -41954.059    87.893769    224.63581 
   18550    131.87593   -316.85339    140544.67   -39345.029     2647.509   -41992.538    88.104327    223.44261 
   18600     135.5693   -226.70497     140570.8   -39311.131    2721.6562   -42032.787    88.479942    229.70044 
   18650    132.51172   -96.866544    140586.06   -39322.916    2660.2729   -41983.188    88.738985    224.51986 
   18700    131.67065    -232.5457    140610.97   -39328.077    2643.3878   -41971.465    88.845527     223.0948 
   18750    131.87107   -329.06502    140625.15    -39301.77    2647.4113   -41949.182    89.040131    223.43437 
   18800    135.04562   -308.33593    140566.48   -39307.653    2711.1428   -42018.796    89.632349    228.81314 
   18850    133.05613   -196.04085    140464.93   -39333.812    2671.2023   -42005.015    90.015968    225.44227 
   18900    133.87667   -328.46382    140360.72   -39328.417    2687.6752   -42016.092    90.428332    226.83254 
   18950    134.87913   -232.91655    140346.47   -39317.776    2707.8004   -42025.576    90.776173    228.53105 
   19000    132.85384   -55.941267    140409.77   -39297.826    2667.1411   -41964.967    91.126758    225.09952 
   19050    134.64913   -288.87364    140444.02   -39276.531    2703.1829   -41979.714    91.476935    228.14135 
   19100    135.29126   -94.323649    140413.25   -39289.259    2716.0743   -42005.334    91.643025    229.22934 
   19150    131.95385   -136.36227    140421.85   -39331.168    2649.0732   -41980.241    92.002087    223.57463 
   19200    134.19129   -235.45804    140437.66   -39320.539    2693.9916   -42014.531    92.184303    227.36562 
   19250    131.44724    -364.9342    140417.63   -39320.999    2638.9026   -41959.902    92.749808    222.71626 
   19300    133.44704    55.590625    140381.05   -39274.436    2679.0501   -41953.487    92.961267     226.1046 
   19350    130.42738   -409.42815    140408.45   -39304.908    2618.4283   -41923.336    93.085239    220.98828 
   19400    135.69737   -291.20464    140368.74   -39275.664    2724.2272   -41999.892    93.247132    229.91743 
   19450    133.15569   -119.32699    140339.21   -39284.232    2673.2011   -41957.433     93.64592    225.61096 
   19500    134.08881   -73.261126    140441.62   -39308.371    2691.9343   -42000.305    93.914797    227.19199 
   19550    131.04562    -284.3396    140423.11   -39336.189    2630.8399   -41967.029    94.429556    222.03579 
   19600    130.77866   -265.83925    140404.47   -39405.147    2625.4804   -42030.627    94.768666    221.58346 
   19650    129.41255    -263.4079    140400.07   -39433.837    2598.0547   -42031.891    95.033689    219.26881 
   19700    132.39534   -269.85432    140333.65   -39429.013    2657.9365    -42086.95    95.411687    224.32267 
   19750    131.92781   -349.17939    140291.07   -39422.785    2648.5504   -42071.335    95.831885    223.53051 
   19800    132.43688   -202.25579    140193.58   -39351.543    2658.7705   -42010.314    95.970529    224.39306 
   19850     133.3677   -101.64202    140203.01   -39330.919    2677.4573   -42008.376    96.226683    225.97017 
   19900    134.58519   -100.31992    140290.13   -39339.676    2701.8993   -42041.576    96.601764    228.03302 
   19950    131.71656   -141.08055    140273.25   -39353.409    2644.3095   -41997.719    96.970396    223.17259 
   20000    134.54989   -168.60987    140284.38   -39380.132    2701.1907   -42081.323    97.251261     227.9732 
   20050    129.48906   -504.59902    140256.86   -39403.398    2599.5907   -42002.989    97.676594    219.39845 
   20100    134.09008   -201.96687    140141.47   -39379.056    2691.9596   -42071.016    98.078865    227.19413 
   20150    131.93008   -304.88962    140139.92     -39373.7    2648.5961   -42022.296    98.455772    223.53436 
   20200    133.40496   -157.24803    140100.82   -39367.735    2678.2054   -42045.941    98.771303    226.03331 
   20250    132.48325   -300.03418    140033.79   -39391.263    2659.7013   -42050.964    99.098559    224.47162 
   20300    130.56325   -203.51567    139964.45   -39381.656    2621.1558   -42002.811    99.486881    221.21848 
   20350    132.67903    -207.7981    139939.04   -39372.642    2663.6319   -42036.274    99.673265    224.80334 
   20400    134.07014   -250.63821    139909.73   -39363.719    2691.5593   -42055.278    99.737748    227.16035 
   20450    136.90758   -251.01907       139884   -39338.571    2748.5231   -42087.094    100.05784    231.96793 
   20500    133.53786    -37.36767    139936.94   -39314.557    2680.8734   -41995.431    100.34772    226.25848 
   20550    133.12271   -102.56697    140055.64   -39385.273    2672.5391   -42057.812    100.51829    225.55509 
   20600    130.62296   -251.45855    140059.96   -39409.206    2622.3546   -42031.561     100.4212    221.31966 
   20650    132.58298   -97.986244     140073.9   -39388.151    2661.7035   -42049.855    100.71751    224.64059 
   20700     134.5157   -293.18391     140015.7   -39362.076    2700.5044    -42062.58    100.94869    227.91529 
   20750    130.42168     38.17591    140073.71   -39402.515    2618.3137   -42020.829    101.19928    220.97861 
   20800    129.73482    18.292505    140171.79   -39491.342    2604.5245   -42095.866    101.80141    219.81484 
   20850    131.11854    145.84713    140241.85   -39471.981    2632.3038   -42104.285     101.9904    222.15934 
   20900    131.71911   -90.923325    140305.52   -39483.324    2644.3607   -42127.685    102.30563    223.17691 
   20950     131.3994   -156.05256    140381.89   -39418.615    2637.9422   -42056.557    102.76222    222.63521 
   21000    130.01504   -290.41651    140392.03    -39454.58    2610.1502    -42064.73    103.12057    220.28964 
   21050    132.16271    -343.2251     140369.2   -39452.374    2653.2663    -42105.64    103.30876    223.92852 
   21100    131.02727   -189.22094    140420.14   -39435.426    2630.4715   -42065.898    103.51184    222.00469 
   21150    130.37844   -151.37219    140522.79   -39458.381    2617.4458   -42075.827    103.64357    220.90536 
   21200    133.13393    107.83616    140595.05   -39459.085    2672.7642   -42131.849    103.88227    225.57409 
   21250    130.37306    13.976742    140586.34   -39477.912    2617.3376    -42095.25    104.05961    220.89624 
   21300    130.72416   -72.416541    140532.84   -39460.203    2624.3863    -42084.59    104.22055    221.49112 
   21350    133.18586   -223.48495    140562.54    -39445.19    2673.8067   -42118.996    104.31867    225.66207 
   21400    132.73626   -89.168506    140532.31   -39448.053    2664.7808   -42112.833    104.45327    224.90031 
   21450    132.65446   -265.65681    140539.37   -39431.276    2663.1385   -42094.414    104.46428     224.7617 
   21500    129.32358   -314.76172    140479.02     -39439.8    2596.2685   -42036.069    104.79488    219.11806 
   21550    134.84297   -218.67642    140525.91   -39403.234    2707.0745   -42110.308    104.62185    228.46978 
   21600    134.85406   -229.09414    140540.64   -39413.316    2707.2971   -42120.613    104.83134    228.48858 
   21650    133.79636   -153.12905     140536.7   -39360.297     2686.063    -42046.36    105.14767    226.69647 
   21700    133.73055   -141.82737    140573.05    -39346.21    2684.7419   -42030.952    105.27651    226.58498 
   21750    135.43809   -134.13328     140574.3   -39328.047    2719.0221   -42047.069    105.65516    229.47813 
   21800    133.81236   -134.25634    140637.91   -39315.145    2686.3842   -42001.529    106.02691    226.72358 
   21850    135.13838   -70.171914    140672.63   -39358.503    2713.0051   -42071.508    106.36821    228.97031 
   21900    134.49015   -263.48323    140724.39   -39370.879    2699.9915   -42070.871    106.71846      227.872 
   21950    132.65897   -205.44565    140747.86   -39372.767     2663.229   -42035.996    107.14305    224.76934 
   22000     133.9021   -145.78736    140788.01   -39336.076    2688.1859   -42024.262    107.38492    226.87564 
   22050     131.3453   -155.53184    140752.07   -39366.373    2636.8561   -42003.229    107.95314    222.54354 
   22100    134.68672   -108.29043    140676.62   -39321.663    2703.9376     -42025.6    108.24238    228.20504 
   22150    133.45953    -229.6829    140687.19   -39326.862     2679.301   -42006.163    108.48755    226.12577 
   22200    136.21713   -64.013764    140761.61    -39346.07    2734.6617   -42080.732    108.81254    230.79807 
   22250    133.76371   -509.49967    140657.62   -39322.258    2685.4076   -42007.666     109.0966    226.64116 
   22300    131.40516   -323.03588    140590.48   -39361.221    2638.0579   -41999.278    109.25102    222.64497 
   22350     133.6215   -96.506326    140654.31   -39335.395    2682.5526   -42017.947    109.76182     226.4002 
   22400    133.52132   -164.28754    140732.24   -39335.838    2680.5415    -42016.38    109.84987    226.23047 
   22450    133.40715   -94.902944    140695.78   -39337.301    2678.2493    -42015.55    109.95107    226.03702 
   22500    133.84252    -181.6651    140734.63    -39342.25    2686.9898    -42029.24    109.86057    226.77469 
   22550    133.02892   -212.65952    140756.32   -39335.085    2670.6562   -42005.741    109.89006    225.39617 
   22600    132.74405   -265.72927    140685.47   -39349.496    2664.9371   -42014.433    110.11935     224.9135 
   22650    133.37547    3.4766238     140752.2   -39329.336    2677.6134    -42006.95    110.23302    225.98335 
   22700    132.70449   -198.79016    140743.78   -39342.355     2664.143   -42006.498    110.38956    224.84648 
   22750    135.29711   -166.80136     140684.6   -39334.747    2716.1918   -42050.938    110.47425    229.23926 
   22800    135.82871    28.552668    140709.94     -39290.7     2726.864   -42017.564     110.6685    230.13997 
   22850    132.34237   -215.61706    140750.46   -39345.363    2656.8731   -42002.236    110.93729    224.23292 
   22900    132.94511    -378.8214    140714.51   -39345.242    2668.9735   -42014.216    111.13958    225.25416 
   22950    132.16887   -327.19283    140686.67   -39356.877      2653.39   -42010.267    111.57006    223.93896 
   23000    137.10885   -209.82045    140645.36   -39348.636    2752.5638     -42101.2    111.80143    232.30896 
   23050     131.3671   -129.33277    140632.86   -39348.821    2637.2938   -41986.115    112.27604    222.58048 
   23100    132.72867   -196.01429    140722.83   -39348.143    2664.6283   -42012.772    112.49784    224.88744 
   23150    130.97435   -283.49862    140813.93    -39405.01     2629.409   -42034.419    112.94281    221.91503 
   23200    130.77004   -55.291395    140844.87   -39394.555    2625.3075   -42019.863    112.93719    221.56887 
   23250    132.69274   -276.85053    140843.17   -39370.298    2663.9071   -42034.205    113.20038    224.82657 
   23300    134.61813   -138.02799    140860.41   -39391.966    2702.5606   -42094.527    113.54827    228.08883 
   23350    133.10381   -57.451624    140827.57   -39438.211    2672.1595    -42110.37    113.63516    225.52306 
   23400    131.98237   -5.8052027       140869    -39416.33    2649.6459   -42065.976    114.12609    223.62296 
   23450    134.50719   -217.88105    140936.92   -39437.427    2700.3335   -42137.761    114.58371    227.90086 
   23500    134.65918   -308.03316    140949.68   -39400.856    2703.3847   -42104.241    114.64933    228.15838 
   23550    135.79166   -339.70189    140947.81   -39415.768    2726.1201   -42141.888    114.73121    230.07718 
   23600    131.72458   -287.05438    140880.02    -39463.82    2644.4704    -42108.29    114.84971    223.18617 
   23650    132.51433   -270.27834    140835.74   -39474.274    2660.3253   -42134.599    115.15642    224.52428 
   23700    130.96131   -165.98872    140854.83   -39456.818    2629.1472   -42085.965     115.0473    221.89293 
   23750    130.25742   -156.87077    140835.51   -39423.814    2615.0161   -42038.831    114.97359    220.70031 
   23800    134.28605   -108.08226    140828.27   -39443.424     2695.894   -42139.318    115.21732    227.52618 
   23850    134.08463   -205.77246    140827.58   -39416.932    2691.8503   -42108.782    115.64024    227.18491 
   23900    130.64722   -188.00017    140834.06   -39484.496    2622.8416   -42107.338    116.02266    221.36075 
   23950    132.78533   -259.95494    140858.83    -39483.89    2665.7659   -42149.656    116.19732    224.98345 
   24000    132.04578   -235.90449    140917.07   -39494.558    2650.9188   -42145.477    116.34595     223.7304 
   24050    132.77755   -276.76159    140906.24   -39506.585    2665.6096   -42172.194    116.38078    224.97026 
   24100    132.45174   -364.89027    140871.62   -39520.335    2659.0688   -42179.404    116.82101    224.41823 
   24150    132.38496   -155.52725    140842.36   -39553.158    2657.7282   -42210.886    116.94155    224.30509 
   24200    131.61598   -250.52588    140751.38   -39545.904    2642.2903   -42188.194    117.30104    223.00217 
   24250    133.93657   -128.50972    140802.98   -39473.532    2688.8778    -42162.41    117.43869    226.93404 
   24300    134.41805   -23.411139    140921.64   -39454.192    2698.5439   -42152.736    117.68245    227.74983 
   24350    134.36249   -200.18191    140871.08   -39468.768    2697.4286   -42166.197    117.73135     227.6557 
   24400    134.37341   -153.78258    140890.77   -39456.429    2697.6478   -42154.077    117.70524     227.6742 
   24450    129.99029   -234.46153    140855.52   -39509.466    2609.6533   -42119.119    118.00927    220.24769 
   24500    131.68094   -266.08532    140767.85    -39527.11    2643.5945   -42170.704    118.11856    223.11224 
   24550    131.97376   -5.1701111    140778.01   -39531.742     2649.473   -42181.215    118.18406    223.60837 
   24600    132.12251    94.962045    140844.41   -39521.195    2652.4593   -42173.654    118.47156    223.86041 
   24650    132.24645   -163.69297    140768.59   -39503.767    2654.9474   -42158.714    118.16163     224.0704 
   24700    131.85746   -50.922552    140793.61   -39489.356    2647.1382   -42136.494    118.43015    223.41132 
   24750     133.8956   -67.945271    140862.29   -39472.147    2688.0553   -42160.203    118.67179    226.86462 
   24800     131.4533   -66.114321    140911.46   -39481.898    2639.0243   -42120.923    118.91956    222.72653 
   24850    132.91388   -50.837849    140976.85   -39466.899    2668.3466   -42135.245    118.96584    225.20125 
   24900    132.09776   -126.44456    141049.95   -39492.713    2651.9624   -42144.675    119.21515    223.81848 
   24950    135.74365   -280.15469    140976.04   -39426.919    2725.1564   -42152.075    119.24489    229.99585 
   25000     130.9177   -31.414194     140969.6   -39467.457    2628.2717   -42095.729    119.47504    221.81904 
   25050    133.19787   -396.10419    141008.35   -39453.937    2674.0478   -42127.985    119.76975    225.68242 
   25100    132.75784   -117.83059    140976.08   -39436.319    2665.2139   -42101.533    119.67035    224.93686 
   25150     130.4675   -283.53027    141027.52   -39452.738    2619.2337   -42071.971    119.64594    221.05626 
   25200    128.98666   -330.93559    140903.56    -39474.23    2589.5046   -42063.734    119.67571    218.54721 
   25250    132.30273    -232.9092    140911.47    -39487.02    2656.0773   -42143.098    119.88343    224.16576 
   25300    131.27223    -270.7919    140889.46   -39462.736    2635.3893   -42098.126    120.07695    222.41974 
   25350    129.61452   -183.89485    140864.15   -39460.354    2602.1095   -42062.464    120.14107    219.61102 
   25400    132.26636   -99.991202    140860.49     -39428.9    2655.3471   -42084.247    120.34999    224.10414 
   25450    134.14246   -336.81354    140839.74   -39414.932    2693.0112   -42107.943    120.61656    227.28288 
   25500    132.28404   -316.95101    140836.09   -39445.391    2655.7022   -42101.093    120.81736     224.1341 
   25550     132.4668   -276.58533    140800.81   -39433.779    2659.3712    -42093.15    120.91647    224.44375 
   25600     130.5829   -240.91732    140794.81   -39477.937    2621.5504   -42099.487      121.561    221.25178 
   25650    129.42568   -287.50587    140735.73   -39457.474    2598.3183   -42055.792    121.87812    219.29105 
   25700    132.57826   -147.44224     140731.7   -39406.248    2661.6088   -42067.857    121.91569     224.6326 
   25750    136.66558   -337.99704    140703.21    -39359.92    2743.6648   -42103.585    121.99682    231.55791 
   25800    133.93197   -236.00053    140685.36   -39402.768    2688.7855   -42091.554     122.0617    226.92624 
   25850    131.89463   -113.04723    140604.33   -39438.882    2647.8844   -42086.766    122.17933     223.4743 
   25900     132.2408   -11.816491    140574.24   -39481.382     2654.834   -42136.216    122.09424    224.06083 
   25950    129.69862    22.786661    140596.57   -39480.704    2603.7978   -42084.502    122.40887    219.75351 
   26000    133.55497   -108.09467    140636.19    -39483.36    2681.2169   -42164.576     122.6788    226.28747 
   26050    132.56611   -52.628194    140644.43   -39482.823    2661.3649   -42144.188    122.80724    224.61201 
   26100    133.24749   -234.44679    140660.24   -39519.968     2675.044   -42195.013    123.21782     225.7665 
   26150    133.24454    7.2194011    140685.25   -39493.342    2674.9848   -42168.327    123.46393     225.7615 
   26200    135.89743   -28.565345    140747.55    -39415.58    2728.2436   -42143.824    123.73857     230.2564 
   26250    135.47771   -270.09527    140677.44   -39420.282    2719.8175   -42140.099    124.17756    229.54526 
   26300    134.20344   -7.6753667    140681.64   -39448.932    2694.2354   -42143.167    124.10984     227.3862 
   26350     132.3362    93.574168    140728.79   -39454.296    2656.7493   -42111.046    124.19627    224.22247 
   26400    133.85705   -213.99849    140744.27   -39456.754    2687.2814   -42144.035    124.18192     226.7993 
   26450     133.2593   -32.832695    140812.38    -39474.07    2675.2811   -42149.351    124.34949    225.78651 
   26500    131.15993   -362.58546    140841.05   -39466.799    2633.1347   -42099.933    124.45624    222.22947 
   26550    130.73286   -315.17056    140812.61   -39483.134    2624.5609   -42107.695    124.61683    221.50586 
   26600    133.82582   -160.93301    140813.92   -39455.499    2686.6545   -42142.154    124.67849    226.74639 
   26650    131.61569   -116.83084    140784.79    -39465.12    2642.2845   -42107.405    124.95774    223.00168 
   26700    134.69432   -199.96137    140779.15   -39464.602    2704.0902   -42168.692    125.32154    228.21792 
   26750    131.93874   -276.45843    140722.84   -39452.562    2648.7699   -42101.332    125.74312    223.54903 
   26800    136.23499   -244.51349    140647.45   -39397.543    2735.0203   -42132.563    125.75141    230.82834 
   26850    136.33771    -184.9753    140621.05    -39371.94    2737.0826   -42109.023    125.65742    231.00239 
   26900     137.6615   -209.31681    140660.99   -39412.281    2763.6587    -42175.94    126.17818    233.24534 
   26950    133.80527   -194.28532    140626.17   -39421.352     2686.242   -42107.594    126.33041    226.71158 
   27000    135.26576   -21.065758    140675.34   -39421.733    2715.5623   -42137.296    126.52965    229.18613 
   27050     131.5074    -218.4368    140692.96    -39428.32    2640.1104   -42068.431    126.71329     222.8182 
   27100    132.40349   -240.05787    140702.52   -39455.949    2658.1002    -42114.05    126.80682    224.33648 
   27150    132.74363   -379.33795     140661.1   -39414.618    2664.9287   -42079.547    127.02702    224.91279 
   27200    134.88772   -256.98143    140649.55   -39407.101     2707.973   -42115.074    127.17649    228.54561 
   27250    135.19288   -109.54601    140667.77   -39426.075    2714.0993   -42140.175    127.09476    229.06266 
   27300     135.0177   -67.545338    140729.94   -39442.097    2710.5824    -42152.68    127.01016    228.76584 
   27350    131.93401   -214.65208    140768.04   -39411.761    2648.6749   -42060.436    127.20333    223.54102 
   27400    131.66134   -317.84363    140857.35   -39421.701    2643.2008   -42064.902    127.35333    223.07902 
   27450    131.42783   -320.77236    140821.95   -39397.201     2638.513   -42035.714    127.52909    222.68338 
   27500    132.26196   -233.71126    140732.09    -39396.26    2655.2587   -42051.519    127.42841    224.09667 
   27550    133.08744   -235.25348    140713.69   -39489.206     2671.831   -42161.037        127.8    225.49533 
   27600    132.90137   -326.06587    140690.57   -39489.761    2668.0955   -42157.857     128.1322    225.18006 
   27650    132.68347   -26.247155    140731.47   -39456.827     2663.721   -42120.548     128.5744    224.81087 
   27700    132.42556   -186.02949    140765.91   -39461.393    2658.5431   -42119.936      129.088    224.37386 
   27750    131.33627   -154.55942    140731.92   -39475.818    2636.6748   -42112.493    129.44332    222.52824 
   27800    133.08529   -220.74864    140780.99   -39465.298    2671.7878   -42137.086    129.77625    225.49168 
   27850    132.87781   -297.37892     140756.2   -39481.039    2667.6224   -42148.661    129.96514    225.14013 
   27900     131.0864   -190.75297    140729.56    -39461.19    2631.6586   -42092.849    130.41541    222.10489 
   27950    131.32068    -334.4658    140664.54     -39490.3    2636.3619   -42126.661    130.72991    222.50184 
   28000    130.87404    -41.52204    140698.25   -39479.007    2627.3952   -42106.402    130.74089    221.74507 
   28050    132.73624   -53.200071    140759.33   -39458.091    2664.7803   -42122.871    131.02338    224.90027 
   28100    134.91156   -178.30495    140764.39   -39427.826    2708.4516   -42136.277    131.44088    228.58601 
   28150    131.74706   -227.69445    140685.08   -39476.204    2644.9218   -42121.126    131.34355    223.22426 
   28200    133.68027   -251.57025    140640.32   -39437.092    2683.7325   -42120.824    131.38864    226.49979 
   28250    132.37309   -58.311098    140668.97   -39422.619    2657.4898   -42080.108     131.5654    224.28497 
   28300    134.15801   -177.19809    140633.21    -39356.23    2693.3235   -42049.554    131.86876    227.30924 
   28350    134.33606   -153.06075    140700.47   -39335.748     2696.898   -42032.646    132.06447    227.61091 
   28400    133.26444   -222.67634    140754.62   -39382.989    2675.3844   -42058.373    132.47187    225.79523 
   28450    131.37123   -368.49225    140839.28   -39412.137    2637.3768   -42049.513    132.39732    222.58749 
   28500    132.48616    -279.1515    140805.29   -39412.207    2659.7597   -42071.967    132.58435    224.47655 
   28550    131.31272   -429.48846    140830.33   -39405.631    2636.2021   -42041.833    133.02225    222.48834 
   28600    133.27845   -352.34311    140773.17    -39391.93    2675.6656   -42067.596    133.15828    225.81896 
   28650    132.24355   -279.59173     140771.9   -39400.052    2654.8891   -42054.942    133.32732    224.06548 
   28700    131.48738   -657.17557    140637.85   -39414.558    2639.7085   -42054.267    133.27204    222.78428 
   28750    132.28334   -148.22696    140547.76    -39402.92     2655.688   -42058.608    133.37753    224.13291 
   28800    135.33394   -415.97393    140560.91   -39452.169    2716.9312     -42169.1    133.69776    229.30166 
   28850    132.02079   -27.398655    140552.07   -39390.771    2650.4171   -42041.188    133.89733    223.68805 
   28900    132.77289   -289.03895     140589.5   -39397.362    2665.5161   -42062.878    134.09332    224.96237 
   28950    133.94716   -206.68489    140609.67   -39387.579    2689.0904    -42076.67    134.17479    226.95197 
   29000    132.40622   -201.72984     140631.4   -39333.029    2658.1549   -41991.183    134.29608     224.3411 
   29050    132.40979   -285.18273    140612.94   -39358.687    2658.2267   -42016.913    134.26757    224.34716 
   29100     134.4006   -450.19786    140565.08   -39355.212    2698.1936   -42053.406     134.3198    227.72026 
   29150    133.32094   -207.83731    140582.06   -39429.485    2676.5186   -42106.004    134.63779    225.89095 
   29200    130.97617   -143.45519    140539.25    -39434.73    2629.4457   -42064.175     134.9185    221.91812 
   29250    131.12411   -121.35764    140504.66   -39412.012    2632.4156   -42044.427    135.28215    222.16878 
   29300    131.66026   -64.297649    140562.57   -39432.063    2643.1792   -42075.242     135.7836    223.07719 
   29350     129.6029   -84.563268    140567.92   -39449.614    2601.8761    -42051.49      135.785    219.59132 
   29400    131.96736   -22.531464    140713.44   -39369.018    2649.3444   -42018.363    135.52655    223.59752 
   29450    132.42324   -187.62537    140691.15   -39359.155    2658.4967   -42017.652    135.56616    224.36995 
   29500    131.70771   -60.564361     140685.7   -39354.296    2644.1317   -41998.427    136.06421    223.15759 
   29550    134.99326   -83.962145    140698.75    -39353.45    2710.0917   -42063.541    136.22753    228.72443 
   29600    133.27927   -172.14331    140738.38   -39350.481     2675.682   -42026.163    136.25272    225.82034 
   29650    131.04185   -88.218574    140799.14   -39384.075    2630.7642   -42014.839    136.43901     222.0294 
   29700    134.33468   -159.96788    140859.31   -39373.016    2696.8701   -42069.886    136.46771    227.60856 
   29750    132.55885    -274.5996    140857.59   -39416.118     2661.219   -42077.337    136.59188    224.59971 
   29800    132.07082   -288.87126    140753.89   -39376.303    2651.4215   -42027.725    136.69336    223.77282 
   29850      134.278   -182.58641    140758.64   -39365.977    2695.7322   -42061.709    136.64249    227.51253 
   29900    133.54919   -207.68873    140744.06   -39353.227     2681.101   -42034.328    136.93696    226.27769 
   29950    128.73757    -292.6573    140725.48    -39411.88    2584.5041   -41996.384    137.34985    218.12517 
   30000    131.27337   -292.36685    140788.15   -39404.351    2635.4121   -42039.763    137.44429    222.42167 
   30050    135.71942   -264.57696    140706.95   -39338.593    2724.6699   -42063.263    137.94165    229.95479 
   30100    133.18683   -338.96867    140664.49   -39364.455    2673.8263   -42038.281    137.94191    225.66372 
   30150    132.25527   -69.378036    140715.94   -39344.974    2655.1244   -42000.098    138.28333    224.08534 
   30200    134.56597   -287.66974    140672.74   -39337.696    2701.5135   -42039.209    138.39721    228.00045 
   30250    133.27186    -185.1697    140688.26   -39305.303    2675.5334   -41980.836    138.77166     225.8078 
   30300    134.16043   -420.11313    140706.61   -39305.131     2693.372   -41998.503     138.9824    227.31333 
   30350    130.81232   -292.78301    140668.91   -39329.568    2626.1561   -41955.724    139.10128    221.64049 
   30400    135.26964   -305.39566    140629.11   -39221.251    2715.6403   -41936.891     139.2025    229.19272 
   30450    136.20162     4.168958     140694.1   -39259.283    2734.3504   -41993.633    139.36939     230.7718 
   30500    133.19202   -153.69376    140752.63   -39343.945    2673.9304   -42017.875    139.20208    225.67251 
   30550     131.8663   -347.48688    140802.86   -39386.121    2647.3156   -42033.436    139.56404     223.4263 
   30600    132.46354   -193.61463    140734.48   -39379.478    2659.3056   -42038.783    140.03035    224.43822 
   30650    133.51223   -255.47511    140719.41   -39384.264    2680.3589   -42064.623    140.28501    226.21506 
   30700    134.20772   -344.23937    140725.23   -39355.059    2694.3213    -42049.38    140.57363    227.39345 
   30750    135.07964   -242.26798    140751.48   -39393.094    2711.8258    -42104.92    141.01794    228.87078 
   30800    131.22547    -133.9135    140747.74   -39389.086    2634.4505   -42023.537    141.54586    222.34052 
   30850     133.1139   -146.58606    140772.45   -39390.312    2672.3621   -42062.674    141.82828    225.54015 
   30900    131.51397    -234.6909    140810.14    -39442.31    2640.2423   -42082.552    141.93875    222.82933 
   30950    132.53568   -239.74859    140814.34   -39403.737     2660.754   -42064.491    142.23913    224.56046 
   31000    134.14828   -207.27668    140814.09   -39413.677    2693.1281   -42106.805    142.54103    227.29275 
   31050    131.72672   -70.240152    140866.49   -39421.781    2644.5135   -42066.295    142.77432    223.18981 
   31100    131.80393   -260.56938    140887.77   -39418.182    2646.0635   -42064.246    142.85738    223.32062 
   31150    132.97209   -219.03312    140843.34   -39403.766    2669.5152   -42073.281    142.88684    225.29989 
   31200    135.08994   -105.08433     140842.7   -39410.134    2712.0327   -42122.167    143.06671    228.88824 
   31250    132.37522   -86.556681    140849.89   -39399.288    2657.5325   -42056.821    143.08111    224.28857 
   31300     133.5698   -189.16523    140859.13   -39423.726    2681.5147    -42105.24    143.30957    226.31261 
   31350     129.6688   -399.03592    140810.54   -39421.351    2603.1991    -42024.55    143.67473    219.70298 
   31400    131.02577   -229.99858    140841.25   -39470.595    2630.4414   -42101.037    143.74923    222.00216 
   31450    131.66801   -341.92538    140781.05   -39446.985    2643.3347    -42090.32    143.77962    223.09032 
   31500    131.35656    -174.7741    140754.07   -39424.655    2637.0822   -42061.737    143.87607    222.56263 
   31550    132.62343   -103.24663    140764.09   -39433.804    2662.5156    -42096.32    143.94937    224.70914 
   31600    133.56991   -256.68628       140761   -39441.317     2681.517   -42122.834    144.16622     226.3128 
   31650    132.73438   -315.60708    140703.74   -39451.739    2664.7429   -42116.482    144.29869    224.89711 
   31700    132.56486   -192.29121    140702.82   -39455.041    2661.3398   -42116.381    144.34819     224.6099 
   31750    132.01986    2.3229088    140771.15   -39433.106    2650.3985   -42083.505    144.91416    223.68648 
   31800    135.38557   -134.77109    140873.71   -39428.906    2717.9676   -42146.874    145.00473    229.38914 
   31850    129.80121   -191.32724    140901.17   -39464.312    2605.8574   -42070.169    145.39376    219.92734 
   31900    133.33456   -222.53895    140878.39    -39438.53    2676.7921   -42115.322    145.48298    225.91403 
   31950    131.17175   -336.50125    140802.34   -39512.812    2633.3721   -42146.184    145.81008     222.2495 
   32000    132.48116   -96.826021    140796.51   -39431.586    2659.6593   -42091.245    146.00399    224.46807 
   32050    134.70158   -86.378453    140799.49   -39391.628    2704.2361   -42095.864    146.34709    228.23023 
   32100     130.6127   -203.86221    140761.44   -39444.022    2622.1487   -42066.171    146.51918    221.30228 
   32150    134.50314    -81.58588     140826.3   -39487.277    2700.2523   -42187.529    146.54015    227.89401 
   32200    132.70147   -301.55904    140804.38   -39494.852    2664.0822   -42158.934    146.71547    224.84135 
   32250     134.3318   -406.70078    140753.24   -39464.798    2696.8124    -42161.61     146.9768    227.60369 
   32300    132.78122   -204.67271    140697.27   -39451.776    2665.6834   -42117.459    147.33598    224.97649 
   32350     131.2579    82.691246    140744.92   -39501.341    2635.1016   -42136.442    147.50403    222.39547 
   32400    133.36714   -412.92563    140814.38    -39478.73    2677.4461   -42156.176     147.6591    225.96923 
   32450    133.28668   -299.98422    140809.94   -39486.577    2675.8308   -42162.408    147.69096     225.8329 
   32500    130.38802   -54.115005    140853.14   -39534.021     2617.638   -42151.659    147.50764    220.92159 
   32550    131.21874   -201.78239    140831.71   -39435.064    2634.3154   -42069.379    147.51959    222.32912 
   32600    132.04681   -326.16152    140870.36   -39441.978    2650.9396   -42092.917    147.59027    223.73215 
   32650    131.14289   -263.55123    140885.99   -39452.241    2632.7926   -42085.033    147.81807    222.20059 
   32700    131.71821   -256.73906    140865.25   -39417.095    2644.3426   -42061.438    148.10265    223.17538 
   32750    134.43278   -284.47425    140858.72   -39406.918    2698.8397   -42105.758    148.34495    227.77479 
   32800    132.69769   -35.140826    140952.67   -39388.141    2664.0064   -42052.148    148.25365    224.83495 
   32850    131.17419   -179.45251    140982.43   -39416.673     2633.421   -42050.094    148.46149    222.25363 
   32900    132.60528   -437.27943     140910.8   -39456.533    2662.1512   -42118.684    148.65694    224.67838 
   32950    132.83297   -210.51259    140895.06   -39421.871    2666.7224   -42088.593    149.35603    225.06417 
   33000    130.62158   -204.46054    140950.23   -39425.233     2622.327    -42047.56     149.3865    221.31733 
   33050    131.92492   -192.25704    140970.38   -39420.146    2648.4924   -42068.638    149.65045    223.52561 
   33100    132.65207   -165.30493    141003.44   -39404.172    2663.0906   -42067.262    150.18748    224.75766 
   33150    130.62926   -515.56818    140926.71   -39414.874     2622.481   -42037.355    150.55031    221.33032 
   33200    135.94795   -262.53339    140859.25   -39382.907    2729.2579   -42112.165    150.36625    230.34201 
   33250    136.55802   -349.81013    140828.67   -39345.977    2741.5055   -42087.482    150.19928    231.37567 
   33300     135.4027   -268.47728     140824.9   -39395.591    2718.3115   -42113.902    150.69809    229.41816 
   33350    133.85487   -145.76155    140789.61   -39382.558    2687.2376   -42069.796    150.66887    226.79561 
   33400    134.89594   -93.373582    140845.03   -39363.304    2708.1379   -42071.442    151.09539    228.55953 
   33450    134.92261   -486.77315    140818.37   -39386.519    2708.6734   -42095.192    151.39433    228.60473 
   33500    132.73703   -197.19639    140706.94   -39353.129    2664.7962   -42017.925    151.58805    224.90161 
   33550    133.92742   -80.565667    140632.66   -39366.378    2688.6941   -42055.072    151.69968    226.91853 
   33600    134.24951    -123.2096     140693.9   -39420.533    2695.1604   -42115.693    151.72161    227.46426 
   33650    131.44299   -120.71768     140785.4   -39431.491    2638.8173   -42070.309    151.91693    222.70906 
   33700    131.56497   -508.63675    140768.33   -39411.779    2641.2663   -42053.045    152.27317    222.91575 
   33750    130.95624   -242.01625    140781.57    -39391.13    2629.0455   -42020.176    152.55022    221.88435 
   33800    132.83221   -302.00173    140817.49    -39405.38     2666.707   -42072.087     152.3443    225.06288 
   33850    132.55476   -302.35281    140830.67   -39409.606     2661.137   -42070.743    152.61199    224.59278 
   33900    135.44721   -8.5125399    140833.81   -39358.171    2719.2051   -42077.377    152.58377    229.49357 
   33950    132.80461    -156.0053    140929.57   -39324.178    2666.1529   -41990.331    152.80001    225.01611 
[...]
   92000    132.15405   -188.76268    140644.87   -39420.482    2653.0924   -42073.574    378.16892    223.91384 
   92050    131.50543   -162.18605    140656.39   -39451.713    2640.0709   -42091.784    378.07599    222.81486 
   92100     133.4728   -46.993267    140684.52   -39431.883    2679.5672    -42111.45     378.3375    226.14825 
   92150    133.02272   -393.55844    140709.93    -39410.75    2670.5316   -42081.282    378.15075    225.38567 
   92200    130.85429   -287.29854    140650.41   -39410.816    2626.9988   -42037.815    378.44603    221.71161 
   92250    131.70663   -331.50866    140611.31   -39436.462    2644.1101   -42080.572    378.52321    223.15576 
   92300    131.51226   -206.64083    140626.81   -39407.542     2640.208   -42047.749    378.87302    222.82643 
   92350    130.61348   -90.758313    140673.89    -39431.86    2622.1643   -42054.025    379.15343    221.30359 
   92400    132.12812   -193.68179    140676.61   -39420.468    2652.5718    -42073.04    379.91711    223.86991 
   92450    133.40105   -167.06663    140673.59   -39386.048    2678.1269   -42064.175    380.40517    226.02668 
   92500    132.10974    -265.9307    140767.24   -39396.034    2652.2028   -42048.236     380.7065    223.83876 
   92550    133.49675   -133.37856    140774.95   -39394.485    2680.0482   -42074.533    381.31742    226.18884 
   92600    133.04183   -260.78754    140709.66   -39448.912    2670.9153   -42119.828    381.88761    225.41804 
   92650    131.58912   -51.490484    140715.24   -39479.945    2641.7511   -42121.696    382.18223    222.95666 
   92700    132.64906   -108.28279     140750.6   -39458.673    2663.0301   -42121.703    383.02266    224.75256 
   92750    134.04447   -76.088605    140770.41   -39477.045    2691.0441   -42168.089    383.06256    227.11686 
   92800    136.77622   -35.511168       140790   -39400.214    2745.8859     -42146.1    383.22947    231.74536 
   92850    131.98385   -96.866639    140836.51   -39452.563    2649.6755   -42102.239    383.29936    223.62547 
   92900    133.03304   -210.13511    140850.49   -39413.324    2670.7389   -42084.063    383.60482    225.40316 
   92950    133.30406   -125.91795    140872.12   -39404.077    2676.1798   -42080.257    383.50391    225.86235 
   93000    134.58973   -248.26308    140911.17    -39424.75    2701.9905    -42126.74    383.93774    228.04071 
   93050    131.97446   -253.63308    140880.01   -39421.383    2649.4869    -42070.87    384.32442    223.60955 
   93100    134.41252   -181.99443    140828.14   -39419.106    2698.4328   -42117.538    383.75022    227.74045 
   93150     134.3258   -114.12673     140775.9   -39441.955    2696.6919   -42138.646     383.8812    227.59352 
   93200    134.62631   -167.38327    140795.64   -39443.328    2702.7249   -42146.053    384.01143    228.10269 
   93250    132.35288   -105.65306    140796.64   -39466.639     2657.084   -42123.723    384.05129    224.25072 
   93300    132.84691   -146.94504    140728.35   -39482.344    2667.0022   -42149.346    384.40384    225.08779 
   93350    133.82622     -58.0938    140689.91   -39449.657    2686.6625    -42136.32    384.21693    226.74707 
   93400    132.42665   -167.42139    140656.38   -39451.436     2658.565   -42110.001    384.95084    224.37572 
   93450    130.78058   -140.94202     140601.2   -39487.155    2625.5191   -42112.674    385.08628    221.58673 
   93500    133.26117   -167.52151    140566.13   -39490.014    2675.3186   -42165.332    384.82011    225.78967 
   93550    129.80085   -56.672716    140573.89   -39486.871    2605.8502   -42092.721    385.26905    219.92673 
   93600    132.09275    40.287508    140534.36   -39468.139    2651.8618   -42120.001    385.28092    223.80998 
   93650    133.50042   -98.909078    140633.26   -39431.684    2680.1219   -42111.806    385.23372    226.19506 
   93700    133.37385   -373.80798    140699.74   -39415.969    2677.5807    -42093.55    385.74302    225.98059 
   93750    133.59372   -252.37875    140629.01    -39457.69    2681.9948   -42139.684     385.5252    226.35313 
   93800    133.61993   -140.77191    140671.32   -39368.201    2682.5211   -42050.722     385.6601    226.39754 
   93850    134.42452    -303.8604    140646.15    -39404.92    2698.6739   -42103.594    385.81368    227.76079 
   93900    134.85242   -148.40268    140579.43   -39421.872    2707.2643   -42129.136    386.12763     228.4858 
   93950    133.82299   -120.43679    140632.16   -39450.605    2686.5976   -42137.202    386.13133    226.74159 
   94000    132.01173   -336.02633    140604.07   -39455.558    2650.2351   -42105.793    386.62342     223.6727 
   94050    136.07994   -149.63466     140504.4   -39461.039    2731.9076   -42192.947    386.99645    230.56563 
   94100    133.06669   -188.82663     140447.1   -39389.946    2671.4144   -42061.361    386.96673    225.46017 
   94150    134.68841   -211.55696    140346.31     -39354.5    2703.9717   -42058.472    386.73398    228.20792 
   94200    134.49933   -40.519912    140314.67   -39412.545    2700.1756    -42112.72    386.74875    227.88754 
   94250    132.67715   -13.794812    140343.55   -39412.976     2663.594    -42076.57    386.73308    224.80015 
   94300    131.43225   -220.09549    140312.04   -39384.626    2638.6017   -42023.228    386.99711    222.69086 
   94350    134.66545   -65.874504    140349.23   -39375.541    2703.5107   -42079.052    386.95121    228.16901 
   94400    133.00794   -81.719565    140451.49   -39353.064    2670.2348   -42023.299    387.04957    225.36061 
   94450    134.39092   -180.95207    140555.55   -39345.285    2697.9992   -42043.285    387.59747    227.70386 
   94500     135.3111   -99.438193    140622.94    -39339.81    2716.4726   -42056.283    388.33951    229.26296 
   94550    134.93597   -53.913874    140670.15   -39338.806    2708.9416   -42047.748     388.5934    228.62736 
   94600    133.33372    60.911716    140653.51   -39323.668    2676.7751   -42000.443    389.08593     225.9126 
   94650    135.68142    -158.8267    140715.36   -39375.267     2723.907   -42099.174    389.13198     229.8904 
   94700    133.71015   -194.32519    140792.08   -39417.631    2684.3323   -42101.963    388.82709     226.5504 
   94750    135.94403   -167.20789    140847.75   -39407.235     2729.179   -42136.414    389.19842    230.33535 
   94800    135.95805   -64.054862    140837.58   -39423.305    2729.4606   -42152.765    389.41701    230.35911 
   94850    131.63493   -206.94562    140805.28   -39465.893    2642.6706   -42108.563    389.63603    223.03427 
   94900    131.74339   -271.39395    140786.91   -39472.256    2644.8481   -42117.105    389.70994    223.21804 
   94950    131.96461   -338.47245    140739.08   -39519.098    2649.2893   -42168.387    389.64015    223.59287 
   95000    130.48169   -49.592272    140784.48   -39523.191    2619.5186    -42142.71    390.10927     221.0803 
   95050    132.91427   -190.33199    140784.57   -39478.479    2668.3544   -42146.834    390.81448    225.20191 
   95100    131.59904   -154.40731     140921.4   -39445.008    2641.9502   -42086.958    391.16697    222.97347 
   95150    131.73339   -327.08993    140933.79   -39515.449    2644.6474   -42160.096    391.35184    223.20111 
   95200     134.5428    -107.8696    140978.97   -39477.918    2701.0484   -42178.966    391.48568     227.9612 
   95250    132.29336   -351.15917    141009.23   -39490.833    2655.8892   -42146.723    391.71924    224.14988 
   95300    132.80565   -296.33118    141035.92   -39508.345    2666.1738   -42174.519    391.92043    225.01787 
   95350    133.42183   -412.43245       141008   -39490.045     2678.544   -42168.589    392.08735    226.06189 
   95400    132.70297   -83.234277    140958.25   -39399.608    2664.1123   -42063.721    391.70055    224.84389 
   95450    135.23021    -317.9068    141028.76   -39414.306    2714.8487   -42129.155    392.01715     229.1259 
   95500    133.83203   -288.99597    141015.78   -39386.089    2686.7791   -42072.868    392.45782    226.75691 
   95550     132.2784   -332.52427    140988.81   -39424.031    2655.5888    -42079.62    392.77298    224.12453 
   95600    135.57993   -331.55059    140949.26   -39432.976    2721.8696   -42154.846    393.38281    229.71845 
   95650     132.6044   -408.42787    140985.85   -39436.049    2662.1336   -42098.182    393.55967     224.6769 
   95700    133.94663   -162.31435    141008.89   -39416.472    2689.0798   -42105.552    393.17548    226.95108 
   95750    132.12262   -166.46996    141045.04   -39470.549    2652.4615   -42123.011     393.2644    223.86059 
   95800    133.21597   -365.02415    141084.07   -39434.625    2674.4113   -42109.037    393.14797     225.7131 
   95850     134.8055   -181.96478    141111.18    -39431.54    2706.3223   -42137.862    393.53991     228.4063 
   95900    133.08413   -188.82807    141130.77   -39388.138    2671.7645   -42059.903    394.13832    225.48972 
   95950    135.07872   -432.49429    141126.79    -39429.83    2711.8074   -42141.637    394.70531    228.86923 
   96000    133.10908    -204.6687    141058.97   -39456.419    2672.2653   -42128.684    394.69874    225.53198 
   96050    132.15403   -286.53954     141003.9   -39446.519     2653.092   -42099.611    394.94063    223.91381 
   96100    130.53986   -35.897281    140973.94   -39507.247    2620.6863   -42127.933    395.17628    221.17886 
   96150    129.56989   -281.71292    140930.23   -39504.304    2601.2135   -42105.517    395.36181    219.53541 
   96200    134.05689    -156.7965    140918.47   -39502.159    2691.2934   -42193.452      395.229     227.1379 
   96250    131.68445   -173.82112    140933.52    -39506.42    2643.6649   -42150.085    395.56973    223.11819 
   96300    132.23567   -169.89011    141024.23   -39447.942     2654.731   -42102.673    396.34737    224.05213 
   96350    133.49656   -228.27836    141086.33   -39467.628    2680.0443   -42147.672     397.1884    226.18851 
   96400    134.14283   -103.55474    141069.28   -39425.116    2693.0186   -42118.134    397.51654    227.28351 
   96450    135.09191   -223.04532    141111.11   -39419.935    2712.0721   -42132.007    397.44104    228.89157 
   96500    132.97442   -354.16772    141167.68   -39387.246     2669.562   -42056.808    397.87139    225.30383 
   96550    134.09576   -371.56617    141150.56   -39472.529    2692.0736   -42164.603    397.78775    227.20375 
   96600    132.83154   -61.570974    141222.83   -39398.634    2666.6935   -42065.327       397.96    225.06174 
   96650     133.9339   -334.52635     141215.9   -39376.113    2688.8243   -42064.937    397.81408    226.92952 
   96700    134.48621   -320.78285    141242.95   -39399.369    2699.9122   -42099.281    398.36482    227.86531 
   96750    133.83246   -392.12816    141144.63   -39402.883    2686.7878   -42089.671    397.97836    226.75764 
   96800    133.43957   -309.43476    141124.04   -39363.803    2678.9002   -42042.703    397.88611    226.09195 
   96850    135.06247   -276.71983    141089.45   -39339.203    2711.4811   -42050.684    398.00161    228.84169 
   96900     134.6122   -136.70508    141066.14   -39384.106    2702.4416   -42086.548    398.21492    228.07878 
   96950    134.11583   -400.95452    141028.02   -39372.032    2692.4767   -42064.509    397.78302    227.23777 
   97000    134.87421   -38.663581    140943.56   -39351.673    2707.7018   -42059.375    398.14888    228.52272 
   97050    134.26178   -177.88814    140956.81   -39390.935    2695.4068   -42086.342    398.20948    227.48506 
   97100    131.00975   -15.796487    140975.54   -39387.904    2630.1197   -42018.024    398.24194    221.97501 
   97150      135.849   -168.54201    140997.41   -39373.161    2727.2713   -42100.433    398.44907    230.17434 
   97200    133.38409   -250.74882     140957.5   -39386.799    2677.7864   -42064.586    398.51512    225.99794 
   97250     137.7108   -96.250842    140952.03   -39377.726    2764.6485   -42142.375    398.90977    233.32887 
   97300    132.05834   -363.10848     140933.1   -39380.636     2651.171   -42031.807    399.16085    223.75168 
   97350    134.35891   -422.51572    140851.31   -39411.324    2697.3567   -42108.681    399.02769    227.64963 
   97400    133.56094   -203.05541    140870.47   -39359.507    2681.3367   -42040.844    398.81329    226.29759 
   97450     134.5767   -24.791555    140926.12   -39314.076     2701.729   -42015.805    399.21201    228.01864 
   97500    134.53774   -112.12873    140962.51   -39309.407    2700.9467   -42010.353    399.14302    227.95262 
   97550     133.6891   -242.37517    140882.82   -39367.222    2683.9097   -42051.132    399.13486    226.51474 
   97600    131.77942   -153.18987    140855.54   -39429.485    2645.5714   -42075.056    399.19065    223.27909 
   97650    132.19249   -332.77692    140857.03   -39429.017    2653.8642   -42082.881    399.58664    223.97898 
   97700    132.74254   -189.56248    140716.09   -39401.443    2664.9067    -42066.35     399.7697    224.91094 
   97750    133.32004   -348.26775    140636.17   -39391.358    2676.5006   -42067.859    399.77885    225.88943 
   97800    133.83791   -112.60747    140660.84   -39424.409    2686.8971   -42111.306    399.84919    226.76687 
   97850    133.30311   -223.76184    140669.11   -39385.836    2676.1606   -42061.997    400.05937    225.86074 
   97900    133.61008   -62.224749    140712.05   -39373.972    2682.3233   -42056.295    400.17982    226.38085 
   97950    132.50486   -37.919104    140701.86   -39373.232    2660.1352   -42033.367    400.50314    224.50823 
   98000    131.11343   -229.30414    140752.71   -39418.812    2632.2013   -42051.013    400.83413    222.15069 
   98050    132.89432   -247.17578    140742.42   -39439.097     2667.954   -42107.051    401.52937    225.16812 
   98100     131.0177   -212.84154    140723.71   -39495.353    2630.2794   -42125.632    401.76989    221.98849 
   98150    132.25738   -298.03522    140583.78   -39494.275    2655.1668   -42149.442    401.62515    224.08891 
   98200    130.79572   -73.217616    140589.17   -39522.208    2625.8229   -42148.031    401.21699    221.61237 
   98250    131.11757    -287.1935    140563.47   -39517.595    2632.2844    -42149.88    401.75571     222.1577 
   98300    131.65592     -103.738    140634.33   -39463.769     2643.092   -42106.861     402.0284    223.06984 
   98350    133.85412   -132.12503    140702.36   -39397.643    2687.2226   -42084.865     402.3573    226.79434 
   98400    134.11788   -82.693448    140812.88    -39425.29    2692.5177   -42117.807    402.42071    227.24123 
   98450    133.78499    -35.83817    140870.28   -39432.634    2685.8347   -42118.469    402.36629     226.6772 
   98500    135.77898   -151.41836    141016.26   -39398.624    2725.8657   -42124.489    402.48784    230.05571 
   98550     134.2541   -22.379279    141044.17   -39359.652    2695.2526   -42054.905    402.32443    227.47205 
   98600    135.28495   -45.125394    141081.87   -39353.049    2715.9476   -42068.996     402.5916    229.21865 
   98650    134.92979   -204.80817    141068.93   -39334.732    2708.8175   -42043.549    402.65624    228.61689 
   98700    132.34661   -212.58755    141092.17   -39360.272    2656.9583    -42017.23    402.21753    224.24011 
   98750    133.33938   -534.42305    140999.59   -39354.751    2676.8888    -42031.64     402.7554     225.9222 
   98800    136.08454   -188.76098    140912.08   -39324.256         2732   -42056.256    402.72763    230.57343 
   98850    137.27621   -126.49259    140969.84   -39333.799    2755.9237   -42089.723    402.66087    232.59253 
   98900    133.19904   -186.52619    140977.38   -39303.749    2674.0714    -41977.82     403.3913    225.68441 
   98950    133.72427   -399.79111    141037.88   -39334.131    2684.6159   -42018.747    403.74008    226.57434 
   99000    134.91215   -329.71518    141065.73   -39331.385    2708.4634   -42039.848    403.93902    228.58701 
   99050    133.75562    36.169266     141154.3   -39361.254    2685.2451   -42046.499    404.02831    226.62745 
   99100    135.04757   -445.81644    141216.57   -39367.566    2711.1821   -42078.748    404.26139    228.81645 
   99150     130.8153   -181.05984    141203.58   -39367.359     2626.216   -41993.575    404.86608    221.64554 
   99200    131.99814   -441.18169    141210.07   -39424.358    2649.9625    -42074.32    404.91985    223.64969 
   99250    133.04257   -246.36344    141303.42   -39450.098    2670.9302   -42121.029    405.28172     225.4193 
   99300    133.66621   -308.36761    141340.92   -39444.842    2683.4502   -42128.292    405.63515    226.47596 
   99350    132.63136   -440.24533     141310.1   -39416.833    2662.6749   -42079.508    406.66604    224.72258 
   99400    136.07415   -216.57142    141292.95   -39395.109    2731.7913   -42126.901     406.2861    230.55582 
   99450    131.99144   -356.98562    141282.59   -39432.231    2649.8279   -42082.058    405.91311    223.63832 
   99500    136.38716   -251.75543     141241.6   -39372.545    2738.0753    -42110.62    405.57259    231.08617 
   99550    132.64416   -397.10516    141140.85    -39352.14    2662.9318   -42015.072     405.8986    224.74426 
   99600    133.22889   -286.19274    141054.99    -39370.96    2674.6707   -42045.631    405.60747    225.73499 
   99650    134.74589    -264.0381    140975.23   -39355.634    2705.1256    -42060.76    405.82216    228.30531 
   99700    134.60497   -275.52596    140982.61   -39379.064    2702.2964    -42081.36    406.31543    228.06653 
   99750    132.63087   -346.86847    140932.47    -39373.92    2662.6649   -42036.585     407.0724    224.72174 
   99800    131.47873   -268.13238    140795.44   -39350.406     2639.535   -41989.941    407.13901    222.76963 
   99850    135.54355   -156.57257    140778.69   -39337.666    2721.1391   -42058.805    407.57206     229.6568 
   99900    130.60163   -217.82389    140879.18   -39317.614    2621.9264   -41939.541    407.32992    221.28351 
   99950    134.19764   -356.26242    140886.04   -39410.666     2694.119   -42104.785    407.46382    227.37638 
  100000    134.73552   -169.66482    140935.43   -39392.652    2704.9174    -42097.57    408.22604    228.28773 
Loop time of 220.756 on 60 procs for 100000 steps with 6736 atoms

Performance: 195.691 ns/day, 0.123 hours/ns, 452.989 timesteps/s
99.5% CPU use with 60 MPI tasks x no OpenMP threads

MPI task timing breakdown:
Section |  min time  |  avg time  |  max time  |%varavg| %total
---------------------------------------------------------------
Pair    | 38.472     | 98.112     | 164.16     | 494.9 | 44.44
Neigh   | 1.3567     | 2.7399     | 7.5484     | 131.3 |  1.24
Comm    | 35.495     | 85.993     | 117.91     | 299.5 | 38.95
Output  | 0.21155    | 0.21561    | 0.23106    |   0.5 |  0.10
Modify  | 10.636     | 32.252     | 63.144     | 424.1 | 14.61
Other   |            | 1.444      |            |       |  0.65

Nlocal:    112.267 ave 253 max 74 min
Histogram: 48 0 0 0 0 0 0 0 4 8
Nghost:    1033.58 ave 1329 max 703 min
Histogram: 24 0 0 0 0 0 0 8 16 12
Neighs:    0 ave 0 max 0 min
Histogram: 60 0 0 0 0 0 0 0 0 0
FullNghs:  13489.1 ave 46212 max 4752 min
Histogram: 48 0 0 0 0 0 0 0 2 10

Total # of neighbors = 809344
Ave neighs/atom = 120.152
Neighbor list builds = 6152
Dangerous builds = 0

write_data		${DIR}/data.eq-${NAME}-${TEMP}
write_data		run_7/data.eq-${NAME}-${TEMP}
write_data		run_7/data.eq-het_freeze_7-${TEMP}
write_data		run_7/data.eq-het_freeze_7-225
undump          1

reset_timestep  0

unfix           2
unfix           3
unfix           4


################################################
#######         Run Simulation         #########
################################################

log				${DIR}/log.run_${NAME}
log				run_7/log.run_${NAME}
log				run_7/log.run_het_freeze_7
