
# Create simulation box and atoms

read_data data.graphite_substrate
  orthogonal box = (0 0 -0.0398667) to (49.22 49.0196 60.1019)
  3 by 2 by 5 MPI processor grid
  reading atoms ...
  6736 atoms
  reading velocities ...
  6736 velocities
group water type 1
3976 atoms in group water
group graphite type 2
2760 atoms in group graphite

# Define potential

pair_style sw
pair_coeff * * mWC.sw mW C
Reading potential file mWC.sw with DATE: 2019-02-27


# Fix graphite atoms in place

fix 5 graphite setforce 0.0 0.0 0.0
velocity graphite set 0.0 0.0 0.0


# Equilibration of molecular water

# Add velocity/set timestep

velocity	    water create ${TEMP} ${SEED} rot yes dist gaussian
velocity	    water create 225 ${SEED} rot yes dist gaussian
velocity	    water create 225 13998 rot yes dist gaussian
timestep	    5.0

# Define output

compute			1 water msd
compute			3 water temp
thermo	    	50
thermo_style	custom step temp press vol etotal ke pe c_1[4] c_3

# Neighbor lists

neigh_modify    delay 0 every 1 check yes

# Set fixes

fix             1 water momentum 10 linear 1 1 1 rescale
fix             2 water nve
fix             3 water temp/csvr ${TEMP} ${TEMP} 500.0 ${SEED}
fix             3 water temp/csvr 225 ${TEMP} 500.0 ${SEED}
fix             3 water temp/csvr 225 225 500.0 ${SEED}
fix             3 water temp/csvr 225 225 500.0 13998
fix             4 water press/berendsen iso ${PRES} ${PRES} 1000.0 modulus 20000
fix             4 water press/berendsen iso 1 ${PRES} 1000.0 modulus 20000
fix             4 water press/berendsen iso 1 1 1000.0 modulus 20000

# Run 0.5 ns equilibration

dump		    1 all atom 2000 ${DIR}/eq.${NAME}-${TEMP}.dump
dump		    1 all atom 2000 run_7/eq.${NAME}-${TEMP}.dump
dump		    1 all atom 2000 run_7/eq.het_freeze_7-${TEMP}.dump
dump		    1 all atom 2000 run_7/eq.het_freeze_7-225.dump

reset_timestep  0

run	            100000
Neighbor list info ...
  update every 1 steps, delay 0 steps, check yes
  max neighbors/atom: 2000, page size: 100000
  master list distance cutoff = 7.76
  ghost atom cutoff = 7.76
  binsize = 3.88, bins = 13 13 16
  1 neighbor lists, perpetual/occasional/extra = 1 0 0
  (1) pair sw, perpetual
      attributes: full, newton on
      pair build: full/bin/atomonly
      stencil: full/bin/3d
      bin: standard
Per MPI rank memory allocation (min/avg/max) = 4.121 | 4.235 | 4.565 Mbytes
Step Temp Press Volume TotEng KinEng PotEng c_1[4] c_3 
       0     132.7951   -1147.9579    145106.76   -36018.829     2665.962   -38684.791            0          225 
      50    175.37617   -425.66081    143574.47   -36452.788    3520.8092   -39973.597   0.88483315     297.1468 
     100    166.68139   -418.34189    142585.61   -36800.888    3346.2548   -40147.143     1.988154    282.41488 
     150    166.21654   -498.03347    141839.63   -37129.716    3336.9226   -40466.639    2.8986939    281.62727 
     200    156.19931   -76.481078    141303.19   -37438.748    3135.8193   -40574.567    3.7485099    264.65469 
     250    153.75449   -358.62054    140940.85   -37668.277    3086.7376   -40755.014    4.5680377    260.51232 
     300    151.94025   -410.83097    140429.45   -37881.025    3050.3154    -40931.34    5.2987613    257.43839 
     350    149.54956   -200.08533    140055.87   -38015.059    3002.3204   -41017.379    5.9070832    253.38774 
     400    145.33185    -116.8854    139749.17   -38173.003    2917.6467    -41090.65    6.4951565    246.24151 
     450    146.76722    57.870642    139558.12   -38271.745    2946.4628   -41218.208    6.9949826    248.67351 
     500    144.17355    83.872933    139595.32   -38420.271    2894.3929   -41314.664    7.4975136    244.27895 
     550    142.08611   -89.827888    139485.91   -38473.406     2852.486   -41325.892    8.0315725    240.74212 
     600    142.48315   -70.203881    139300.32   -38560.181    2860.4569   -41420.638    8.4740098    241.41485 
     650     139.3961    -28.48157    139204.74   -38645.059    2798.4819   -41443.541    9.0007796    236.18433 
     700    138.12269     173.0618     139199.4   -38753.851    2772.9174   -41526.769    9.4188966    234.02675 
     750    137.98441   -75.618354    139407.22   -38828.228    2770.1413   -41598.369    9.7738783    233.79246 
     800    136.48684    58.287859    139388.84    -38939.56    2740.0764   -41679.636    10.133487    231.25506 
     850    135.36869   -20.649386    139193.17   -39022.754    2717.6288   -41740.383      10.5275    229.36054 
     900    131.01018    215.31706    139082.19   -39077.524    2630.1283   -41707.652    10.819912    221.97573 
     950    135.10115    292.38243    139135.65   -39044.198    2712.2576   -41756.455    11.136955    228.90723 
    1000    132.80387   -5.5361414    139238.95   -39137.912    2666.1381    -41804.05    11.273223    225.01486 
    1050    133.72344   -38.956192    139122.55    -39155.57    2684.5991   -41840.169    11.566807    226.57292 
    1100    135.01732   -112.87436     138996.5   -39155.943    2710.5747   -41866.518    12.119305     228.7652 
    1150     133.1342    89.359378    139052.12   -39160.559    2672.7697   -41833.329    12.540684    225.57455 
    1200    136.14145    187.09037    139260.19   -39132.958    2733.1425   -41866.101    12.731469    230.66985 
    1250    133.56155    -66.10331     139222.6   -39176.479    2681.3491   -41857.828    13.051113    226.29863 
    1300    132.65394   -169.81018    139178.11   -39182.036    2663.1281   -41845.165    13.401151    224.76083 
    1350    134.21931    45.168264    139192.27   -39202.054     2694.554   -41896.608    13.708723    227.41309 
    1400    135.35758   -12.705882    139169.05   -39189.133    2717.4057   -41906.539    13.940245    229.34171 
    1450    135.65703   -68.811399    139128.33   -39203.722    2723.4174   -41927.139    14.267884    229.84908 
    1500    133.57178    11.336177    139074.08   -39200.856    2681.5545    -41882.41    14.508755    226.31597 
    1550    133.60305   -61.752835    139045.82   -39216.287    2682.1822    -41898.47    14.792214    226.36894 
    1600    135.57383   -194.26658    138863.15   -39218.857    2721.7471   -41940.604    15.203032    229.70811 
    1650    132.95193   -50.465823    138866.38   -39228.134    2669.1105   -41897.245     15.42576    225.26573 
    1700    133.79347    190.34158    139021.01   -39234.351     2686.005   -41920.356    15.766818    226.69158 
    1750    133.88215    45.117468     139148.2   -39241.967    2687.7852   -41929.752    16.092781    226.84182 
    1800    134.15744    53.069355    139211.56    -39214.06     2693.312   -41907.372    16.393357    227.30827 
    1850    136.49346   -43.939047    139187.08   -39224.864    2740.2095   -41965.073    16.663727    231.26629 
    1900    135.84758    82.401804    139042.26   -39232.074    2727.2428   -41959.317    17.016395    230.17194 
    1950    132.39135    -128.9815    139268.93   -39297.117    2657.8564   -41954.974    17.346247    224.31591 
    2000     132.5427   -28.233399    139171.45   -39304.899    2660.8948   -41965.794    17.819902    224.57234 
    2050     133.9204    40.463483    139257.65   -39276.019    2688.5533   -41964.572    18.035362    226.90665 
    2100    130.59408    49.333119    139341.81    -39287.04    2621.7748   -41908.815    18.225189    221.27072 
    2150    131.78528    115.11804    139372.58    -39325.94    2645.6891   -41971.629     18.42858    223.28903 
    2200    129.18198   -97.681647    139276.12   -39366.047    2593.4258   -41959.473    18.600956    218.87814 
    2250    130.28793    117.43687    139263.43   -39372.472    2615.6286   -41988.101    18.776039      220.752 
    2300    131.95287    214.96057    139469.88   -39338.884    2649.0535   -41987.938    18.797897    223.57297 
    2350    132.45144    23.776873    139712.53   -39287.164    2659.0628   -41946.226    18.920596    224.41773 
    2400    136.69255   -99.554096    139523.97   -39285.236    2744.2062   -42029.443    19.184373     231.6036 
    2450    133.95672   -48.331444    139461.91   -39303.444    2689.2824   -41992.726    19.447866    226.96818 
    2500    130.98665     38.07014    139538.62   -39334.284     2629.656    -41963.94     19.57358    221.93587 
    2550    130.61478    8.9798415    139474.38   -39341.051    2622.1904   -41963.242    19.743003     221.3058 
    2600    131.80832    32.209436     139368.9   -39342.947    2646.1516   -41989.098    19.925516    223.32806 
    2650    133.64625    58.930485    139463.38   -39349.583    2683.0495   -42032.632    20.106639    226.44214 
    2700    133.35337   -178.29129    139415.33   -39338.858    2677.1696   -42016.027    20.319191    225.94589 
    2750    134.78578   -65.740013    139336.33   -39317.715    2705.9264   -42023.641    20.657655    228.37289 
    2800    134.23409   -106.60203    139370.99   -39351.293    2694.8508   -42046.144    20.968171    227.43813 
    2850    135.59866   -46.567043    139212.85   -39341.309    2722.2455   -42063.554    21.213839    229.75018 
    2900    132.76255    157.79489    139397.07   -39311.174    2665.3085   -41976.483    21.416509    224.94484 
    2950    135.72925     28.26802    139385.73   -39260.539    2724.8673   -41985.406    21.590923    229.97145 
    3000    134.83582    62.540554    139390.96   -39278.778     2706.931   -41985.709    21.880232    228.45767 
    3050    132.71317    14.867867    139556.57   -39342.085    2664.3171   -42006.402    22.153835    224.86118 
    3100    132.07649   -89.665918    139661.06   -39310.032    2651.5354   -41961.567    22.433459    223.78243 
    3150    133.81622    28.640525    139499.81   -39265.822    2686.4617   -41952.284      22.8495    226.73012 
    3200    134.93858    54.399757    139606.68   -39253.895     2708.994   -41962.889    23.244548    228.63179 
    3250    136.30443   -84.513651    139530.07   -39240.821    2736.4145   -41977.236    23.538221      230.946 
    3300    138.22914   -128.34209    139521.77     -39240.5    2775.0545   -42015.554    23.892579    234.20711 
    3350     136.4881   -205.41346    139429.31   -39240.923    2740.1017   -41981.025    24.277059    231.25719 
    3400    137.31351    42.889081    139375.31   -39220.626    2756.6724   -41977.299    24.644689    232.65572 
    3450    137.57361    175.39749    139483.94   -39200.789    2761.8942   -41962.684    24.916395    233.09642 
    3500    136.75581     173.4475    139669.12   -39214.803    2745.4762   -41960.279    25.120443    231.71078 
    3550    137.27428    139.47295    139738.48   -39219.037    2755.8848   -41974.921    25.332351    232.58925 
    3600    136.39225   -4.3689212    139749.36   -39272.096    2738.1775   -42010.273    25.567433     231.0948 
    3650    136.59758   -2.2571684    139807.55   -39345.459    2742.2996   -42087.759    25.637668    231.44269 
    3700    132.37097   -94.522834    139669.59   -39334.921    2657.4473   -41992.369    25.879981    224.28138 
    3750    131.28227    15.184127    139522.34   -39383.301    2635.5909   -42018.892    26.177646    222.43676 
    3800    134.56937    9.0999449    139577.54   -39370.439    2701.5818   -42072.021    26.371197    228.00622 
    3850    132.61449     179.7813    139576.74    -39359.36    2662.3362   -42021.696    26.667638    224.69399 
    3900     133.6067   -114.91824    139641.49   -39369.477    2682.2554   -42051.733    26.810158    226.37512 
    3950    134.52112    111.03834    139727.02   -39331.796    2700.6131   -42032.409    26.996584    227.92446 
    4000    137.39095    -82.36989    139673.21   -39304.098    2758.2272   -42062.326    27.120352    232.78693 
    4050    133.98836   0.89787657    139567.86   -39342.502    2689.9175   -42032.419     27.47736    227.02178 
    4100    134.35894     30.88712    139811.97   -39360.013    2697.3573    -42057.37     27.77932    227.64968 
    4150    133.48094    69.394167    139886.86   -39373.101    2679.7307   -42052.832    28.019206    226.16204 
    4200    133.01966   -67.103979    139861.25   -39372.483    2670.4701   -42042.953    28.360654    225.38047 
    4250    133.59241    69.007599    139819.31   -39325.596    2681.9686   -42007.564    28.439502    226.35091 
    4300    132.46736  -0.46411299    139877.68    -39387.42    2659.3824   -42046.802     28.69816     224.4447 
    4350    133.87284    9.4493446    139717.82   -39420.749    2687.5984   -42108.347    29.091381    226.82605 
    4400    131.47943    51.860891    139774.95   -39436.663    2639.5489   -42076.212    29.316627    222.77081 
    4450     133.0452    70.064546    139873.74   -39377.278    2670.9829   -42048.261    29.495464    225.42375 
    4500      134.951   -119.88039    139892.25   -39393.808    2709.2433   -42103.051     29.67971    228.65282 
    4550    131.60235    -33.06908    139992.51   -39409.282    2642.0167   -42051.299    29.958978    222.97908 
    4600    132.91478   -39.907579    139887.98   -39446.247    2668.3647   -42114.612    30.174177    225.20278 
    4650    132.27419   -41.168343    139750.92   -39467.382    2655.5043   -42122.886    30.230266     224.1174 
    4700    130.82633    199.66462    139700.42   -39482.388    2626.4374   -42108.826    30.354915    221.66423 
    4750     129.8974    26.391294     139723.6   -39509.571    2607.7885   -42117.359    30.431639    220.09031 
    4800    128.97317    169.37076    139666.49   -39532.029    2589.2339   -42121.263    30.595375    218.52435 
    4850    128.95381    118.31097    139745.05   -39522.687    2588.8453   -42111.532    30.727495    218.49156 
    4900    131.92275    72.178678    139838.18    -39421.16    2648.4489   -42069.609    30.873811    223.52194 
    4950    132.37812    63.871717    139847.86   -39374.137    2657.5907   -42031.728    31.176993    224.29349 
    5000    129.40834    -85.40587    139695.98   -39393.287    2597.9701   -41991.257    31.373752    219.26167 
    5050    131.16558   -182.69292    139601.16   -39404.134    2633.2482   -42037.382    31.548519    222.23904 
    5100    129.42306    94.468111    139738.32   -39413.667    2598.2657   -42011.932    31.850798    219.28662 
    5150    133.40893    121.87736    139855.53   -39374.492    2678.2851   -42052.777    32.096225    226.04004 
    5200    133.34489   -48.092329    139862.32   -39375.348    2676.9993   -42052.348    32.219428    225.93152 
    5250    131.76662   -160.18786    139765.48    -39418.34    2645.3146   -42063.654    32.385736    223.25741 
    5300    135.02034    138.47022    139847.49   -39387.359    2710.6353   -42097.994    32.610578    228.77031 
    5350    131.98453   -213.58322    139810.96   -39415.461    2649.6892    -42065.15     33.07719    223.62662 
    5400     133.7496   -124.64016    139696.82   -39364.653    2685.1243   -42049.777    33.463957    226.61724 
    5450    133.96404    85.598001    139691.29   -39359.215    2689.4293   -42048.644    33.808671    226.98057 
    5500    134.77259   -16.968156    139792.29   -39370.705    2705.6616   -42076.366    34.101732    228.35054 
    5550    131.60983   -62.338127    139693.88   -39429.234    2642.1667   -42071.401    34.348789    222.99175 
    5600    128.09117    23.476231    139617.89   -39467.203    2571.5271    -42038.73    34.539899    217.02995 
    5650    130.67559   -41.105838    139597.58   -39482.168    2623.4112   -42105.579    34.754249    221.40883 
    5700    132.62113     1.843207    139530.57   -39480.055    2662.4694   -42142.524    35.078694    224.70523 
    5750    131.37546   -23.565938     139704.5   -39438.264    2637.4615   -42075.726    35.374888    222.59464 
    5800     131.8075    21.302815    139627.07   -39433.625    2646.1351    -42079.76    35.687584    223.32667 
    5850    133.62369    17.120521    139637.36   -39393.774    2682.5965    -42076.37    35.888739    226.40391 
    5900     131.5933   -59.783992    139686.13   -39374.892     2641.835   -42016.727    36.252191    222.96375 
    5950    129.87182   -23.338853    139682.06   -39325.865     2607.275    -41933.14    36.628191    220.04698 
    6000    132.71588   -122.35967    139627.84   -39328.595    2664.3715   -41992.967    36.771282    224.86577 
    6050    137.13708    11.097798    139671.11   -39299.142    2753.1304   -42052.272    37.134334    232.35678 
    6100    135.40426    -54.31844    139796.01   -39313.866    2718.3428   -42032.209    37.406592     229.4208 
    6150    133.37744    179.87474    139954.29   -39313.879    2677.6529   -41991.532     37.60116    225.98668 
    6200    133.92568    -15.28562    140085.84   -39316.875    2688.6591   -42005.534    37.879791    226.91558 
    6250    132.72994    51.526142    140006.77   -39353.389    2664.6539   -42018.043    38.127971     224.8896 
    6300      132.078    -121.9803    139967.19   -39326.654    2651.5656    -41978.22      38.4546    223.78498 
    6350    131.29817    182.75138    139942.76   -39340.756      2635.91   -41976.666     38.69773    222.46369 
    6400    131.20507    11.400079    139853.99   -39395.484    2634.0409   -42029.525    38.906464    222.30594 
    6450    132.01205   -96.608139     139699.8   -39357.864    2650.2417   -42008.105    39.156078    223.67325 
    6500    130.49806    2.7472413    139807.07   -39379.682    2619.8472   -41999.529     39.33757    221.10804 
    6550     131.6234   -4.6038912    139824.57   -39361.544    2642.4392   -42003.983    39.677042    223.01474 
    6600    133.23088    15.571684    139708.93   -39328.237    2674.7106   -42002.947    40.018446    225.73836 
    6650    136.52696    151.37913    139811.16   -39264.734    2740.8819   -42005.616    40.253343    231.32304 
    6700    135.52633   -114.62048    139816.85    -39250.97    2720.7935   -41971.763    40.422769    229.62763 
    6750    134.07308   -18.788179    139749.35   -39302.466    2691.6184   -41994.085    40.748689    227.16533 
    6800    135.49292   -58.783286    139736.81   -39289.885    2720.1227   -42010.008    41.028797    229.57102 
    6850    133.68492    16.415498    139709.56   -39282.279    2683.8258   -41966.105    41.355785    226.50766 
    6900    133.50705   -100.31828     139719.6   -39322.336    2680.2549   -42002.591    41.572137    226.20628 
    6950     133.7913    32.173034    139906.83   -39329.458    2685.9615    -42015.42    41.997972    226.68791 
    7000    132.56651    62.979584    139867.34    -39320.05     2661.373   -41981.423    42.259458     224.6127 
    7050    134.56814    36.325996    139962.39   -39318.656    2701.5571   -42020.213    42.300042    228.00413 
    7100     132.7019   -168.08709    139724.97   -39384.604    2664.0909   -42048.694    42.709509    224.84208 
    7150     131.7974   -55.197074    139568.51   -39389.457    2645.9324   -42035.389    42.669696    223.30956 
    7200    134.40553    64.894423    139731.26     -39389.7    2698.2926   -42087.992    42.938672    227.72861 
    7250    137.06924   -124.09203    139862.98   -39347.473    2751.7685   -42099.241    43.270812    232.24184 
    7300    133.74928    3.0335107    139961.29   -39386.538    2685.1179   -42071.656    43.496464    226.61671 
    7350    132.82215   -30.216594    139861.81   -39364.238     2666.505   -42030.743    43.765931    225.04583 
    7400     133.7847   -58.025216    139844.26   -39395.019     2685.829   -42080.848    43.974787    226.67672 
    7450    132.73163   -146.05113    139748.31   -39401.887    2664.6877   -42066.575    44.222914    224.89245 
    7500     133.6884    14.191016    139812.87   -39395.561    2683.8956   -42079.456    44.364824    226.51355 
    7550    132.74719    16.681715    139946.09   -39360.715    2665.0001   -42025.716    44.693109    224.91882 
    7600    131.92125    36.587655    139851.59   -39362.687    2648.4188   -42011.106    45.040625     223.5194 
    7650    133.64707    -140.7114    139695.19   -39396.767    2683.0658   -42079.833    45.071901    226.44352 
    7700    134.78653    216.57192    139628.46   -39393.098    2705.9415   -42099.039    45.371579    228.37416 
    7750    131.03235    97.476829    139812.04   -39368.494    2630.5734   -41999.067     45.72812    222.01329 
    7800    134.77246   -88.881998    139937.52    -39370.05     2705.659   -42075.709    45.929726    228.35032 
    7850    132.25887    4.2570796    139966.29    -39382.24    2655.1969   -42037.437    46.329081    224.09145 
    7900    132.71122    71.543661    139877.46   -39376.565    2664.2779   -42040.843    46.770874    224.85787 
    7950    131.95282   -254.63568    139732.92   -39436.647    2649.0526   -42085.699    47.039257    223.57289 
    8000    134.64626   -31.667136    139649.28   -39406.347    2703.1255   -42109.473    47.428394     228.1365 
    8050    133.11076   -79.267475    139539.61    -39371.51    2672.2992   -42043.809    47.831644    225.53484 
    8100    132.08668   -38.147315    139525.67   -39334.385    2651.7399   -41986.125    48.141253    223.79969 
    8150    132.35098   -37.207974    139548.27   -39353.801     2657.046   -42010.847    48.435805    224.24752 
    8200    130.32292    158.54276    139631.88   -39408.988    2616.3311   -42025.319    48.587729    220.81129 
    8250    133.51375    47.443515    139612.97   -39394.761    2680.3894    -42075.15     48.81605    226.21763 
    8300    132.90051    40.370389    139546.78    -39438.66    2668.0782   -42106.739    49.012922     225.1786 
    8350    134.01937    45.488624    139529.36   -39390.927    2690.5402   -42081.467     49.30463    227.07433 
    8400    133.84771     29.79961    139551.62   -39397.529     2687.094   -42084.623    49.564586    226.78348 
    8450    134.32354    103.21555    139675.19   -39325.957    2696.6466   -42022.604    49.728797     227.5897 
    8500    133.67052    -168.3233     139703.4   -39312.016    2683.5368   -41995.553    50.069941    226.48326 
    8550    129.58114    119.85078    139615.66   -39375.329    2601.4394   -41976.768     50.25671    219.55447 
    8600    132.27455   -69.509813    139533.86   -39418.382    2655.5116   -42073.894    50.306064    224.11801 
    8650    130.74906   -13.415818    139514.92   -39458.294    2624.8862    -42083.18    50.649138    221.53331 
    8700    133.88288     91.46043    139523.61   -39467.546    2687.7999   -42155.346    50.859911    226.84306 
    8750    131.60822    20.906004    139654.19   -39393.344    2642.1344   -42035.478    51.022983    222.98902 
    8800    132.00177   -21.523628    139655.12   -39371.634    2650.0352   -42021.669    51.125407    223.65582 
    8850    133.67704    116.02263    139653.69     -39341.1    2683.6675   -42024.768    51.344464     226.4943 
    8900    132.14885   -156.75376    139778.29   -39371.101     2652.988   -42024.089    51.414247    223.90503 
    8950      134.047    196.70824    139786.85   -39342.324    2691.0947   -42033.419    51.638079    227.12114 
    9000    131.55689   -62.866025    139794.68   -39395.733     2641.104   -42036.837    52.034137    222.90205 
    9050    130.66621   -167.86717    139682.23   -39417.467    2623.2228   -42040.689    52.186805    221.39293 
    9100    130.95352    24.213399    139678.47    -39397.88     2628.991   -42026.871    52.199144    221.87974 
    9150    133.65958    169.80299    139651.71   -39374.602     2683.317   -42057.919     52.31532    226.46472 
    9200    133.18612   -34.176105    139808.08   -39358.319    2673.8121   -42032.131    52.544868    225.66253 
    9250    134.80569   -38.457692    139773.89    -39412.94    2706.3262   -42119.266    52.574946    228.40663 
    9300    133.49913   -4.3008266    139703.04   -39439.003     2680.096   -42119.099    52.809085    226.19287 
    9350    133.10972   -36.311102     139735.9   -39434.433    2672.2781   -42106.711    53.126642    225.53307 
    9400    133.18319    16.167201    139778.65   -39394.639    2673.7533   -42068.393    53.303999    225.65756 
    9450    135.92819   -24.712894    139763.75   -39385.253    2728.8612   -42114.114    53.363125    230.30852 
    9500    133.53307   -22.136712    139861.24   -39400.064    2680.7774   -42080.842    53.468601    226.25038 
    9550     133.1278    93.138491    139743.03   -39403.245    2672.6411   -42075.886    53.812899     225.5637 
    9600    129.96571   -49.201844    139695.39   -39424.282    2609.1599   -42033.442    54.101718    220.20605 
    9650    132.34638   0.83250893    139664.51   -39413.551    2656.9536   -42070.505    54.309461    224.23972 
    9700    132.82263   -55.664106    139598.15   -39433.436    2666.5146   -42099.951    54.783079    225.04664 
    9750    132.61986   -56.707566    139531.91   -39397.363    2662.4439   -42059.807    55.136584    224.70308 
    9800     129.4578   -105.75123    139418.83   -39383.233    2598.9632   -41982.197    55.345208    219.34548 
    9850    130.48189    157.54077     139380.5   -39423.951    2619.5225   -42043.473    55.567394    221.08063 
    9900    131.17026   -30.883757    139335.14   -39457.816     2633.342   -42091.158      55.7135    222.24696 
    9950    131.69272    118.48827     139385.1   -39427.186    2643.8308   -42071.017     56.26517    223.13219 
   10000    134.47956   -95.511092    139448.49   -39424.435    2699.7788   -42124.214    56.451721    227.85405 
   10050    132.13907    76.921903    139461.56    -39444.59    2652.7917   -42097.381    56.591094    223.88847 
   10100    131.86682    148.98119     139486.7   -39392.684    2647.3261    -42040.01    56.780999    223.42718 
   10150    130.95567   -99.093137     139545.2   -39419.603     2629.034   -42048.637    56.724663    221.88338 
   10200    134.06429   -30.019616    139461.95   -39437.135    2691.4419   -42128.577    56.726422    227.15043 
   10250    131.28012    59.187944    139432.63   -39380.433    2635.5476   -42015.981     56.91501    222.43311 
   10300    132.10918    29.042795    139530.64   -39329.957    2652.1917   -41982.149    57.193637    223.83782 
   10350    134.88941   -117.46274    139563.22   -39374.835    2708.0068   -42082.842    57.469178    228.54847 
   10400    133.38441   -111.24441    139397.98   -39453.706    2677.7928   -42131.499    57.639383    225.99848 
   10450    132.17822    1.5150209    139436.85   -39434.369    2653.5776   -42087.947    57.873785    223.95479 
   10500    133.13303   -75.184043    139306.53   -39422.093    2672.7461   -42094.839    58.079085    225.57256 
   10550    130.55965    120.54771    139290.69   -39434.795    2621.0835   -42055.879    58.266952    221.21238 
   10600    132.94385   -115.87767     139418.4   -39427.198    2668.9482   -42096.146    58.553435    225.25203 
   10650    134.40417   -153.06395    139401.31   -39403.523    2698.2654   -42101.788    58.951098    227.72632 
   10700    130.33668   -1.2513715    139190.64   -39411.222    2616.6073   -42027.829    59.105118     220.8346 
   10750    131.64262   -1.5781865    139263.09    -39403.54    2642.8251   -42046.365    59.401342    223.04731 
   10800    134.92149    40.271076    139343.71   -39407.363    2708.6508   -42116.014     59.71528    228.60282 
   10850     134.2459    189.72887    139341.28   -39394.876    2695.0879   -42089.964    59.986307    227.45815 
   10900    129.32412   -156.49524    139410.71   -39462.297    2596.2794   -42058.577    60.325944    219.11898 
   10950    132.40677    72.876299    139390.58    -39380.19     2658.166   -42038.356    60.474643    224.34204 
   11000    133.24665    74.261411    139394.27   -39376.398    2675.0271   -42051.425    60.505209    225.76507 
   11050    131.55962    73.934548    139453.39   -39387.551    2641.1588    -42028.71    60.670439    222.90668 
   11100    135.34968    58.087836     139516.4     -39358.8    2717.2471   -42076.047    60.717334    229.32832 
   11150    134.07967   -74.287057    139584.06   -39417.725    2691.7508   -42109.476    60.850339     227.1765 
   11200    132.85615   -43.980847    139449.43   -39436.772    2667.1876    -42103.96    61.048779    225.10344 
   11250    133.05188    -49.15136    139546.68   -39426.886     2671.117   -42098.003    61.207898    225.43507 
   11300    133.44926    23.371178    139515.98   -39455.663    2679.0948   -42134.758     61.32153    226.10838 
   11350    132.20028    153.72817    139574.35   -39428.715    2654.0206   -42082.736    61.571919    223.99218 
   11400    130.91579    16.872913    139568.09   -39417.054    2628.2334   -42045.288    61.755885    221.81581 
   11450    130.87244    86.677713    139585.84   -39481.433    2627.3632   -42108.797    61.885412    221.74236 
   11500    130.65716   -120.63396    139531.79   -39484.622    2623.0412   -42107.664    62.057357     221.3776 
   11550    129.48757   -39.918691    139510.41   -39470.113    2599.5609   -42069.674      62.1128    219.39593 
   11600    129.95464  -0.64631759    139446.08    -39442.16    2608.9376   -42051.097    62.175878     220.1873 
   11650    134.96795   -58.748455    139408.89   -39420.353    2709.5835   -42129.937    62.228799    228.68154 
   11700     133.5282   -14.664395    139554.74   -39374.101    2680.6795   -42054.781    62.102559    226.24212 
   11750    135.11497   -115.07544    139653.26   -39400.658    2712.5352   -42113.193    62.028321    228.93065 
   11800    132.97733   -288.04302    139517.26    -39395.84    2669.6203    -42065.46    62.244524    225.30875 
   11850    135.75113    79.335161    139602.21   -39345.837    2725.3065   -42071.143    62.432617    230.00851 
   11900    134.28527    47.132121    139730.34   -39289.741    2695.8782   -41985.619    62.588089    227.52485 
   11950    133.46875   -91.966438    139816.68   -39334.749    2679.4859   -42014.235    62.996223    226.14138 
   12000    133.76486   -25.202315    139712.91   -39372.267    2685.4306   -42057.698    63.395022     226.6431 
   12050    132.64607   -91.552258    139542.54   -39403.222    2662.9701   -42066.192    63.829747    224.74749 
   12100    134.48681   -73.275126    139458.94    -39402.62    2699.9244   -42102.544      64.1665    227.86634 
   12150    132.99346    71.813391    139520.55   -39394.603    2669.9442   -42064.547    64.318274    225.33609 
   12200    134.70131     -38.2417    139575.74   -39435.917    2704.2306   -42140.147    64.524747    228.22977 
   12250    131.02664    44.336129    139532.43    -39480.56    2630.4588   -42111.018    64.694335    222.00362 
   12300     135.0365     141.9599    139627.34   -39449.652    2710.9597   -42160.611    64.775566    228.79769 
   12350    131.54962    -27.32933    139758.13   -39529.826     2640.958   -42170.784    64.956831    222.88973 
   12400    131.59261    57.993989    139836.36   -39501.328     2641.821   -42143.149    65.059876    222.96257 
   12450     131.0715   -82.720085    139828.94   -39512.504    2631.3594   -42143.863     65.24515    222.07964 
   12500    129.90481    59.770538    139787.86   -39519.083    2607.9373    -42127.02    65.548764    220.10287 
   12550    132.96003   -70.270533    139717.24   -39470.679    2669.2731   -42139.952    65.839088    225.27945 
   12600    132.64813    7.8046441    139786.59   -39441.878    2663.0114   -42104.889    65.996325    224.75098 
   12650    134.85206   -59.509545    139771.69   -39439.567    2707.2571   -42146.824    66.429685    228.48519 
   12700    134.31034   -24.097959    139799.34   -39432.982    2696.3816   -42129.364     66.81205    227.56733 
   12750    132.92159    126.63628    139870.57   -39391.287    2668.5014   -42059.788    67.228714    225.21432 
   12800    132.77709    90.461386    139786.52   -39448.559    2665.6003    -42114.16    67.432693    224.96948 
   12850    132.66531   -49.169384    139801.99   -39393.117    2663.3564   -42056.473     67.75215     224.7801 
   12900     132.2504   -5.9779647    139879.06   -39399.737    2655.0267   -42054.764    68.228721    224.07709 
   12950    135.94022    12.012677    139831.91   -39366.749    2729.1026   -42095.851    68.431169     230.3289 
   13000    134.27141   -192.09375    139775.64   -39431.434       2695.6   -42127.034    68.653249    227.50137 
   13050    135.60293    13.033894    139728.18   -39386.077    2722.3312   -42108.408    69.210579    229.75741 
   13100    131.15783    68.520109    139779.02   -39400.236    2633.0925   -42033.328    69.246775     222.2259 
   13150    133.68748   -42.081558    139804.11   -39380.681    2683.8772   -42064.558    69.418602      226.512 
   13200    135.94394   -77.902077    139835.85   -39377.196    2729.1773   -42106.373    69.688112     230.3352 
   13250    135.11221   -76.007902    139804.47   -39367.116    2712.4797   -42079.596    70.133988    228.92597 
   13300    134.29921    99.863246    139679.03   -39398.852    2696.1581    -42095.01    70.374058    227.54847 
   13350    134.98129   -73.766287    139560.44   -39405.329    2709.8514    -42115.18    70.741093    228.70415 
   13400    132.05959    46.103939    139546.91   -39418.804    2651.1961       -42070    70.870426     223.7538 
   13450    134.70478   -67.355309    139576.51   -39474.835    2704.3003   -42179.135    71.011751    228.23565 
   13500     133.3901    25.573779     139491.9   -39440.403     2677.907    -42118.31     71.19647    226.00812 
   13550     132.9238    130.05139    139537.85   -39442.806    2668.5457   -42111.352    71.658045    225.21806 
   13600    130.74941    114.08392    139593.95   -39420.224    2624.8932   -42045.117    72.026127     221.5339 
   13650    132.48862   -32.987129       139525   -39487.387    2659.8091   -42147.196     72.37468    224.48071 
   13700     133.1462   -171.27701     139420.8   -39463.718    2673.0106   -42136.729    72.679811    225.59488 
   13750    132.08976   -62.639699    139459.22   -39436.312    2651.8018   -42088.114    73.018117    223.80491 
   13800    132.49013   -29.666211    139442.25   -39448.737    2659.8395   -42108.577    73.124611    224.48328 
   13850    131.17975   -54.753356    139375.09   -39487.736    2633.5326   -42121.269    73.302918    222.26305 
   13900    131.90261    92.289889    139459.92   -39454.538    2648.0446   -42102.582    73.464517    223.48782 
   13950    131.79912   -128.88319    139430.52   -39456.404     2645.967   -42102.371    73.467777    223.31247 
   14000    134.37621    11.235266    139566.66   -39420.146    2697.7039    -42117.85    73.583833    227.67893 
   14050    135.07807    60.324085    139581.18   -39407.638    2711.7944   -42119.433    73.883522    228.86813 
   14100    133.58629   -4.1266397    139678.18   -39435.214    2681.8457   -42117.059    74.156539    226.34054 
   14150    130.61613   -34.304873    139611.05   -39428.138    2622.2175   -42050.355    74.151431    221.30809 
   14200    131.53695    132.36859    139709.46     -39447.9    2640.7037   -42088.603    74.388507    222.86827 
   14250    132.63129   -74.254284    139705.07   -39380.335    2662.6735   -42043.008    74.580609    224.72246 
   14300    135.04565    88.405964    139883.32   -39343.572    2711.1434   -42054.715    74.745054    228.81319 
   14350    133.61204   -32.906871    139860.32   -39404.224    2682.3627   -42086.586    74.756517    226.38418 
   14400    134.43671   -216.24766    139710.21   -39373.573    2698.9185   -42072.491    74.787663    227.78144 
   14450    132.64023    5.6842451     139713.5   -39437.803    2662.8528   -42100.656    75.194608    224.73759 
   14500    133.23531    77.377629    139693.07   -39438.578    2674.7996   -42113.378    75.536474    225.74587 
   14550    132.21952    120.12609     139753.5   -39429.347    2654.4068   -42083.754    75.847073    224.02477 
   14600    133.88547   -52.940735    139957.91   -39415.736    2687.8519   -42103.588    76.019446    226.84745 
   14650     129.3824   -7.3660899    140004.35    -39436.48    2597.4495   -42033.929    76.271681    219.21773 
   14700    131.26519   -194.99792    139896.27   -39470.535    2635.2479   -42105.783    76.570693    222.40781 
   14750    132.43555   -26.341338    139831.44   -39463.816    2658.7438    -42122.56    76.517809    224.39081 
   14800    130.07576   -14.554905    139840.02   -39459.004    2611.3692   -42070.374    76.715282    220.39252 
   14850    132.53132    134.67655    139856.46   -39445.323    2660.6664   -42105.989    76.935504    224.55307 
   14900    133.96531    10.794555    140025.84   -39464.412    2689.4548   -42153.867    77.126241    226.98273 
   14950    130.71784    69.391715    139901.78    -39526.02    2624.2595    -42150.28    77.482922    221.48042 
   15000    130.24768    23.545254    139864.79   -39508.937    2614.8207   -42123.758    77.753849    220.68381 
   15050    129.78296    78.102167    139845.41   -39545.644     2605.491   -42151.135     78.04949    219.89641 
   15100    130.80803   -111.84431    139934.19   -39520.863    2626.0701   -42146.933    78.402567    221.63323 
   15150    131.81804    22.172374    139825.03    -39510.96    2646.3468   -42157.306    78.578995    223.34453 
   15200    130.82828    100.69891    139996.75   -39499.836    2626.4765   -42126.312      78.9172    221.66754 
   15250    129.61177   -56.551257    140077.09   -39529.184    2602.0542   -42131.238    79.166427    219.60636 
   15300    132.94607   -97.574833     140004.9   -39558.636    2668.9928   -42227.629    79.660568    225.25579 
   15350    130.53697   -124.43958     139917.3   -39535.466    2620.6282   -42156.094    79.806469    221.17395 
   15400    127.99694    29.992704    139827.76   -39514.134    2569.6353    -42083.77    80.059794    216.87029 
   15450     132.0831    77.936665    139905.93   -39464.106     2651.668   -42115.774    80.057013    223.79363 
   15500    132.45827    88.082085    140016.18   -39419.458    2659.1999   -42078.658    80.081764     224.4293 
   15550    130.25365   -58.422434    139999.53   -39417.171    2614.9405   -42032.111    80.463705    220.69393 
   15600    132.67325   -54.438867    139971.87   -39407.173    2663.5157   -42070.689    81.000497    224.79354 
   15650    134.69543    2.7963221    139921.11   -39420.637    2704.1125   -42124.749      81.3306     228.2198 
   15700    134.49708   -9.5496366    139795.51   -39448.951    2700.1305   -42149.082    81.391631    227.88373 
   15750    133.22503   -36.321712    139790.21   -39440.368    2674.5931   -42114.961    81.700232    225.72844 
   15800    132.97266    3.6641986    139746.47   -39429.179    2669.5267   -42098.706    81.808826    225.30085 
   15850    135.25678   -65.510963    139773.05    -39416.59     2715.382   -42131.972    81.924457    229.17091 
   15900    131.56476    59.741168    139947.83   -39458.049    2641.2619    -42099.31    82.341994    222.91538 
   15950    133.10547   -59.530274    139827.34   -39483.016    2672.1929   -42155.209    82.619721    225.52587 
   16000    133.34656    76.388694    139940.84   -39509.312    2677.0329   -42186.345    82.762065    225.93435 
   16050    129.57556    123.69975    139938.07   -39516.432    2601.3272    -42117.76    83.093406      219.545 
   16100    131.97804   -13.457347    140084.42   -39454.368    2649.5588   -42103.927      83.2057    223.61562 
   16150     134.1914   -105.50739    139881.96   -39485.905    2693.9937   -42179.899    83.203028     227.3658 
   16200     134.6687    80.154909     139867.9   -39445.769    2703.5758   -42149.345    83.746027    228.17451 
   16250    133.94904    26.676896    140054.87   -39481.544    2689.1281   -42170.672    84.109965    226.95516 
   16300    131.61239   -126.93863     139980.5   -39509.322    2642.2181    -42151.54    84.279041    222.99608 
   16350    130.51252   -4.9512914       139804    -39507.77    2620.1376   -42127.907    84.436357    221.13254 
   16400    131.32835   -28.512116    139785.82   -39479.949    2636.5159   -42116.465     84.47371    222.51483 
   16450    131.06706    93.653798    139869.47   -39542.205    2631.2703   -42173.475    84.710456    222.07211 
   16500    129.63304    -22.52296     139657.5   -39556.256    2602.4812   -42158.737    84.995242    219.64239 
   16550    130.45681    66.890585    139706.62   -39549.942     2619.019   -42168.961     84.91732    221.03814 
   16600    130.47527   -96.367137    139648.81   -39557.713    2619.3896   -42177.103    85.120962    221.06941 
   16650    131.49558    167.29266     139673.1   -39516.933    2639.8731   -42156.806    85.712598    222.79817 
   16700    132.87545     7.702594    139822.68   -39437.242    2667.5751   -42104.817    85.748209    225.13614 
   16750    135.81827    28.130067    139849.63   -39409.444    2726.6545   -42136.098    86.078697    230.12228 
   16800    132.52926   -167.22009    139870.14   -39469.338    2660.6251   -42129.963    86.333444    224.54958 
   16850    131.89572   -32.020921    139827.19    -39421.56    2647.9062   -42069.466    86.535587    223.47614 
   16900    132.14171   -58.893992    139871.22   -39382.659    2652.8448   -42035.504      86.7533    223.89294 
   16950    131.80854    84.061529    139934.24   -39378.029    2646.1561   -42024.185    86.839569    223.32844 
   17000    132.00221    -121.6996    140020.55   -39369.735    2650.0442   -42019.779    87.195431    223.65658 
   17050    135.07885   -77.894561    140013.01   -39372.429      2711.81   -42084.239    87.319998    228.86945 
   17100     133.6567    24.290811    140026.68   -39349.563    2683.2593   -42032.823    87.514138    226.45985 
   17150    131.81557   -31.820365     140083.5   -39401.546    2646.2972   -42047.843    87.571507    223.34035 
   17200    128.03899    -102.1246    139986.02     -39497.5    2570.4795   -42067.979     88.08888    216.94154 
   17250    132.06032   -107.18381    139928.78   -39543.633    2651.2107   -42194.843    88.667484    223.75503 
   17300    128.77738   -49.851214    139835.51   -39572.505    2585.3032   -42157.808    88.821952    218.19262 
   17350     131.0252    35.886815    139900.08   -39576.314      2630.43   -42206.744    89.200864    222.00119 
   17400    130.62133   -91.912872    139791.45   -39586.726    2622.3218   -42209.048    89.195251    221.31689 
   17450    128.99758    91.328466    139807.84   -39622.047    2589.7239    -42211.77    89.312321    218.56571 
   17500    131.82714    26.736115    139789.12   -39572.196    2646.5295   -42218.725    89.461259    223.35995 
   17550    134.10671     173.0947    139827.16   -39537.161    2692.2935   -42229.455    89.631164    227.22231 
   17600    132.41246    26.103468    140048.54   -39544.907    2658.2801   -42203.187    89.916527    224.35167 
   17650    132.78352   -9.4689402    140020.08   -39541.444    2665.7294   -42207.173    90.214099    224.98037 
   17700    134.70392   -27.400693    140074.66   -39506.902     2704.283   -42211.185    90.274815    228.23419 
   17750    133.49472    82.855401    140138.15   -39518.174    2680.0073   -42198.181    90.475203    226.18539 
   17800    131.71598   -10.414217    140123.58   -39535.901    2644.2979   -42180.199    90.623549    223.17161 
   17850     130.9636   -174.35001    140068.82   -39559.762    2629.1933   -42188.956     90.78838    221.89682 
   17900    133.61796     37.98376     140180.5   -39546.354    2682.4814   -42228.836    91.000979     226.3942 
   17950    131.57243    -217.9469    140239.33   -39552.415    2641.4159   -42193.831    91.291903    222.92838 
   18000    133.03011   -44.108328    140082.79   -39554.994      2670.68   -42225.674    91.333316    225.39819 
   18050    132.29253    1.9282952    140072.78   -39562.128    2655.8725       -42218    91.674295    224.14847 
   18100    131.72603    2.0525729    139948.19   -39578.606    2644.4996   -42223.106    91.607366    223.18863 
   18150     131.9198    184.82889    139953.92    -39552.14    2648.3896    -42200.53    92.064168    223.51694 
   18200    132.36697   -110.44027    140020.52   -39567.044    2657.3669   -42224.411    92.459508    224.27459 
   18250    131.24696    31.275496    140018.86   -39531.926    2634.8819   -42166.807    92.908878    222.37693 
   18300    131.76114   -43.101722    140048.53   -39510.521    2645.2044   -42155.726      93.2696    223.24811 
   18350    133.23229    37.288848    140111.14   -39463.982    2674.7389   -42138.721    93.454772    225.74074 
   18400     134.0116    69.154362    140064.14   -39482.878    2690.3842   -42173.262    93.644208    227.06117 
   18450    135.84011   -57.986589    140125.63   -39469.291    2727.0928   -42196.384    93.732977    230.15927 
   18500    132.87327   -97.330481    140142.12   -39469.111    2667.5314   -42136.642    93.795315    225.13245 
   18550    132.00248   -4.2002487    139908.05   -39486.124    2650.0495   -42136.174    94.040112    223.65702 
   18600    132.62738   -80.145481    139783.18   -39489.094    2662.5948   -42151.689    94.426461    224.71582 
   18650    135.45956    53.827361    139787.61   -39428.823    2719.4531   -42148.276    94.558797     229.5145 
   18700    134.80719   -18.326076    139769.83   -39412.793    2706.3563    -42119.15    94.807812    228.40917 
   18750    135.72473   -76.991073    139792.64   -39383.316    2724.7764   -42108.092    95.215744    229.96378 
   18800    135.78072    119.28543    139881.29     -39313.2    2725.9006   -42039.101     95.45376    230.05866 
   18850    133.97859   -53.352167    139906.26   -39334.394    2689.7214   -42024.115    95.673744    227.00523 
   18900    134.63056    17.670381    139846.72   -39324.355    2702.8102   -42027.165    95.945307    228.10989 
   18950    135.72513   -112.05693    139795.57   -39347.922    2724.7845   -42072.706    96.400596    229.96446 
   19000    131.94785   -149.41519    139714.33   -39353.175    2648.9527   -42002.128    96.538269    223.56447 
   19050    135.10321   -84.183127    139628.02   -39311.385     2712.299   -42023.684    96.667434    228.91072 
   19100    135.13544   -2.8083605    139638.99   -39362.372    2712.9461   -42075.318    96.808341    228.96533 
   19150    133.12513    39.480261     139685.9   -39351.361    2672.5876   -42023.949    96.857002    225.55919 
   19200    133.50682   -51.038406    139619.51   -39366.035    2680.2502   -42046.285    96.999678    226.20589 
   19250    133.06767    107.96921    139557.94   -39365.906     2671.434    -42037.34    97.085241    225.46183 
   19300    131.51178   -92.636243    139589.76    -39387.29    2640.1983   -42027.488    97.228554    222.82562 
   19350    132.87904    180.74619    139589.56    -39374.09     2667.647   -42041.737    97.870714    225.14221 
   19400    132.69149   -65.785907    139746.41   -39384.345    2663.8819   -42048.227    98.012623    224.82445 
   19450    133.55123   -52.594465    139818.41    -39392.99    2681.1419   -42074.132    98.236513    226.28114 
   19500    130.94443    67.252213    139898.48   -39407.084    2628.8084   -42035.892    98.522312    221.86434 
   19550    135.07863    45.576801    140023.16   -39386.676    2711.8055   -42098.481    99.012929    228.86907 
   19600    133.98092   -37.958406    140084.43   -39394.759    2689.7681   -42084.528    99.355524    227.00917 
   19650    131.58118   -210.73853    139884.31   -39401.726    2641.5916   -42043.317    99.522895     222.9432 
   19700    130.94873   -26.064498    139826.78   -39398.627    2628.8947   -42027.521    99.564917    221.87162 
   19750    130.97717   -149.17859    139599.12   -39458.229    2629.4656   -42087.695     99.51112     221.9198 
   19800      131.901    87.263206    139787.28   -39448.802    2648.0123   -42096.815    99.618276    223.48509 
   19850    131.12736    17.730331    139847.66   -39436.986    2632.4809   -42069.467     99.81948    222.17429 
   19900    132.21022   -50.988581    139836.71   -39400.112      2654.22   -42054.332    99.864464    224.00901 
   19950    132.37058    84.157777    139824.57   -39407.943    2657.4394   -42065.382    99.913851    224.28071 
   20000    133.80176    28.954919    139797.14   -39375.967    2686.1714   -42062.138    100.06153    226.70562 
   20050    134.48503    56.663831    139883.09   -39378.915    2699.8886   -42078.804     100.1825    227.86331 
   20100    134.63029    18.188255    140017.15   -39380.951    2702.8049   -42083.756    100.77617    228.10944 
   20150    131.93754    100.69983    140102.55   -39395.348    2648.7459   -42044.094    101.08553    223.54701 
   20200     135.4999   -14.648614    140146.94    -39387.19    2720.2629   -42107.453    101.24611    229.58285 
   20250    135.70057   -121.33011     140094.2   -39383.509    2724.2915     -42107.8    101.49094    229.92286 
   20300    133.33417   -54.295775    140044.22   -39413.649    2676.7842   -42090.433    101.66938    225.91337 
   20350     129.3053   -173.32196    139852.42   -39422.467    2595.9017   -42018.369    101.69759     219.0871 
   20400    133.45828    31.994476    140003.42   -39420.663    2679.2757   -42099.939    102.05933    226.12365 
   20450    132.43106   -81.625425    139855.01   -39367.708    2658.6536   -42026.362    102.52035    224.38319 
   20500    132.88443    52.945248    140100.46   -39371.332    2667.7554   -42039.087    102.75499    225.15136 
   20550    130.68137    121.01877    140101.25   -39377.795    2623.5272   -42001.322    102.96196    221.41862 
   20600     132.1226   -196.00294    140057.03   -39422.802     2652.461   -42075.263    103.36175    223.86055 
   20650     132.6837   -167.85871    139863.55   -39378.379    2663.7256   -42042.105    103.77196    224.81125 
   20700    131.82492   -85.073639    139847.09   -39367.309    2646.4849   -42013.794    103.85774    223.35619 
   20750    133.40334   -26.935562    139862.01   -39330.095    2678.1728   -42008.268    103.98201    226.03056 
   20800     132.5919   -10.178377    139739.36    -39322.71    2661.8827   -41984.593     104.0592    224.65572 
   20850    133.81918    35.682176    139818.95   -39270.062    2686.5212   -41956.583     104.1301    226.73515 
   20900      133.787    65.428974    139821.08   -39245.436    2685.8751   -41931.311     104.2949    226.68061 
   20950    133.07971   -85.069834    139807.35   -39281.905    2671.6757    -41953.58    104.56456    225.48222 
   21000     133.8345    3.9096977    139646.73    -39227.92    2686.8287   -41914.749    104.65606     226.7611 
   21050    137.91929   -26.402141    139630.85   -39191.194     2768.834   -41960.028    104.71424    233.68212 
   21100    133.77657   -101.11416    139670.84   -39228.861    2685.6657   -41914.527    105.05898    226.66294 
   21150    132.53684    91.455768    139631.17   -39277.661    2660.7773   -41938.438    105.13768    224.56243 
   21200    133.07609    29.598349    139709.61   -39280.082    2671.6031   -41951.685    105.46079    225.47609 
   21250    132.56138    39.199035    139670.15   -39317.336    2661.2699   -41978.605    105.56472      224.604 
   21300    134.30833    24.976759    139725.62   -39286.069    2696.3412    -41982.41    105.36593    227.56392 
   21350    129.82227    13.756493    139920.27   -39320.442    2606.2801   -41926.722    105.78819    219.96301 
   21400    135.04205   -151.31065    139837.43   -39284.105    2711.0713   -41995.176    106.19605     228.8071 
   21450    133.81526    -74.61865    139743.45   -39313.579    2686.4424   -42000.021    106.28117    226.72849 
   21500    135.63076    117.30602    139741.72   -39281.095    2722.8901   -42003.985    106.49688    229.80458 
   21550    131.12638   -45.578907    139985.95   -39309.864    2632.4611   -41942.325     107.0493    222.17262 
   21600    134.29668    41.781483    139995.39   -39316.132    2696.1073    -42012.24    107.24351    227.54419 
   21650    134.84754   -39.928954    139993.09   -39353.442    2707.1663   -42060.608    107.54097    228.47753 
   21700    134.16195    56.889463     140022.9   -39377.773    2693.4025   -42071.176    107.99752    227.31591 
   21750    135.80296   -59.051193    140000.51   -39335.085     2726.347   -42061.432    108.22293    230.09633 
   21800    130.69877    86.225645    140061.33   -39382.296    2623.8767   -42006.173    108.18999    221.44811 
   21850     133.8016    100.41241    140123.77   -39361.645    2686.1683   -42047.814    108.56776    226.70536 
   21900     134.8179   -140.08291    140041.45   -39356.131    2706.5713   -42062.703    108.72827    228.42731 
   21950    131.37483   -126.82807    139914.74   -39368.653    2637.4489   -42006.102    109.18618    222.59357 
   22000    134.27204   -200.54227    139705.75   -39359.557    2695.6127   -42055.169    109.37969    227.50244 
   22050    136.46713    36.741592    139702.97   -39367.264    2739.6807   -42106.944    109.48674    231.22166 
   22100    132.45591    12.649027    139827.39   -39393.705    2659.1524   -42052.857    109.82102    224.42529 
   22150    132.49366    154.94457    139819.68   -39420.578    2659.9103   -42080.488     109.9108    224.48925 
   22200    134.33638   -134.40274    139975.18   -39359.686    2696.9044    -42056.59    110.10028    227.61145 
   22250    132.01892     75.75781    139941.06   -39444.132    2650.3796   -42094.512    110.36019    223.68489 
   22300    132.41251   -43.355043    139866.65   -39427.736    2658.2812   -42086.018    110.90385    224.35177 
   22350    134.05467    78.834777    139770.81   -39394.752    2691.2488       -42086    111.03516    227.13414 
   22400    134.91601   -77.274332    139799.57    -39380.21    2708.5408   -42088.751    111.25018    228.59354 
   22450    133.14747    -187.9714    139713.02   -39399.241     2673.036   -42072.277    111.69947    225.59703 
   22500    131.79184    121.32827    139707.69    -39407.53    2645.8208   -42053.351    111.74555    223.30013 
   22550    133.85969   -62.452891    139756.24    -39429.26    2687.3345   -42116.594    111.85153    226.80378 
   22600    132.46545   -107.43944    139602.88   -39434.831    2659.3441   -42094.175    111.87571    224.44147 
   22650    128.53577    21.172645    139391.82   -39429.747    2580.4527     -42010.2    112.24817    217.78325 
   22700    129.18963    43.927617    139441.29   -39451.895    2593.5795   -42045.474    112.79291    218.89111 
   22750    129.83203   -80.944945       139465   -39436.503    2606.4761    -42042.98    113.06709    219.97955 
   22800    131.44013    24.071039    139542.11   -39424.742    2638.7599   -42063.502    113.28258    222.70421 
   22850    130.88132   -11.017162    139627.03   -39426.239    2627.5415   -42053.781    113.59395    221.75741 
   22900    132.38828    -76.64322    139628.32    -39410.26    2657.7948   -42068.055    113.48596    224.31071 
   22950    131.95118    68.693467    139481.86   -39426.424    2649.0198   -42075.444     113.4063    223.57012 
   23000    133.87881   -42.987455    139465.11   -39391.995    2687.7182   -42079.713    113.92345    226.83617 
   23050    133.40938    93.183564    139490.69   -39342.494    2678.2941   -42020.788     114.2611     226.0408 
   23100    134.91485    114.36175    139479.48    -39353.53    2708.5175   -42062.048    114.62765    228.59157 
   23150    134.43198    49.589956    139536.92   -39327.588    2698.8237   -42026.412    115.00854    227.77344 
   23200    135.80818    14.830802    139588.87   -39331.354    2726.4518   -42057.806    115.31618    230.10518 
   23250    131.49956    158.22513    139754.96   -39353.341     2639.953   -41993.294    115.74234    222.80491 
   23300    135.22815   -68.023843     139866.3   -39362.528    2714.8073   -42077.335    116.19845    229.12241 
   23350     133.0591    -125.0345    139841.37    -39378.33     2671.262   -42049.592    116.51961    225.44731 
   23400    133.76929    66.254592    139748.33   -39379.284    2685.5196   -42064.803     116.8994    226.65061 
   23450    132.83607     35.87345    139823.54   -39387.266    2666.7846   -42054.051    117.46203    225.06942 
   23500    132.06979   -111.54222    139699.64   -39383.034    2651.4008   -42034.435    117.88358    223.77107 
   23550    131.61532    138.17157    139724.97   -39398.779    2642.2769   -42041.056    118.13738    223.00104 
   23600    135.55393    -125.5987     139811.6   -39369.918    2721.3476   -42091.265    118.57896    229.67439 
   23650    132.70268   -191.18812    139611.17   -39336.477    2664.1067   -42000.584    118.84719    224.84341 
   23700    133.73387    37.789766    139649.66   -39332.313    2684.8084   -42017.122    119.05824    226.59059 
   23750    133.85063    85.760265    139620.87   -39334.918    2687.1526    -42022.07    119.41382    226.78843 
   23800    131.90801   -171.82134    139616.21   -39332.073    2648.1531   -41980.226    119.51216    223.49697 
   23850    130.16729    72.416064    139454.24   -39382.241    2613.2067   -41995.448    119.81128     220.5476 
   23900    133.32689   -23.356322    139432.87   -39353.697     2676.638   -42030.335    119.99115    225.90103 
   23950    135.33033   -132.48036    139449.79   -39281.855    2716.8587   -41998.714    120.23116    229.29554 
   24000    133.06166    -62.99276    139286.24   -39286.612    2671.3133   -41957.925    120.50936    225.45164 
   24050    133.71754   -9.4006148    139279.86   -39306.367    2684.4807   -41990.847    120.74497    226.56293 
   24100    134.25357   -13.849822    139255.68   -39274.192    2695.2418   -41969.434    121.43634    227.47114 
   24150    130.90044    219.76021       139358   -39304.236    2627.9252   -41932.161    121.75814    221.78979 
   24200     131.3942   -118.88454    139443.66       -39333    2637.8378   -41970.838    122.09577     222.6264 
   24250    134.94626   -19.098938    139384.05   -39332.814    2709.1482   -42041.962    122.59692     228.6448 
   24300    131.11258   -24.742056    139409.75   -39303.999    2632.1842   -41936.183    123.17759    222.14925 
   24350    131.78868    106.81993    139570.14   -39352.743    2645.7573   -41998.501    123.34837    223.29478 
   24400    130.29867    128.62275    139616.98   -39325.416    2615.8442    -41941.26    123.71605    220.77019 
   24450    133.92215    3.1918288    139742.63   -39343.813    2688.5884   -42032.401    123.95086    226.90961 
   24500     132.2748    38.164205     139796.9   -39315.668    2655.5165   -41971.184    124.08089    224.11843 
   24550    134.10803   -53.866723    139766.89     -39313.8      2692.32    -42006.12    124.38591    227.22454 
   24600    135.25994    70.932758    139795.67   -39280.444    2715.4456   -41995.889    124.50746    229.17628 
   24650    134.30648    17.625079    139833.37   -39289.325    2696.3041   -41985.629    124.56336    227.56079 
   24700    131.03127   -12.573889    139863.95   -39368.241    2630.5518   -41998.793    124.95039    222.01148 
   24750    133.75475    94.780456    139898.19   -39361.647    2685.2276   -42046.875    125.07431    226.62597 
   24800    132.38356    12.289819    140018.98   -39354.399       2657.7   -42012.099    125.36808    224.30271 
   24850     136.5146   -171.95882    139991.02   -39291.163    2740.6337   -42031.797    125.68674    231.30209 
   24900    135.60228   -82.459115    139827.31   -39292.576    2722.3182   -42014.894    125.71905    229.75631 
   24950    131.96859    35.632795    139865.29   -39293.284    2649.3691   -41942.653    125.78483    223.59961 
   25000    136.55444   -125.59574    139758.18   -39286.897    2741.4336    -42028.33    125.89207     231.3696 
   25050    132.94733    -176.6892    139621.72   -39389.811    2669.0181   -42058.829    125.94458    225.25793 
   25100    131.17505   -78.285953    139584.58    -39342.37    2633.4383   -41975.808    126.23621    222.25508 
   25150    132.48108    71.838242    139465.27   -39319.433    2659.6577   -41979.091    126.15412    224.46794 
   25200    133.65383    13.424393    139483.63   -39328.651    2683.2016   -42011.853    126.45404    226.45498 
   25250    135.55206   -27.960384    139468.95   -39325.046      2721.31   -42046.356     126.6483    229.67123 
   25300    133.51839    61.522761    139562.46    -39397.41    2680.4826   -42077.893      126.551     226.2255 
   25350    129.65326      56.1138     139635.3   -39414.957    2602.8871   -42017.844    126.82593    219.67665 
   25400    135.14397   -29.040228    139710.74   -39408.406    2713.1173   -42121.523    126.95105    228.97978 
   25450    131.19523   -2.4170356    139779.81   -39390.375    2633.8434   -42024.218    127.18305    222.28928 
   25500    127.92249   -77.326089    139604.45   -39366.734    2568.1407   -41934.874    127.52079    216.74415 
   25550    130.01654    123.58235    139695.07   -39358.311    2610.1803   -41968.491    127.69432    220.29218 
   25600    131.82926   -13.365715    139692.79   -39358.262    2646.5719   -42004.834    127.76592    223.36353 
   25650    132.79217   -14.097754    139668.58   -39345.869    2665.9032   -42011.772    127.75506    224.99504 
   25700    132.44668    57.696242    139570.14   -39333.085    2658.9672   -41992.052    127.95654    224.40966 
   25750    132.17136    33.115099     139624.3   -39330.006    2653.4399   -41983.446    128.07173    223.94317 
   25800    134.19164    204.69717    139651.36   -39289.585    2693.9987   -41983.584    128.39952    227.36622 
   25850     136.1002    32.746406     139739.2   -39277.117    2732.3143   -42009.431    128.80101    230.59995 
   25900    133.42582    42.674481    139821.34   -39320.645    2678.6242   -41999.269    128.69772    226.06866 
   25950    133.10933     66.07513    139699.52    -39343.74    2672.2704   -42016.011    128.73279    225.53241 
   26000     133.9064   -128.75553    139791.41   -39328.635    2688.2722   -42016.907    128.81687    226.88293 
   26050    133.46979   -100.85433     139675.5   -39295.223     2679.507    -41974.73    128.43651    226.14316 
   26100    133.66824    150.07917     139786.6   -39291.108    2683.4908   -41974.599    128.53825    226.47939 
   26150    133.03429   -158.71254    139685.93   -39369.028    2670.7639   -42039.792    128.67078    225.40527 
   26200    134.45277    36.125472    139581.96   -39358.096     2699.241   -42057.337    128.69658    227.80866 
   26250    134.88372   -60.777843    139613.51   -39315.547    2707.8926    -42023.44    128.90515    228.53883 
   26300    135.02899    12.827024     139621.9   -39303.418     2710.809   -42014.227    128.96381    228.78497 
   26350    133.67706   -34.491334    139608.59   -39300.743    2683.6681   -41984.412    129.25717    226.49434 
   26400    133.87966   -25.838724       139527   -39339.129    2687.7354   -42026.865    129.47951    226.83762 
   26450    132.47398    78.261186    139455.76   -39306.836    2659.5152   -41966.351    129.97688    224.45591 
   26500    135.66745    14.800931    139488.07   -39309.196    2723.6265   -42032.822    130.35662    229.86673 
   26550    132.98665   -147.59205     139454.3   -39358.875    2669.8075   -42028.683    130.72387    225.32455 
   26600    135.26402    91.755055    139344.33   -39374.944    2715.5275   -42090.471    130.82295    229.18319 
   26650    131.48208   -149.94386    139428.28   -39356.699     2639.602   -41996.301    131.01022    222.77529 
   26700    134.77206   -38.853728    139344.31   -39339.748     2705.651   -42045.399    131.36903    228.34965 
   26750    133.58819    -36.42356    139324.98   -39361.892    2681.8839   -42043.776    132.06093    226.34376 
   26800    132.93906    98.284684    139305.12   -39378.344    2668.8521   -42047.196    132.83119    225.24391 
   26850    132.39529    59.394553    139348.81   -39385.691    2657.9355   -42043.627    133.20864    224.32258 
   26900    131.21866    -132.8621    139489.41   -39402.284    2634.3137   -42036.597    133.70495    222.32897 
   26950    132.72517   -225.02165    139346.42   -39395.386    2664.5582   -42059.944    133.86097    224.88152 
   27000    130.74346    103.95962    139271.42   -39362.619    2624.7737   -41987.393    133.94223    221.52382 
   27050    132.76885    124.53708    139491.32   -39389.464    2665.4349   -42054.899    133.98118    224.95552 
   27100     131.9101     85.82469    139515.05   -39407.879    2648.1949   -42056.074    133.78891     223.5005 
   27150    133.80059   -24.188199    139559.75   -39382.748    2686.1481   -42068.896    134.00808    226.70365 
   27200    132.70038   -10.881951    139478.83   -39390.978    2664.0603   -42055.039    134.49315     224.8395 
   27250    132.04641   -155.03478    139365.09   -39408.364    2650.9315   -42059.295    134.50895    223.73147 
   27300      130.597    62.135979    139394.72    -39398.78    2621.8334   -42020.614    134.80072    221.27567 
   27350    132.23772    63.656005     139427.3   -39397.705    2654.7721   -42052.477    135.22278     224.0556 
   27400    130.15869   -43.589137    139509.04   -39411.494    2613.0341   -42024.528    135.61137    220.53303 
   27450    132.62041    139.30964    139494.33   -39375.366    2662.4549    -42037.82    135.80408    224.70401 
   27500    132.96027   -19.394361     139484.4   -39351.119    2669.2778   -42020.396    136.27734    225.27985 
   27550    131.92063    24.788059    139478.36   -39326.437    2648.4064   -41974.844    136.13992    223.51836 
   27600    130.32838   -137.40194    139554.06   -39353.569    2616.4407   -41970.009    136.28644    220.82054 
   27650    131.44266    -144.7932    139374.91    -39376.17    2638.8107   -42014.981    136.32654    222.70851 
   27700    130.31076    111.75057     139281.2   -39398.414     2616.087   -42014.501    136.50544    220.79068 
   27750    131.24912   -74.339363    139249.04    -39377.77    2634.9253   -42012.696    136.71748    222.38059 
   27800    133.07512    84.573544    139255.72   -39334.823    2671.5836   -42006.406    136.89497    225.47445 
   27850    133.78742   -59.250472    139262.36    -39334.16    2685.8836   -42020.043    137.09256    226.68133 
   27900    133.39228    57.291179    139217.82   -39293.314    2677.9508   -41971.265    137.28407    226.01182 
   27950    132.11778   -18.217927    139133.78   -39276.113    2652.3642   -41928.477    137.40404    223.85239 
   28000    133.76785     48.64543    139213.59   -39272.181    2685.4906   -41957.671    137.86886    226.64817 
   28050    136.50328    82.130473    139341.58   -39216.925    2740.4065   -41957.331    138.35587    231.28291 
   28100    132.66441   -6.5719208    139458.86   -39222.802    2663.3382   -41886.141    138.52611    224.77856 
   28150    133.77752    1.3828811    139591.75   -39253.506    2685.6847   -41939.191    138.80315    226.66455 
   28200    133.47553    97.597553    139588.38   -39288.002    2679.6221   -41967.624    139.16928    226.15288 
   28250    131.02531    101.21995    139615.24   -39276.715    2630.4321   -41907.147     138.9773    222.00138 
   28300    135.04082    2.6496309    139595.58    -39278.11    2711.0466   -41989.157       139.43    228.80502 
   28350    135.83139    58.097205    139550.91    -39309.68    2726.9177   -42036.597     139.6938     230.1445 
   28400     133.8645   -99.783634    139502.21   -39308.545    2687.4309   -41995.976    139.81525    226.81192 
   28450    134.63249    66.400407    139522.03   -39239.361    2702.8489    -41942.21    140.15844    228.11316 
   28500    131.51405   -38.884311    139410.25   -39303.522     2640.244   -41943.766    140.55806    222.82947 
   28550    133.90024    19.490038    139483.36   -39301.894    2688.1485   -41990.043    140.91522    226.87248 
   28600    132.34587   -147.82805    139303.64   -39296.667    2656.9433    -41953.61     141.3197    224.23884 
   28650     134.3037    41.320051    139147.79    -39246.06    2696.2482   -41942.308    141.30631    227.55608 
   28700    130.91112    179.04701    139208.38   -39296.972    2628.1397   -41925.112    141.31428     221.8079 
   28750    134.31952   -102.31286    139263.94   -39298.171    2696.5659   -41994.737    141.56869    227.58288 
   28800    131.28611    162.03856    139332.05    -39269.05    2635.6679   -41904.718    141.82869    222.44326 
   28850    134.07262    54.316736    139602.16   -39191.756    2691.6092   -41883.365    142.15133    227.16456 
   28900    133.99566   -194.18703    139504.98   -39222.742     2690.064   -41912.806    142.40177    227.03415 
   28950     133.4539   -61.496018    139305.09   -39238.484    2679.1879   -41917.672     142.5476    226.11623 
   29000    137.95182    185.12121    139429.15   -39203.317    2769.4869   -41972.804    142.56132    233.73723 
   29050     135.3853   -35.061731    139463.45   -39228.426    2717.9622   -41946.388    142.81186    229.38867 
   29100    134.95212    6.1707132    139471.52   -39286.712    2709.2658   -41995.978    143.29205    228.65473 
   29150    133.91467   -156.45841    139379.02   -39266.734    2688.4381   -41955.173    143.36305    226.89693 
   29200    137.35492   -112.71171    139331.29   -39204.009    2757.5037   -41961.513    143.57287    232.72588 
   29250    136.56157   -10.983904    139314.88   -39193.099    2741.5767   -41934.676    143.88946    231.38167 
   29300    133.56187   -91.598456    139384.58    -39198.01    2681.3554   -41879.366    143.95029    226.29916 
   29350     134.1811    144.40289     139342.4   -39238.024    2693.7869   -41931.811    144.04128    227.34835 
   29400    132.33933   -85.615677    139336.21   -39289.956    2656.8121   -41946.768    144.58755    224.22777 
   29450    135.44466    107.02938    139212.13   -39244.064    2719.1539   -41963.218     145.0424    229.48925 
   29500    134.30698    145.19136    139411.05   -39244.441     2696.314   -41940.755     145.6571    227.56163 
   29550    132.97644   -105.62811    139389.09   -39254.709    2669.6026   -41924.311    145.69385    225.30726 
   29600     132.1356     232.2704    139316.45   -39265.018    2652.7221    -41917.74    145.91664    223.88259 
   29650    133.10467   -108.36172    139489.87   -39247.594    2672.1769   -41919.771    146.44123    225.52452 
   29700    133.95207    116.01393       139605   -39219.238    2689.1891   -41908.427    146.73575    226.96031 
   29750    134.63944    14.730644     139690.5   -39229.471    2702.9886   -41932.459    146.97616    228.12494 
   29800    133.91697   -72.124229    139662.78   -39239.607    2688.4844   -41928.091    146.99715    226.90083 
   29850    135.68339   -0.8011065    139696.17   -39247.973    2723.9466   -41971.919    147.42892    229.89374 
   29900    132.04366     24.05523    139808.04   -39275.668    2650.8763   -41926.545    147.69875    223.72681 
   29950    131.16058     14.64705    139766.87   -39312.209    2633.1477   -41945.357    147.79039    222.23056 
   30000    132.63682   -30.736339    139769.68   -39333.322    2662.7844   -41996.106    147.73419    224.73182 
   30050    131.73038    62.550626    139834.71    -39315.26     2644.587   -41959.847    147.94672    223.19601 
   30100    132.54925   -212.06644    139688.48   -39317.031    2661.0264   -41978.058    148.46213    224.58345 
   30150    129.76754   -9.9180176    139552.66   -39367.682    2605.1815   -41972.864    148.82878    219.87029 
   30200    131.09095    64.767039    139599.74   -39327.285    2631.7498   -41959.035    149.24318    222.11258 
   30250    133.25547   -37.277329    139503.25   -39354.162    2675.2043   -42029.366     149.2611    225.78003 
   30300    133.37732    25.500254    139557.66   -39338.962    2677.6504   -42016.612    149.40262    225.98647 
   30350    132.67411    73.812176    139561.91   -39316.541     2663.533   -41980.074    149.64296      224.795 
   30400    134.47548    32.914448    139689.15   -39264.514    2699.6969   -41964.211    149.76685    227.84713 
   30450    136.68635   -101.41248     139812.8    -39260.38    2744.0818   -42004.462    150.34693     231.5931 
   30500    136.35918   -165.11456    139684.87    -39225.74    2737.5136   -41963.254    150.60455    231.03876 
   30550    137.34426    68.170651    139529.67   -39197.835    2757.2898   -41955.125    151.05314    232.70782 
   30600    135.95192    240.57283    139819.31   -39285.251    2729.3376   -42014.589    151.14528    230.34873 
   30650    134.63692   -62.650029    139912.08    -39310.53    2702.9379   -42013.468    151.24093    228.12067 
   30700    133.83681    45.614094    139790.87   -39391.336     2686.875   -42078.211    151.37406      226.765 
   30750    133.03507    124.50901    139961.36   -39424.115    2670.7797   -42094.895    151.81175     225.4066 
   30800    131.53466   -145.44698    139890.54   -39439.956    2640.6577   -42080.613     152.4524    222.86439 
   30850    130.56177   -5.9700425    139759.28   -39451.377    2621.1262   -42072.503    152.84732    221.21598 
   30900    131.61914   -16.206276    139742.17   -39466.739    2642.3538   -42109.093    153.16595    223.00753 
   30950    131.43389    55.723527    139810.42   -39454.912    2638.6347   -42093.546     153.2841    222.69365 
   31000    131.15126    23.755143    139753.94   -39388.994    2632.9606   -42021.955     153.0353    222.21477 
   31050    135.89136    61.936394    139895.03   -39354.312    2728.1218   -42082.433    152.99841    230.24612 
   31100    132.44095   -34.386277    139915.34   -39366.827    2658.8521   -42025.679    153.21592    224.39994 
   31150    134.81366      33.1238    139845.76   -39368.286    2706.4861   -42074.772     153.3493    228.42012 
   31200    133.43109     25.66893    139872.51   -39320.598    2678.7299   -41999.328    153.88078    226.07758 
   31250    133.22995   -262.88183    139680.59   -39331.036     2674.692   -42005.728     154.0956    225.73679 
   31300    134.89469    -11.91568    139554.11   -39312.427    2708.1129    -42020.54    154.40763    228.55742 
   31350    132.57427    101.28205    139585.53   -39329.317    2661.5286   -41990.846    154.61972    224.62584 
   31400    135.50481   -128.16829    139606.82   -39288.251    2720.3615   -42008.613    154.88058    229.59117 
   31450    133.04368   -224.62193    139620.72   -39328.633    2670.9524   -41999.586    155.19934    225.42117 
   31500    134.76834    43.518669    139605.23   -39327.667    2705.5763   -42033.243    155.50908    228.34334 
   31550    132.32675   -17.481632    139726.08   -39357.378    2656.5595   -42013.937    155.81037    224.20645 
   31600    134.84222    3.4056482    139718.34   -39332.615    2707.0596   -42039.675    156.38337    228.46852 
   31650    130.91841    45.348136    139872.78   -39379.728     2628.286   -42008.014    156.62869    221.82025 
   31700    133.14949    75.952833    139864.71   -39347.679    2673.0766   -42020.756    156.93465    225.60045 
   31750    135.25703   -81.303618    139786.54   -39367.883    2715.3871    -42083.27    157.42543    229.17135 
   31800    135.21089     53.09234    139663.09   -39351.054    2714.4607   -42065.515    157.69176    229.09316 
   31850    132.27564   -219.50118    139721.58   -39421.004    2655.5333   -42076.538    157.86764    224.11985 
   31900    132.98472    8.7135079    139665.04   -39393.787    2669.7688   -42063.556    158.22411    225.32128 
   31950    132.75434  -0.22141251    139667.33   -39362.293    2665.1437   -42027.436    158.70842    224.93094 
   32000    131.67262   -20.394992     139587.6   -39388.692    2643.4274   -42032.119    159.17514    223.09815 
   32050    134.96049   -121.55453    139698.09   -39389.743    2709.4338   -42099.177    159.20865    228.66891 
   32100    133.25562    73.201281    139710.15   -39353.773    2675.2073    -42028.98    159.13673    225.78028 
   32150    135.84093   -116.64877    139690.28   -39307.043    2727.1094   -42034.152     159.0222    230.16068 
   32200    134.20927   -97.599918    139618.64    -39290.68    2694.3525   -41985.033     159.2714    227.39608 
   32250    133.73907    66.878861    139535.49   -39329.043    2684.9128   -42013.956    159.40155     226.5994 
   32300    134.27172    27.364094    139522.08   -39361.783    2695.6062   -42057.389     160.0562    227.50189 
   32350    134.27767   -25.143351    139550.38   -39366.591    2695.7256   -42062.317    160.54148    227.51197 
   32400     131.8983   -124.88985    139412.44   -39418.545     2647.958   -42066.503    160.87497    223.48051 
   32450     131.0031   -85.768031    139208.97   -39391.958    2629.9863   -42021.945    161.22432    221.96375 
   32500    133.14776    89.933617     139215.5   -39346.709    2673.0419   -42019.751     161.2832    225.59753 
   32550    131.57747   -308.57387    139088.65   -39353.896    2641.5171   -41995.413    161.70204    222.93691 
   32600      132.409    161.50464    139098.11   -39388.727    2658.2108   -42046.938    161.83824    224.34582 
   32650    131.30711    -72.02415    139142.37   -39400.254    2636.0894   -42036.344    162.19928    222.47884 
   32700    132.78554    17.632837    139168.01   -39434.181      2665.77   -42099.951    162.38407     224.9838 
   32750    128.58071   -176.57286    139198.59   -39417.434    2581.3549   -41998.789    162.82127    217.85939 
   32800     129.3336    9.7507046    139043.94   -39405.878    2596.4697   -42002.348    163.13649    219.13504 
   32850    130.56786    14.149754    139096.28   -39378.893    2621.2485   -42000.141    162.98687    221.22631 
   32900    133.56267    93.306542    139150.42   -39385.838    2681.3716   -42067.209    163.07694    226.30053 
   32950    132.11436    83.180308    139186.19   -39388.252    2652.2956   -42040.547    163.39771    223.84659 
   33000     128.6739    41.723831     139314.2   -39430.762    2583.2258   -42013.988    163.61011    218.01729 
   33050    135.90987    45.191768    139319.05   -39395.105    2728.4933   -42123.598    163.77239    230.27748 
   33100    134.44354    122.23365    139371.36   -39399.138    2699.0556   -42098.194    163.77543    227.79301 
   33150    132.49219    -54.89315    139647.01   -39392.632    2659.8808   -42052.513    163.98676    224.48677 
   33200    133.68574   -106.87044    139491.24   -39338.128    2683.8423    -42021.97    164.26992    226.50905 
   33250    131.69323    74.863048    139293.13   -39337.645    2643.8411   -41981.486    164.22654    223.13306 
   33300    130.64719    84.584199     139383.4   -39354.123     2622.841   -41976.964    164.68956    221.36071 
   33350    132.53211   -26.993359    139317.06   -39387.117    2660.6822   -42047.799    164.61445     224.5544 
   33400    132.84313    56.124948     139336.8   -39400.343    2666.9261   -42067.269    164.77887    225.08137 
   33450    132.77155    146.71106    139364.76   -39430.674    2665.4893   -42096.163     164.9077     224.9601 
   33500    131.81481    34.288251    139410.52   -39468.156    2646.2818   -42114.437     165.3158    223.33905 
   33550    131.93555   -86.614122    139496.26   -39407.775    2648.7059   -42056.481    165.20841    223.54364 
   33600    132.32809    51.796572    139653.08   -39448.612    2656.5864   -42105.198    165.63776    224.20873 
   33650    133.23565   -66.452157    139447.59    -39452.45    2674.8064   -42127.257    166.07118    225.74644 
   33700     130.0333   -11.602962    139272.59   -39483.406    2610.5167   -42093.922    165.99468    220.32056 
   33750    129.64246   -89.460249    139240.36   -39524.334    2602.6703   -42127.004    166.07071    219.65835 
   33800    131.99342    117.31264    139399.16   -39470.809    2649.8676   -42120.677    166.23223    223.64168 
   33850    131.34903    -121.6505    139528.22   -39476.184    2636.9311   -42113.115    166.69349    222.54987 
   33900    133.76504   -12.861973     139379.2   -39419.686    2685.4342    -42105.12    166.53188     226.6434 
   33950    130.99622    4.6859021    139456.29   -39445.229    2629.8481   -42075.077    166.80183    221.95209 
[...]
   92000    135.69698   -5.0767582    140036.26   -39407.497    2724.2195   -42131.716    455.20006    229.91677 
   92050    133.79898   -16.897789    140130.21    -39444.88    2686.1157   -42130.995    455.64445    226.70092 
   92100    131.66647   -126.56898    140076.26   -39468.272    2643.3039   -42111.576    455.59009    223.08772 
   92150    131.58403   -128.32301    139888.09   -39472.336    2641.6488   -42113.985    456.09147    222.94804 
   92200    132.47615    101.21562    139837.81   -39453.127    2659.5589   -42112.686    456.36305    224.45959 
   92250    132.87833    35.602725    139906.67   -39435.117     2667.633   -42102.749    456.42255    225.14103 
   92300    131.70626   -114.44535    139948.61   -39439.388    2644.1027   -42083.491    456.73167    223.15513 
   92350    132.62198   -104.41191     139826.7   -39441.694    2662.4864   -42104.181    456.52729    224.70667 
   92400    131.93646   -24.735961    139809.39   -39410.937    2648.7242   -42059.661      456.907    223.54518 
   92450    131.76616   -56.708898    139673.56    -39410.17    2645.3053   -42055.476    456.85638    223.25663 
   92500    135.52048    40.144536    139716.84   -39328.296    2720.6761   -42048.972    457.60447    229.61772 
   92550      134.815   -159.64459    139766.03   -39331.371    2706.5131   -42037.884    457.79695     228.4224 
   92600    132.27922   -4.0798338    139722.03   -39367.037    2655.6052   -42022.642    458.14338    224.12592 
   92650    132.06291    51.510622    139791.66   -39371.758    2651.2628   -42023.021    458.67766    223.75943 
   92700    133.11136   -118.76561    139795.49   -39380.041    2672.3111   -42052.352    458.35149    225.53585 
   92750    133.10245    17.790708    139557.75   -39410.431    2672.1322   -42082.563     458.4405    225.52075 
   92800    130.85752   -20.971917    139530.68   -39371.534    2627.0636   -41998.597    458.63746    221.71708 
   92850    134.58932   -36.106475    139543.12   -39323.945    2701.9823   -42025.928    459.00428    228.04002 
   92900    134.29015    37.933865    139589.13   -39331.629    2695.9762   -42027.605    459.47969    227.53312 
   92950    132.25471    9.8975533    139671.16   -39394.515    2655.1131   -42049.628    459.68228    224.08439 
   93000    132.76004   -21.712226    139547.29   -39389.168    2665.2581   -42054.427    459.77654    224.94059 
   93050     134.4483    64.648796    139542.02   -39420.237    2699.1512   -42119.388    460.22674    227.80108 
   93100    133.33441   -72.058353    139469.13   -39334.024     2676.789   -42010.813    460.03961    225.91377 
   93150    135.08568    133.48254    139609.32   -39291.469     2711.947   -42003.416    460.45725    228.88101 
   93200    134.83509   -1.8213411    139618.06    -39283.97    2706.9163   -41990.886    460.89956    228.45643 
   93250    134.64343    51.164866    139639.11   -39274.173    2703.0687   -41977.242    461.57255     228.1317 
   93300    134.85441    12.531149    139650.28    -39290.87    2707.3042   -41998.174    461.87898    228.48917 
   93350    134.97439    42.512441    139672.55   -39272.452    2709.7128   -41982.165    462.49183    228.69245 
   93400    134.23058    93.779438    139823.92   -39247.216    2694.7804   -41941.997    462.40053    227.43219 
   93450    131.42063    -120.2335    139855.06   -39315.984    2638.3685   -41954.353    463.01468    222.67118 
   93500     133.5021   -75.207065       139667   -39345.039    2680.1556   -42025.194    462.96773    226.19791 
   93550    131.95265    134.13381    139569.85   -39342.027    2649.0491   -41991.076    462.75421     223.5726 
   93600    134.40041   -154.29701    139564.17   -39318.865    2698.1899   -42017.054    463.38128    227.71994 
   93650    136.75084    95.406792    139653.05   -39248.701    2745.3765   -41994.077    463.90655    231.70237 
   93700    136.81117   -63.071144    139625.27   -39303.509    2746.5876   -42050.097    464.12147    231.80458 
   93750    134.06345   -44.438157    139831.09   -39315.828    2691.4251   -42007.253    465.09297    227.14902 
   93800    135.70964   -133.73188    139759.92   -39311.555    2724.4736   -42036.029    465.30475    229.93822 
   93850    133.37959   -129.87173    139564.68   -39366.049     2677.696   -42043.745    465.44137    225.99032 
   93900     131.4335   -77.804152    139546.88    -39416.43    2638.6269   -42055.057    466.45771    222.69299 
   93950    132.69803    53.969814    139480.34   -39397.826    2664.0132   -42061.839    466.97202    224.83553 
   94000    134.35841    156.14416    139572.23   -39392.027    2697.3466   -42089.373    467.39289    227.64878 
   94050    131.37156    -79.43441    139686.35   -39385.223    2637.3833   -42022.607    467.79089    222.58804 
   94100    132.82122   -100.00916    139567.71   -39425.336    2666.4863   -42091.822    467.90782    225.04425 
   94150    130.87201    90.632051    139596.65   -39459.186    2627.3546    -42086.54    467.84297    221.74164 
   94200    133.07119    165.12791    139648.24   -39426.325    2671.5046   -42097.829    468.04489    225.46778 
   94250    133.06333    -20.78144    139629.28   -39381.436     2671.347   -42052.783    468.70334    225.45448 
   94300    134.74459    21.416196    139856.19   -39381.306    2705.0994   -42086.405    470.14298    228.30309 
   94350    131.82009    52.496372    139942.86   -39352.176     2646.388   -41998.564    470.90499    223.34801 
   94400    132.66887    130.97713    139940.32    -39369.84    2663.4278   -42033.268    471.33295    224.78612 
   94450    133.36845    17.051659    140092.79   -39390.094    2677.4724   -42067.566    472.85099    225.97145 
   94500    134.38784    71.300314    140008.61     -39393.4    2697.9375   -42091.338    473.07106    227.69865 
   94550    133.53855   -104.43898    139998.85     -39391.4    2680.8873   -42072.287    472.76273    226.25965 
   94600    130.52201    61.401398    139983.87   -39448.253    2620.3279   -42068.581    473.03297    221.14861 
   94650    131.24764   -184.32744     139921.1   -39457.109    2634.8956   -42092.005    473.89868    222.37808 
   94700    132.41472    130.57347    139810.56   -39464.628    2658.3255   -42122.954    474.45963     224.3555 
   94750    128.64241   -163.40421    139909.64   -39489.093    2582.5937   -42071.687    475.08772    217.96394 
   94800    134.25919   -99.249184    139888.72   -39457.227    2695.3547   -42152.581    475.85664    227.48066 
   94850     130.1425    41.633476    139909.89    -39491.73    2612.7091   -42104.439    475.78986     220.5056 
   94900    131.49543    -178.5021    139926.83   -39469.778    2639.8701   -42109.648    476.11538    222.79792 
   94950     133.4679    -1.462811    139941.23   -39436.613    2679.4689   -42116.082    476.28226    226.13994 
   95000    131.16904    60.593434    139947.73   -39438.638    2633.3175   -42071.955     477.1951     222.2449 
   95050    132.86853    10.301465    139964.44   -39467.499    2667.4361   -42134.936     477.7957    225.12441 
   95100    130.64272    84.821164    139980.47   -39427.783    2622.7513   -42050.534    478.13962    221.35314 
   95150    135.03079    19.301604    139970.36   -39419.209    2710.8451   -42130.054     478.7066    228.78801 
   95200    132.50566    13.382785    140060.29   -39388.382    2660.1512   -42048.534    479.40634    224.50959 
   95250    134.29686    212.15776     140110.9   -39397.847     2696.111   -42093.958    479.70674    227.54449 
   95300    133.69799    73.028101    140276.87   -39401.544    2684.0882   -42085.632    479.78102     226.5298 
   95350    135.30378    35.767732    140363.07   -39407.747    2716.3255   -42124.072    479.97841    229.25055 
   95400    134.43658   -36.912819    140257.45   -39415.658    2698.9159   -42114.574    479.96895    227.78122 
   95450    130.77427    6.4988231     140213.8   -39453.303    2625.3922   -42078.695    480.03599    221.57602 
   95500    132.03479   -51.820985    140193.29   -39459.889    2650.6982   -42110.587     479.9204    223.71178 
   95550    135.25464    29.186731     140268.9   -39424.973    2715.3392   -42140.312    480.32943     229.1673 
   95600    132.48727   -79.420668    140252.75   -39443.417     2659.782   -42103.199    479.98416    224.47843 
   95650    132.17771    26.483144    140263.63   -39464.236    2653.5674   -42117.803    479.84928    223.95393 
   95700    131.40327   -40.041239    140214.54    -39459.06      2638.02    -42097.08    479.91182    222.64177 
   95750    130.75724   -130.98695    140149.49   -39429.868    2625.0504   -42054.919    479.75195    221.54717 
   95800    132.08376    117.24296     140140.6    -39429.46    2651.6813   -42081.141    479.41948    223.79475 
   95850    134.17678   -103.54919    140199.47   -39476.525    2693.7002   -42170.225    479.17795    227.34103 
   95900    131.44829    59.045395    140041.82   -39453.584    2638.9238   -42092.508    478.80358    222.71805 
   95950    132.19345    3.4940699    140065.31   -39448.402    2653.8834   -42102.286    478.43644     223.9806 
   96000    130.83475    -13.17679    140030.91   -39416.406    2626.6065   -42043.013    478.28385     221.6785 
   96050    133.76982   -85.818855       140085   -39375.748    2685.5301   -42061.278    478.24322     226.6515 
   96100    132.44133   -56.191789    139921.43   -39418.534    2658.8598   -42077.394    478.11626    224.40059 
   96150    132.55304     12.33738    139917.57   -39416.307    2661.1024   -42077.409    478.30109    224.58986 
   96200    136.31793   -98.989391    139820.18   -39418.475    2736.6854    -42155.16    477.73536    230.96887 
   96250    134.65881    35.746011     139845.4   -39426.889    2703.3775   -42130.267    477.90236    228.15776 
   96300    133.89697   -64.548221    139690.19   -39464.375    2688.0828   -42152.457    477.87009    226.86693 
   96350    131.13197   -34.946536    139564.76   -39500.732    2632.5735   -42133.305    477.75399     222.1821 
   96400    133.88277    155.12921     139539.3   -39448.873    2687.7978   -42136.671    477.95597    226.84288 
   96450    133.11234    -130.0123    139676.02   -39409.337    2672.3307   -42081.667    477.86926     225.5375 
   96500    133.29803    115.18829    139540.26   -39440.035    2676.0587   -42116.094    477.61089    225.85213 
   96550    133.63904    100.82823    139705.12   -39485.256    2682.9047   -42168.161    478.44328    226.42992 
   96600    131.60642   -261.67939    139689.63   -39513.747    2642.0983   -42155.845    478.33001    222.98597 
   96650    131.49937    25.632766    139580.73   -39497.389    2639.9492   -42137.338    478.91633    222.80459 
   96700    132.29621   -49.969379    139606.17   -39470.703    2655.9465    -42126.65    479.47437    224.15472 
   96750    133.65482    -77.78417    139520.51   -39475.225    2683.2215   -42158.447    479.36962    226.45666 
   96800    133.37067   -37.818661    139612.91   -39488.678     2677.517   -42166.195    480.48687    225.97521 
   96850    130.20057    -9.772336    139470.04   -39500.259    2613.8747   -42114.134    480.58859    220.60398 
   96900    133.18145    -106.3289    139681.31   -39435.268    2673.7183   -42108.986    481.04276    225.65461 
   96950    132.22153    35.762434    139722.37   -39471.976    2654.4471   -42126.423    481.04301    224.02817 
   97000    134.12378     45.60701    139696.75   -39436.483    2692.6363   -42129.119     480.7935    227.25124 
   97050     133.7882    -124.3349    139478.73   -39385.494    2685.8991   -42071.393    480.52392    226.68264 
   97100    135.35551   -12.497517    139527.77   -39331.479    2717.3641   -42048.843     481.1539     229.3382 
   97150    132.00242   -58.721441    139539.86   -39348.743    2650.0483   -41998.791    481.46056    223.65692 
   97200    133.69973   -5.4494469    139504.85    -39325.44    2684.1231   -42009.563    480.67365    226.53275 
   97250    134.13212    94.168722    139458.03   -39306.748    2692.8037   -41999.552    480.49943    227.26537 
   97300    133.24286    45.006331    139523.64   -39305.639    2674.9512    -41980.59    481.22343    225.75866 
   97350    134.58732    101.13356    139551.25   -39276.347    2701.9422   -41978.289    481.30901    228.03663 
   97400    135.59498   -35.684358    139440.23   -39253.322    2722.1717   -41975.494    481.27265    229.74395 
   97450    134.83629    50.585033    139392.58   -39287.323    2706.9404   -41994.263     481.1791    228.45847 
   97500    133.43453    203.21704    139523.62   -39345.501     2678.799     -42024.3     480.5383    226.08341 
   97550    130.85411   -32.373329    139542.39   -39389.147    2626.9951   -42016.142    480.78813     221.7113 
   97600    129.85383   -68.946909    139492.47   -39427.016    2606.9137    -42033.93    480.80001    220.01649 
   97650    134.61343    110.76387    139456.38   -39452.042    2702.4664   -42154.508    480.49445    228.08087 
   97700    133.11952   -43.228292    139542.84   -39452.782    2672.4749   -42125.257    480.30492    225.54967 
   97750    133.08286   -7.2168682    139463.51   -39429.668    2671.7389   -42101.407    480.46655    225.48756 
   97800    131.92211    41.497706    139540.09   -39448.126    2648.4361   -42096.562    480.65718    223.52087 
   97850     130.2603    23.672441    139622.94   -39458.806    2615.0739    -42073.88    480.91709    220.70518 
   97900    132.95946    32.893918    139737.14   -39428.016    2669.2616   -42097.278    481.57766    225.27847 
   97950    129.75005    109.68607    139788.18   -39459.715    2604.8303   -42064.545    481.84429    219.84065 
   98000    129.91167   -76.422477    139824.52   -39477.351    2608.0749   -42085.426    482.03236    220.11448 
   98050    132.74209    139.52597    139697.26   -39405.588    2664.8978   -42070.486    481.69677    224.91019 
   98100     134.4961   -104.34533    139661.72   -39391.014    2700.1109   -42091.125    481.89115    227.88208 
   98150     129.8856   -69.062704    139582.64   -39430.656    2607.5516   -42038.207    482.55609    220.07032 
   98200    131.32451    17.789414    139683.71    -39430.06    2636.4389   -42066.499    482.48402    222.50833 
   98250    130.10846    46.009576    139740.11   -39443.211    2612.0256   -42055.236    482.98876    220.44791 
   98300    131.35554   -8.4329834    139901.31   -39398.103    2637.0618   -42035.165    483.67029     222.5609 
   98350    133.68657   -123.68462    139708.05   -39370.524    2683.8588   -42054.383     484.0766    226.51044 
   98400     132.7379    42.260762    139602.17   -39305.006    2664.8136   -41969.819      484.915    224.90308 
   98450    133.81324   -61.533788    139578.95   -39317.618    2686.4019    -42004.02    485.26155    226.72507 
   98500    134.72578    56.017831    139594.29   -39311.329    2704.7218    -42016.05     485.9873    228.27122 
   98550    134.86568   -68.620641    139570.35   -39301.649    2707.5303   -42009.179    487.15865    228.50826 
   98600    133.53214   -133.04618    139390.01   -39322.031    2680.7586    -42002.79    487.57276     226.2488 
   98650    135.92551    135.26475    139210.61   -39320.397    2728.8074   -42049.205    488.27973    230.30398 
   98700    134.21675    16.075641    139296.71   -39305.688    2694.5026   -42000.191    489.19311    227.40875 
   98750    132.21218    83.493514    139430.32   -39309.688    2654.2593   -41963.947    490.08447    224.01233 
   98800    135.61608    101.00578    139528.87   -39273.703    2722.5954   -41996.299    490.93153     229.7797 
   98850    134.94914    102.80017     139545.4   -39323.667    2709.2059   -42032.873    491.25309    228.64967 
   98900    134.25381   -183.99052    139507.77   -39313.625    2695.2468   -42008.872     492.0633    227.47156 
   98950    134.64697   -79.310377    139564.05    -39305.08    2703.1397   -42008.219    492.20631     228.1377 
   99000    133.84361   -131.35388    139399.99   -39371.908    2687.0116    -42058.92    492.70263    226.77653 
   99050    134.53357    27.805136    139395.43    -39369.65     2700.863   -42070.514    493.23291    227.94555 
   99100    135.37246   -87.340834    139462.55   -39362.639    2717.7043   -42080.343     493.9639    229.36691 
   99150     133.8366   -161.43818    139533.45   -39353.287    2686.8708   -42040.158    494.42518    226.76465 
   99200    133.50758     121.6549    139378.94   -39342.616    2680.2656   -42022.882    494.46186    226.20719 
   99250    132.39836   -13.657859    139417.81   -39403.149    2657.9971   -42061.146    495.26231    224.32779 
   99300    134.12111   -48.932278    139491.78   -39414.183    2692.5826   -42106.765    496.18129     227.2467 
   99350    132.91553   -47.675687    139352.64   -39393.635    2668.3797   -42062.015    496.25067    225.20405 
   99400     131.0725    113.25438       139504   -39392.868    2631.3796   -42024.248    496.84264    222.08134 
   99450    130.73072   -136.42695    139539.63   -39423.228     2624.518   -42047.746    497.84083    221.50224 
   99500    130.70364     8.968678    139380.19   -39421.654    2623.9744   -42045.628    498.28408    221.45636 
   99550    132.08136   -39.144055    139439.32   -39404.766    2651.6332   -42056.399     498.9069    223.79069 
   99600    131.19672    28.784709    139292.27   -39398.475    2633.8733   -42032.348     499.0883     222.2918 
   99650    130.66596   -130.48847    139192.43   -39396.472    2623.2178    -42019.69    499.10443    221.39251 
   99700    133.65551     27.13118    139236.26   -39405.421    2683.2353   -42088.657      499.525    226.45782 
   99750    134.29566    40.655725    139411.98   -39374.462    2696.0869   -42070.549    499.87946    227.54246 
   99800    132.43731    25.354364    139339.31   -39288.536    2658.7791   -41947.315    499.72987    224.39378 
   99850    134.26646     116.9197    139474.49    -39289.35    2695.5006    -41984.85    500.08415    227.49298 
   99900    134.46026    77.743453    139702.42   -39293.611    2699.3914   -41993.002    500.58162    227.82135 
   99950    131.60457   -77.697134    139666.89   -39273.151    2642.0612   -41915.212    500.94532    222.98283 
  100000     134.5216    15.706377    139735.85   -39288.892    2700.6228   -41989.515    501.29608    227.92528 
Loop time of 416.451 on 30 procs for 100000 steps with 6736 atoms

Performance: 103.734 ns/day, 0.231 hours/ns, 240.125 timesteps/s
99.6% CPU use with 30 MPI tasks x no OpenMP threads

MPI task timing breakdown:
Section |  min time  |  avg time  |  max time  |%varavg| %total
---------------------------------------------------------------
Pair    | 81.5       | 202.74     | 353.73     | 727.6 | 48.68
Neigh   | 2.7651     | 5.5117     | 15.46      | 189.1 |  1.32
Comm    | 39.661     | 152.94     | 206.74     | 452.6 | 36.73
Output  | 0.17131    | 0.17946    | 0.27738    |   4.3 |  0.04
Modify  | 5.841      | 53.641     | 124.3      | 783.1 | 12.88
Other   |            | 1.441      |            |       |  0.35

Nlocal:    224.533 ave 516 max 151 min
Histogram: 24 0 0 0 0 0 0 0 2 4
Nghost:    1449.77 ave 1841 max 990 min
Histogram: 12 0 0 0 0 0 0 0 12 6
Neighs:    0 ave 0 max 0 min
Histogram: 30 0 0 0 0 0 0 0 0 0
FullNghs:  27198.7 ave 95233 max 9765 min
Histogram: 24 0 0 0 0 0 0 0 2 4

Total # of neighbors = 815962
Ave neighs/atom = 121.135
Neighbor list builds = 6145
Dangerous builds = 0

write_data		${DIR}/data.eq-${NAME}-${TEMP}
write_data		run_7/data.eq-${NAME}-${TEMP}
write_data		run_7/data.eq-het_freeze_7-${TEMP}
write_data		run_7/data.eq-het_freeze_7-225
undump          1

reset_timestep  0

unfix           2
unfix           3
unfix           4


################################################
#######         Run Simulation         #########
################################################

log				${DIR}/log.run_${NAME}
log				run_7/log.run_${NAME}
log				run_7/log.run_het_freeze_7
