LAMMPS data file via write_data, version 16 Mar 2018, timestep = 100000

4560 atoms
2 atom types

0.0000000000000000e+00 4.9219999999999999e+01 xlo xhi
0.0000000000000000e+00 4.9019635930410494e+01 ylo yhi
1.2373288591908356e+00 3.2702671140810054e+01 zlo zhi

Masses

1 18.015
2 12.01

Atoms # atomic

147 2 0.0000000000000000e+00 2.8417180249513345e+00 3.3231510940472067e+00 0 0 0
149 2 0.0000000000000000e+00 0.0000000000000000e+00 3.3231510940472067e+00 0 0 0
151 2 1.2305000000000001e+00 7.1042950623783474e-01 3.3231510940472067e+00 0 0 0
158 2 1.2305000000000001e+00 2.1312885187134998e+00 3.3231510940472067e+00 0 0 0
160 2 2.4610000000000003e+00 2.8417180249513345e+00 3.3231510940472067e+00 0 0 0
162 2 2.4610000000000003e+00 0.0000000000000000e+00 3.3231510940472067e+00 0 0 0
164 2 3.6915000000000004e+00 7.1042950623783474e-01 3.3231510940472067e+00 0 0 0
179 2 3.6914999999999996e+00 2.1312885187134998e+00 3.3231510940472067e+00 0 0 0
181 2 4.9220000000000006e+00 2.8417180249513332e+00 3.3231510940472067e+00 0 0 0
183 2 4.9220000000000006e+00 0.0000000000000000e+00 3.3231510940472067e+00 0 0 0
185 2 6.1524999999999999e+00 7.1042950623783407e-01 3.3231510940472067e+00 0 0 0
208 2 6.1524999999999999e+00 2.1312885187134989e+00 3.3231510940472067e+00 0 0 0
210 2 7.3829999999999991e+00 2.8417180249513345e+00 3.3231510940472067e+00 0 0 0
212 2 7.3829999999999991e+00 0.0000000000000000e+00 3.3231510940472067e+00 0 0 0
214 2 8.6134999999999984e+00 7.1042950623783407e-01 3.3231510940472067e+00 0 0 0
245 2 8.6134999999999984e+00 2.1312885187135002e+00 3.3231510940472067e+00 0 0 0
247 2 9.8440000000000012e+00 2.8417180249513332e+00 3.3231510940472067e+00 0 0 0
249 2 9.8440000000000012e+00 0.0000000000000000e+00 3.3231510940472067e+00 0 0 0
251 2 1.1074500000000002e+01 7.1042950623783330e-01 3.3231510940472067e+00 0 0 0
290 2 1.1074500000000002e+01 2.1312885187135002e+00 3.3231510940472067e+00 0 0 0
154 2 0.0000000000000000e+00 4.2625770374269996e+00 3.3231510940472067e+00 0 0 0
156 2 1.2305000000000001e+00 4.9730065436648339e+00 3.3231510940472067e+00 0 0 0
171 2 1.2305000000000001e+00 6.3938655561404980e+00 3.3231510940472067e+00 0 0 0
175 2 2.4610000000000003e+00 4.2625770374269996e+00 3.3231510940472067e+00 0 0 0
177 2 3.6914999999999996e+00 4.9730065436648339e+00 3.3231510940472067e+00 0 0 0
200 2 3.6914999999999996e+00 6.3938655561404980e+00 3.3231510940472067e+00 0 0 0
152 2 0.0000000000000000e+00 7.1042950623783341e+00 3.3231510940472067e+00 0 0 0
173 2 2.4610000000000003e+00 7.1042950623783341e+00 3.3231510940472067e+00 0 0 0
204 2 4.9220000000000006e+00 4.2625770374269978e+00 3.3231510940472067e+00 0 0 0
206 2 6.1524999999999999e+00 4.9730065436648339e+00 3.3231510940472067e+00 0 0 0
237 2 6.1524999999999999e+00 6.3938655561404980e+00 3.3231510940472067e+00 0 0 0
241 2 7.3829999999999991e+00 4.2625770374269996e+00 3.3231510940472067e+00 0 0 0
202 2 4.9220000000000006e+00 7.1042950623783341e+00 3.3231510940472067e+00 0 0 0
239 2 7.3830000000000009e+00 7.1042950623783341e+00 3.3231510940472067e+00 0 0 0
243 2 8.6135000000000002e+00 4.9730065436648339e+00 3.3231510940472067e+00 0 0 0
282 2 8.6135000000000002e+00 6.3938655561404980e+00 3.3231510940472067e+00 0 0 0
286 2 9.8440000000000012e+00 4.2625770374270004e+00 3.3231510940472067e+00 0 0 0
288 2 1.1074500000000002e+01 4.9730065436648339e+00 3.3231510940472067e+00 0 0 0
329 2 1.1074500000000002e+01 6.3938655561404980e+00 3.3231510940472067e+00 0 0 0
284 2 9.8440000000000012e+00 7.1042950623783341e+00 3.3231510940472067e+00 0 0 0
167 2 0.0000000000000000e+00 8.5251540748539991e+00 3.3231510940472067e+00 0 0 0
169 2 1.2305000000000001e+00 9.2355835810918343e+00 3.3231510940472067e+00 0 0 0
196 2 2.4610000000000003e+00 8.5251540748539991e+00 3.3231510940472067e+00 0 0 0
198 2 3.6915000000000004e+00 9.2355835810918343e+00 3.3231510940472067e+00 0 0 0
165 2 0.0000000000000000e+00 1.1366872099805333e+01 3.3231510940472067e+00 0 0 0
192 2 1.2305000000000001e+00 1.0656442593567498e+01 3.3231510940472067e+00 0 0 0
194 2 2.4610000000000003e+00 1.1366872099805333e+01 3.3231510940472067e+00 0 0 0
229 2 3.6914999999999996e+00 1.0656442593567499e+01 3.3231510940472067e+00 0 0 0
233 2 4.9220000000000006e+00 8.5251540748539991e+00 3.3231510940472067e+00 0 0 0
235 2 6.1524999999999999e+00 9.2355835810918343e+00 3.3231510940472067e+00 0 0 0
278 2 7.3830000000000009e+00 8.5251540748539991e+00 3.3231510940472067e+00 0 0 0
231 2 4.9220000000000006e+00 1.1366872099805333e+01 3.3231510940472067e+00 0 0 0
274 2 6.1524999999999999e+00 1.0656442593567499e+01 3.3231510940472067e+00 0 0 0
276 2 7.3829999999999991e+00 1.1366872099805333e+01 3.3231510940472067e+00 0 0 0
280 2 8.6134999999999984e+00 9.2355835810918343e+00 3.3231510940472067e+00 0 0 0
325 2 9.8440000000000012e+00 8.5251540748539956e+00 3.3231510940472067e+00 0 0 0
327 2 1.1074500000000002e+01 9.2355835810918343e+00 3.3231510940472067e+00 0 0 0
321 2 8.6134999999999984e+00 1.0656442593567498e+01 3.3231510940472067e+00 0 0 0
323 2 9.8440000000000012e+00 1.1366872099805333e+01 3.3231510940472067e+00 0 0 0
368 2 1.1074500000000002e+01 1.0656442593567498e+01 3.3231510940472067e+00 0 0 0
370 2 1.2304999999999998e+01 1.1366872099805333e+01 3.3231510940472067e+00 0 0 0
148 2 0.0000000000000000e+00 1.4208590124756650e+00 6.3161237763572204e+00 0 0 0
150 2 0.0000000000000000e+00 0.0000000000000000e+00 6.3161237763572204e+00 0 0 0
159 2 1.2305000000000001e+00 2.1312885187134998e+00 6.3161237763572204e+00 0 0 0
161 2 2.4610000000000003e+00 1.4208590124756650e+00 6.3161237763572204e+00 0 0 0
163 2 2.4610000000000003e+00 0.0000000000000000e+00 6.3161237763572204e+00 0 0 0
180 2 3.6914999999999996e+00 2.1312885187134998e+00 6.3161237763572204e+00 0 0 0
157 2 1.2305000000000001e+00 3.5521475311891644e+00 6.3161237763572204e+00 0 0 0
178 2 3.6914999999999996e+00 3.5521475311891644e+00 6.3161237763572204e+00 0 0 0
182 2 4.9220000000000006e+00 1.4208590124756650e+00 6.3161237763572204e+00 0 0 0
184 2 4.9220000000000006e+00 0.0000000000000000e+00 6.3161237763572204e+00 0 0 0
209 2 6.1524999999999999e+00 2.1312885187134989e+00 6.3161237763572204e+00 0 0 0
211 2 7.3829999999999991e+00 1.4208590124756659e+00 6.3161237763572204e+00 0 0 0
213 2 7.3829999999999991e+00 0.0000000000000000e+00 6.3161237763572204e+00 0 0 0
207 2 6.1524999999999999e+00 3.5521475311891644e+00 6.3161237763572204e+00 0 0 0
246 2 8.6134999999999984e+00 2.1312885187135002e+00 6.3161237763572204e+00 0 0 0
248 2 9.8440000000000012e+00 1.4208590124756659e+00 6.3161237763572204e+00 0 0 0
250 2 9.8440000000000012e+00 0.0000000000000000e+00 6.3161237763572204e+00 0 0 0
291 2 1.1074500000000002e+01 2.1312885187135002e+00 6.3161237763572204e+00 0 0 0
244 2 8.6134999999999984e+00 3.5521475311891657e+00 6.3161237763572204e+00 0 0 0
289 2 1.1074500000000002e+01 3.5521475311891644e+00 6.3161237763572204e+00 0 0 0
153 2 0.0000000000000000e+00 5.6834360499026637e+00 6.3161237763572204e+00 0 0 0
155 2 0.0000000000000000e+00 4.2625770374269996e+00 6.3161237763572204e+00 0 0 0
172 2 1.2305000000000001e+00 6.3938655561404980e+00 6.3161237763572204e+00 0 0 0
174 2 2.4610000000000003e+00 5.6834360499026637e+00 6.3161237763572204e+00 0 0 0
176 2 2.4610000000000003e+00 4.2625770374269996e+00 6.3161237763572204e+00 0 0 0
201 2 3.6914999999999996e+00 6.3938655561404980e+00 6.3161237763572204e+00 0 0 0
170 2 1.2305000000000001e+00 7.8147245686161639e+00 6.3161237763572204e+00 0 0 0
199 2 3.6914999999999996e+00 7.8147245686161639e+00 6.3161237763572204e+00 0 0 0
203 2 4.9220000000000006e+00 5.6834360499026637e+00 6.3161237763572204e+00 0 0 0
205 2 4.9220000000000006e+00 4.2625770374269978e+00 6.3161237763572204e+00 0 0 0
238 2 6.1524999999999999e+00 6.3938655561404980e+00 6.3161237763572204e+00 0 0 0
240 2 7.3829999999999991e+00 5.6834360499026637e+00 6.3161237763572204e+00 0 0 0
242 2 7.3829999999999991e+00 4.2625770374269996e+00 6.3161237763572204e+00 0 0 0
236 2 6.1524999999999999e+00 7.8147245686161639e+00 6.3161237763572204e+00 0 0 0
283 2 8.6135000000000002e+00 6.3938655561404980e+00 6.3161237763572204e+00 0 0 0
285 2 9.8440000000000012e+00 5.6834360499026637e+00 6.3161237763572204e+00 0 0 0
287 2 9.8440000000000012e+00 4.2625770374270004e+00 6.3161237763572204e+00 0 0 0
330 2 1.1074500000000002e+01 6.3938655561404980e+00 6.3161237763572204e+00 0 0 0
281 2 8.6135000000000002e+00 7.8147245686161639e+00 6.3161237763572204e+00 0 0 0
328 2 1.1074500000000002e+01 7.8147245686161639e+00 6.3161237763572204e+00 0 0 0
166 2 0.0000000000000000e+00 9.9460130873296642e+00 6.3161237763572204e+00 0 0 0
168 2 0.0000000000000000e+00 8.5251540748539991e+00 6.3161237763572204e+00 0 0 0
195 2 2.4610000000000003e+00 9.9460130873296642e+00 6.3161237763572204e+00 0 0 0
197 2 2.4610000000000003e+00 8.5251540748539991e+00 6.3161237763572204e+00 0 0 0
191 2 1.2305000000000001e+00 1.2077301606043163e+01 6.3161237763572204e+00 0 0 0
193 2 1.2305000000000001e+00 1.0656442593567498e+01 6.3161237763572204e+00 0 0 0
228 2 3.6914999999999996e+00 1.2077301606043163e+01 6.3161237763572204e+00 0 0 0
230 2 3.6914999999999996e+00 1.0656442593567499e+01 6.3161237763572204e+00 0 0 0
232 2 4.9220000000000006e+00 9.9460130873296642e+00 6.3161237763572204e+00 0 0 0
234 2 4.9220000000000006e+00 8.5251540748539991e+00 6.3161237763572204e+00 0 0 0
277 2 7.3830000000000009e+00 9.9460130873296642e+00 6.3161237763572204e+00 0 0 0
279 2 7.3830000000000009e+00 8.5251540748539991e+00 6.3161237763572204e+00 0 0 0
273 2 6.1524999999999999e+00 1.2077301606043163e+01 6.3161237763572204e+00 0 0 0
275 2 6.1524999999999999e+00 1.0656442593567499e+01 6.3161237763572204e+00 0 0 0
326 2 9.8440000000000012e+00 8.5251540748539956e+00 6.3161237763572204e+00 0 0 0
320 2 8.6135000000000002e+00 1.2077301606043163e+01 6.3161237763572204e+00 0 0 0
322 2 8.6134999999999984e+00 1.0656442593567498e+01 6.3161237763572204e+00 0 0 0
367 2 1.1074500000000002e+01 1.2077301606043163e+01 6.3161237763572204e+00 0 0 0
369 2 1.1074500000000002e+01 1.0656442593567498e+01 6.3161237763572204e+00 0 0 0
324 2 9.8440000000000012e+00 9.9460130873296642e+00 6.3161237763572204e+00 0 0 0
476 2 0.0000000000000000e+00 2.8417180249513345e+00 9.3090964586666551e+00 0 0 0
477 2 0.0000000000000000e+00 0.0000000000000000e+00 9.3090964586666551e+00 0 0 0
478 2 1.2305000000000001e+00 7.1042950623783474e-01 9.3090964586666551e+00 0 0 0
482 2 1.2305000000000001e+00 2.1312885187134998e+00 9.3090964586666551e+00 0 0 0
483 2 2.4610000000000003e+00 2.8417180249513345e+00 9.3090964586666551e+00 0 0 0
484 2 2.4610000000000003e+00 0.0000000000000000e+00 9.3090964586666551e+00 0 0 0
485 2 3.6915000000000004e+00 7.1042950623783474e-01 9.3090964586666551e+00 0 0 0
493 2 3.6914999999999996e+00 2.1312885187134998e+00 9.3090964586666551e+00 0 0 0
4388 1 4.1888550389825756e+00 4.6604388068625875e+00 1.6621865496873689e+01 1 0 0
2255 1 4.1448460678748527e+00 3.7030935922173218e+00 1.2215920780837063e+01 1 1 0
494 2 4.9220000000000006e+00 2.8417180249513332e+00 9.3090964586666551e+00 0 0 0
495 2 4.9220000000000006e+00 0.0000000000000000e+00 9.3090964586666551e+00 0 0 0
496 2 6.1524999999999999e+00 7.1042950623783407e-01 9.3090964586666551e+00 0 0 0
508 2 6.1524999999999999e+00 2.1312885187134989e+00 9.3090964586666551e+00 0 0 0
509 2 7.3829999999999991e+00 2.8417180249513345e+00 9.3090964586666551e+00 0 0 0
510 2 7.3829999999999991e+00 0.0000000000000000e+00 9.3090964586666551e+00 0 0 0
4275 1 9.6196404698994620e+00 1.1255354919073197e+01 1.4706985811915898e+01 1 1 0
511 2 8.6134999999999984e+00 7.1042950623783407e-01 9.3090964586666551e+00 0 0 0
527 2 8.6134999999999984e+00 2.1312885187135002e+00 9.3090964586666551e+00 0 0 0
528 2 9.8440000000000012e+00 2.8417180249513332e+00 9.3090964586666551e+00 0 0 0
529 2 9.8440000000000012e+00 0.0000000000000000e+00 9.3090964586666551e+00 0 0 0
530 2 1.1074500000000002e+01 7.1042950623783330e-01 9.3090964586666551e+00 0 0 0
550 2 1.1074500000000002e+01 2.1312885187135002e+00 9.3090964586666551e+00 0 0 0
878 1 1.1189536367685715e+01 2.3865093459828275e+00 1.2178535011239580e+01 -1 0 0
480 2 0.0000000000000000e+00 4.2625770374269996e+00 9.3090964586666551e+00 0 0 0
481 2 1.2305000000000001e+00 4.9730065436648339e+00 9.3090964586666551e+00 0 0 0
489 2 1.2305000000000001e+00 6.3938655561404980e+00 9.3090964586666551e+00 0 0 0
491 2 2.4610000000000003e+00 4.2625770374269996e+00 9.3090964586666551e+00 0 0 0
492 2 3.6914999999999996e+00 4.9730065436648339e+00 9.3090964586666551e+00 0 0 0
504 2 3.6914999999999996e+00 6.3938655561404980e+00 9.3090964586666551e+00 0 0 0
479 2 0.0000000000000000e+00 7.1042950623783341e+00 9.3090964586666551e+00 0 0 0
490 2 2.4610000000000003e+00 7.1042950623783341e+00 9.3090964586666551e+00 0 0 0
1249 1 4.6201705838882310e+00 6.8641667472114101e+00 1.2113745939638374e+01 0 0 0
1264 1 9.3747973458641329e+00 4.2052339552745499e+00 1.1677812983774857e+01 0 1 0
506 2 4.9220000000000006e+00 4.2625770374269978e+00 9.3090964586666551e+00 0 0 0
507 2 6.1524999999999999e+00 4.9730065436648339e+00 9.3090964586666551e+00 0 0 0
523 2 6.1524999999999999e+00 6.3938655561404980e+00 9.3090964586666551e+00 0 0 0
525 2 7.3829999999999991e+00 4.2625770374269996e+00 9.3090964586666551e+00 0 0 0
505 2 4.9220000000000006e+00 7.1042950623783341e+00 9.3090964586666551e+00 0 0 0
524 2 7.3830000000000009e+00 7.1042950623783341e+00 9.3090964586666551e+00 0 0 0
4253 1 7.2696409759252107e+00 8.0899607570898500e+00 1.2242567694092575e+01 1 1 -1
879 1 5.6550898935880154e+00 1.0373949672707301e+01 1.2517597117635958e+01 1 1 0
1243 1 1.1787053244102109e+01 5.8166955567920242e+00 1.1684028750743369e+01 -1 1 1
526 2 8.6135000000000002e+00 4.9730065436648339e+00 9.3090964586666551e+00 0 0 0
546 2 8.6135000000000002e+00 6.3938655561404980e+00 9.3090964586666551e+00 0 0 0
548 2 9.8440000000000012e+00 4.2625770374270004e+00 9.3090964586666551e+00 0 0 0
549 2 1.1074500000000002e+01 4.9730065436648339e+00 9.3090964586666551e+00 0 0 0
570 2 1.1074500000000002e+01 6.3938655561404980e+00 9.3090964586666551e+00 0 0 0
547 2 9.8440000000000012e+00 7.1042950623783341e+00 9.3090964586666551e+00 0 0 0
4498 1 1.0903943319984055e+01 8.3221498292806455e+00 1.2771931241585305e+01 0 1 0
2074 1 1.8926059923397289e+00 7.7216020719141314e+00 1.1589510706402816e+01 1 -1 0
487 2 0.0000000000000000e+00 8.5251540748539991e+00 9.3090964586666551e+00 0 0 0
488 2 1.2305000000000001e+00 9.2355835810918343e+00 9.3090964586666551e+00 0 0 0
502 2 2.4610000000000003e+00 8.5251540748539991e+00 9.3090964586666551e+00 0 0 0
503 2 3.6915000000000004e+00 9.2355835810918343e+00 9.3090964586666551e+00 0 0 0
486 2 0.0000000000000000e+00 1.1366872099805333e+01 9.3090964586666551e+00 0 0 0
500 2 1.2305000000000001e+00 1.0656442593567498e+01 9.3090964586666551e+00 0 0 0
501 2 2.4610000000000003e+00 1.1366872099805333e+01 9.3090964586666551e+00 0 0 0
519 2 3.6914999999999996e+00 1.0656442593567499e+01 9.3090964586666551e+00 0 0 0
2088 1 2.7158192085174484e+00 1.0659104543086240e+01 1.2264749680887849e+01 1 -1 0
521 2 4.9220000000000006e+00 8.5251540748539991e+00 9.3090964586666551e+00 0 0 0
522 2 6.1524999999999999e+00 9.2355835810918343e+00 9.3090964586666551e+00 0 0 0
544 2 7.3830000000000009e+00 8.5251540748539991e+00 9.3090964586666551e+00 0 0 0
520 2 4.9220000000000006e+00 1.1366872099805333e+01 9.3090964586666551e+00 0 0 0
542 2 6.1524999999999999e+00 1.0656442593567499e+01 9.3090964586666551e+00 0 0 0
543 2 7.3829999999999991e+00 1.1366872099805333e+01 9.3090964586666551e+00 0 0 0
3295 1 5.7183551755611521e+00 1.0745861416918197e+01 1.5213338618956966e+01 0 0 0
3416 1 1.1664910755090895e+01 5.5023041649305444e+00 1.4544764665980036e+01 0 -1 0
545 2 8.6134999999999984e+00 9.2355835810918343e+00 9.3090964586666551e+00 0 0 0
568 2 9.8440000000000012e+00 8.5251540748539956e+00 9.3090964586666551e+00 0 0 0
569 2 1.1074500000000002e+01 9.2355835810918343e+00 9.3090964586666551e+00 0 0 0
566 2 8.6134999999999984e+00 1.0656442593567498e+01 9.3090964586666551e+00 0 0 0
567 2 9.8440000000000012e+00 1.1366872099805333e+01 9.3090964586666551e+00 0 0 0
590 2 1.1074500000000002e+01 1.0656442593567498e+01 9.3090964586666551e+00 0 0 0
591 2 1.2304999999999998e+01 1.1366872099805333e+01 9.3090964586666551e+00 0 0 0
978 1 9.6989231729306074e+00 1.0835912449665759e+01 1.1820995030380921e+01 0 0 0
3433 1 1.4683249852417211e+00 3.0064910128316047e+00 1.1940334674309566e+01 0 0 -1
2366 1 6.9328893634157627e+00 2.7304276814182371e+00 1.1611155961747709e+01 0 0 0
889 1 4.1685056901556994e+00 2.3773418251604919e+00 1.4798612409540519e+01 1 0 0
2394 1 2.4002349181797475e+00 9.6709744452442141e+00 1.4911763560781026e+01 1 0 0
942 1 7.0236434172209288e+00 3.2798019522040907e+00 1.4445403320739633e+01 0 0 0
2020 1 1.1298578516692652e+00 2.5362069536104745e+00 1.4699744203116213e+01 0 1 0
133 1 4.1996784342914752e+00 7.6547754655437341e+00 1.5121228390898384e+01 1 0 0
865 1 8.8991800838156880e+00 8.1110554679448068e+00 1.4579401293565562e+01 1 0 -1
2381 1 1.1998761595487409e+01 2.5427462328391770e+00 1.4734163139974660e+01 0 1 0
105 1 8.8294737130880421e+00 5.4231887980238955e+00 1.4198861050747643e+01 0 1 0
3504 1 3.4372069896821000e+00 1.1587885358699079e+01 1.6345040636951339e+01 1 0 0
1966 1 1.4218561363598285e+00 2.3650220574116243e-01 1.1782622246096230e+01 -1 0 0
3153 1 9.7466339900885952e+00 1.3755465268673106e-02 1.2083506571558688e+01 1 0 -1
2135 1 3.0011154778754978e+00 3.0037599416430631e+00 2.1560565400427542e+01 0 1 0
28 1 5.3740904266065641e+00 4.0449370432899219e+00 2.1492450441485694e+01 0 1 0
3281 1 7.2136984636792647e+00 1.6711026445089927e+00 1.7212013279899402e+01 0 1 0
1004 1 6.0675210639165869e+00 3.9039030629297931e+00 1.8814073795541038e+01 0 1 0
1128 1 9.8149438000811031e+00 1.0931866451073788e+01 2.3048831778454215e+01 0 1 0
1260 1 2.4300642262469494e+00 5.0060377002965062e+00 1.9179985819775052e+01 1 1 0
4421 1 1.1357663580543946e+01 1.0430018655393022e+01 1.9147661972315003e+01 1 1 0
3411 1 3.4677027582345290e+00 9.8677651797643815e+00 2.1470467092699678e+01 1 0 0
1113 1 3.7150242939941709e+00 7.4441449016559726e+00 1.9985888644722316e+01 0 0 0
3185 1 7.9432046990704013e+00 7.1104663045769856e+00 2.1000760569555069e+01 -1 0 0
2223 1 7.0415418234561056e+00 9.5363991045330110e+00 1.7582183928800532e+01 0 0 0
854 1 3.2690889614822094e+00 3.0779027738539422e-01 2.2915051388258110e+01 0 0 -1
916 1 1.0840402024160547e+01 4.1537545155306582e-01 1.9632957339013338e+01 0 0 0
122 1 2.4609106454675675e+00 1.0482195062578164e+01 1.8723826654171550e+01 1 1 0
83 1 9.6664698786450636e+00 9.3740697992015036e+00 1.7125670361872594e+01 1 0 0
1222 1 6.5344617717495028e+00 1.1944859180727653e+01 1.9238472815583311e+01 -1 0 0
3180 1 5.6581075222842225e-01 7.3279153376940762e+00 2.0242688338344024e+01 0 1 0
1162 1 8.4863236483282414e+00 9.8014555918347721e+00 2.0671396077809060e+01 1 1 0
1214 1 1.1827394722323225e+01 8.8359881089319785e+00 2.3118356873975415e+01 0 1 0
2122 1 1.4068031461766362e+00 3.8607620098677029e+00 2.3519163318945289e+01 1 0 -1
2387 1 5.3501398953625117e+00 7.5669787535137321e+00 1.7742946069205573e+01 1 0 0
4396 1 7.0492126967743500e+00 9.4568351352983748e-01 2.0047903252439323e+01 0 0 1
2003 1 6.3486216176735129e+00 3.1300093499311168e+00 2.3778960207255622e+01 0 0 0
958 1 9.2929268542234471e+00 2.9670324083435475e+00 2.3155077813917824e+01 0 0 0
1272 1 1.0167630517701037e+01 1.5002940489249061e+00 1.7079160688610344e+01 0 -1 0
933 1 6.8535714762377320e-01 2.4203032922270169e+00 1.9692003587757711e+01 1 0 0
2328 1 7.6910262504442741e+00 6.1798126282421180e+00 1.8634011744539446e+01 0 0 0
79 1 5.8616312458216742e+00 1.1071491788600460e+01 2.1805237476730944e+01 1 0 0
2099 1 5.4295445531612918e+00 6.7847384620493481e+00 2.2002739871882781e+01 0 1 0
1242 1 1.0239962526090901e+01 5.2872514482758257e+00 2.1844129720452827e+01 0 1 0
4483 1 9.8946860736226423e+00 7.0608135269003922e+00 2.3883876484409264e+01 1 0 -1
1307 1 1.0518476944651074e+00 1.0871256822939255e+01 2.2962835389334320e+01 0 0 0
1151 1 3.7019512314379703e+00 7.2183584302985215e+00 2.4263874390935463e+01 0 0 0
3290 1 9.2062481409996639e+00 5.6330509015531416e-01 2.1865782752075397e+01 0 2 0
2279 1 1.3171491211947979e+00 6.5730968477929039e+00 2.2898575032785423e+01 1 0 -1
2330 1 7.2859197972270842e+00 7.9639407259629555e+00 2.4425578671098251e+01 1 0 0
4470 1 1.1721003470402904e+01 6.1094050922205296e+00 1.9522261701234836e+01 0 0 0
93 1 7.0151153506215005e+00 1.0886835765669973e+01 2.4375632330972834e+01 1 0 0
3298 1 8.5822075272032916e-01 9.9553531131880618e-02 1.8122482780708488e+01 1 -1 0
2280 1 1.0083886480967417e+01 6.3570833501017603e+00 1.7504993870382531e+01 1 0 -1
883 1 4.0560662294941152e-01 8.6744184054118367e+00 2.4703020567488966e+01 0 0 0
3402 1 3.1516277256806595e+00 5.0338996915865470e+00 2.5975635363791092e+01 0 0 0
2097 1 5.2146477505877464e-01 2.5372834934670800e+00 2.6245253666641311e+01 0 0 -1
2253 1 3.0141256865643666e+00 2.1682518137620708e+00 2.7379240560697891e+01 0 2 -1
1237 1 1.0609064971013632e+01 1.0126903488593133e+01 3.2169841461667303e+01 1 1 1
4234 1 5.8483380158696638e+00 4.2372777214004360e+00 2.6468322186731370e+01 1 0 -1
2039 1 1.0916886512730985e+01 2.4765278731210731e+00 2.9291968301635805e+01 0 1 0
4289 1 5.6140042206324523e+00 1.1229028774902652e+01 3.2107672870671749e+01 1 -1 0
1234 1 8.5875096336243413e+00 1.2086934567113452e+01 3.1745487202668368e+01 0 0 1
2184 1 7.4604805023435521e+00 6.4112490913103564e+00 2.7107927622026619e+01 1 0 0
4294 1 2.3699311373578129e+00 6.1926436916068681e+00 2.8113492737470619e+01 1 0 0
3460 1 1.0601900912173880e+01 5.3759361089538356e+00 2.6140521703399411e+01 1 0 0
3217 1 9.3496413357460053e+00 4.7050413845053818e+00 2.8888022824430013e+01 0 -1 -1
1036 1 5.4378100275945789e+00 1.1115403761178698e+01 2.9402842394527866e+01 1 1 -1
1252 1 2.1345671077772064e+00 1.0776045724779683e+01 2.9605431059206985e+01 0 0 0
3562 1 5.3957659221190788e+00 8.7339207431583503e+00 2.6443223074886827e+01 0 -1 0
3424 1 3.6661232313633225e+00 1.0792195422567776e+01 2.6858927959627795e+01 1 0 0
2054 1 7.2263889185396053e+00 2.2803961193320585e+00 3.2030371648535819e+01 0 1 0
1098 1 6.6229641903153587e+00 8.2760981780487466e+00 2.9296530929822168e+01 0 1 0
2170 1 1.1577878819326235e+01 4.0021586695488329e+00 3.2107612242579194e+01 -1 -1 -1
144 1 1.1752980286381963e+01 1.3322615939497933e+00 3.1780311825487406e+01 0 1 0
4322 1 4.5228723878635790e-01 2.1469127163805370e+00 3.1193842276804052e+01 1 1 -1
1033 1 4.5260968973040674e+00 3.5420279311301619e+00 2.9495399921146976e+01 1 1 -1
2257 1 7.1510778348372970e+00 2.7906904884890471e+00 2.9182126025926856e+01 0 1 0
938 1 4.6140573927701478e+00 1.9697105281908625e+00 3.2179388549496053e+01 1 0 0
3293 1 1.7418261409392077e-01 8.7866828934731345e+00 2.9549210910804913e+01 2 1 -1
141 1 3.0092952473234873e+00 1.1746272302852157e+01 3.2392891588477241e+01 0 0 0
4428 1 1.4499610582383102e+00 8.7828230223944210e+00 3.2361044580854866e+01 0 1 0
3366 1 8.9786247226951623e+00 1.3874145506202834e-01 3.2368277385811098e+01 1 0 0
4512 1 3.8547932410732839e+00 7.0549918560442730e+00 3.2222809262839391e+01 1 0 0
2224 1 4.4689339213265447e+00 6.4844122735401566e+00 2.9729255103677779e+01 0 0 -1
3459 1 6.3431926721273637e+00 8.8267496353159967e+00 3.2133316149603843e+01 1 1 0
4423 1 9.0756071114726442e+00 7.7639863118470318e+00 3.2189020934193593e+01 1 -1 0
2327 1 9.5292043817107288e+00 7.7465656086572325e+00 2.9744104112392350e+01 1 0 0
3309 1 9.0663073841215738e+00 4.7695231987724709e+00 3.1789893318761045e+01 -1 1 0
1285 1 1.0561762732320123e+01 5.9465944316377395e-01 2.6875085724677756e+01 0 0 0
948 1 1.9395648466529343e+00 8.6488330470167725e+00 2.6889454657230889e+01 0 0 0
3204 1 4.1667078105104514e+00 2.9927956104859987e-01 2.6000088716859327e+01 0 1 -1
2354 1 2.5847795010403236e+00 4.1769774115687559e+00 3.2237502824890285e+01 0 1 0
3481 1 5.3888386256175469e-01 6.0758927786095951e+00 3.2099303996531184e+01 1 0 -1
844 1 8.0732262512815556e+00 4.4091098141108687e-01 2.8230860436751620e+01 0 0 0
2116 1 1.1142359057397497e+01 2.6991796022595693e+00 2.5295624076891219e+01 1 1 0
1020 1 1.1720562574044219e+01 1.2036402528803036e+01 2.6390069242455947e+01 0 0 -1
4558 1 7.8051424585559914e-02 5.5293507246992482e+00 2.9574868019328772e+01 0 0 -1
188 2 0.0000000000000000e+00 1.2787731112280996e+01 3.3231510940472067e+00 0 0 0
190 2 1.2305000000000001e+00 1.3498160618518829e+01 3.3231510940472067e+00 0 0 0
225 2 2.4610000000000003e+00 1.2787731112280996e+01 3.3231510940472067e+00 0 0 0
227 2 3.6915000000000004e+00 1.3498160618518829e+01 3.3231510940472067e+00 0 0 0
186 2 0.0000000000000000e+00 1.5629449137232333e+01 3.3231510940472067e+00 0 0 0
221 2 1.2305000000000001e+00 1.4919019630994494e+01 3.3231510940472067e+00 0 0 0
223 2 2.4610000000000003e+00 1.5629449137232328e+01 3.3231510940472067e+00 0 0 0
266 2 3.6915000000000004e+00 1.4919019630994494e+01 3.3231510940472067e+00 0 0 0
270 2 4.9220000000000006e+00 1.2787731112280996e+01 3.3231510940472067e+00 0 0 0
272 2 6.1524999999999990e+00 1.3498160618518829e+01 3.3231510940472067e+00 0 0 0
317 2 7.3829999999999991e+00 1.2787731112280996e+01 3.3231510940472067e+00 0 0 0
268 2 4.9220000000000006e+00 1.5629449137232333e+01 3.3231510940472067e+00 0 0 0
313 2 6.1524999999999990e+00 1.4919019630994494e+01 3.3231510940472067e+00 0 0 0
315 2 7.3829999999999991e+00 1.5629449137232333e+01 3.3231510940472067e+00 0 0 0
319 2 8.6135000000000002e+00 1.3498160618518835e+01 3.3231510940472067e+00 0 0 0
364 2 9.8440000000000012e+00 1.2787731112280996e+01 3.3231510940472067e+00 0 0 0
366 2 1.1074500000000002e+01 1.3498160618518829e+01 3.3231510940472067e+00 0 0 0
360 2 8.6135000000000002e+00 1.4919019630994494e+01 3.3231510940472067e+00 0 0 0
362 2 9.8440000000000012e+00 1.5629449137232328e+01 3.3231510940472067e+00 0 0 0
402 2 1.1074500000000002e+01 1.4919019630994494e+01 3.3231510940472067e+00 0 0 0
217 2 0.0000000000000000e+00 1.7050308149707998e+01 3.3231510940472067e+00 0 0 0
262 2 2.4610000000000003e+00 1.7050308149707998e+01 3.3231510940472067e+00 0 0 0
215 2 0.0000000000000000e+00 1.9892026174659328e+01 3.3231510940472067e+00 0 0 0
219 2 1.2305000000000001e+00 1.7760737655945832e+01 3.3231510940472067e+00 0 0 0
258 2 1.2305000000000001e+00 1.9181596668421495e+01 3.3231510940472067e+00 0 0 0
260 2 2.4610000000000003e+00 1.9892026174659328e+01 3.3231510940472067e+00 0 0 0
264 2 3.6914999999999996e+00 1.7760737655945832e+01 3.3231510940472067e+00 0 0 0
305 2 3.6914999999999996e+00 1.9181596668421495e+01 3.3231510940472067e+00 0 0 0
309 2 4.9220000000000006e+00 1.7050308149707998e+01 3.3231510940472067e+00 0 0 0
356 2 7.3830000000000009e+00 1.7050308149707998e+01 3.3231510940472067e+00 0 0 0
307 2 4.9220000000000006e+00 1.9892026174659328e+01 3.3231510940472067e+00 0 0 0
311 2 6.1524999999999999e+00 1.7760737655945832e+01 3.3231510940472067e+00 0 0 0
352 2 6.1524999999999999e+00 1.9181596668421495e+01 3.3231510940472067e+00 0 0 0
354 2 7.3829999999999991e+00 1.9892026174659328e+01 3.3231510940472067e+00 0 0 0
398 2 9.8440000000000012e+00 1.7050308149707998e+01 3.3231510940472067e+00 0 0 0
432 2 1.2304999999999998e+01 1.7050308149707998e+01 3.3231510940472067e+00 0 0 0
358 2 8.6134999999999984e+00 1.7760737655945832e+01 3.3231510940472067e+00 0 0 0
394 2 8.6135000000000002e+00 1.9181596668421495e+01 3.3231510940472067e+00 0 0 0
396 2 9.8440000000000012e+00 1.9892026174659335e+01 3.3231510940472067e+00 0 0 0
400 2 1.1074500000000002e+01 1.7760737655945835e+01 3.3231510940472067e+00 0 0 0
428 2 1.1074500000000002e+01 1.9181596668421495e+01 3.3231510940472067e+00 0 0 0
252 2 0.0000000000000000e+00 2.4154603212086325e+01 3.3231510940472067e+00 0 0 0
254 2 0.0000000000000000e+00 2.1312885187134999e+01 3.3231510940472067e+00 0 0 0
256 2 1.2304999999999993e+00 2.2023314693372832e+01 3.3231510940472067e+00 0 0 0
297 2 1.2304999999999993e+00 2.3444173705848499e+01 3.3231510940472067e+00 0 0 0
299 2 2.4610000000000003e+00 2.4154603212086325e+01 3.3231510940472067e+00 0 0 0
301 2 2.4610000000000003e+00 2.1312885187134995e+01 3.3231510940472067e+00 0 0 0
303 2 3.6914999999999996e+00 2.2023314693372832e+01 3.3231510940472067e+00 0 0 0
344 2 3.6915000000000004e+00 2.3444173705848499e+01 3.3231510940472067e+00 0 0 0
346 2 4.9220000000000006e+00 2.4154603212086325e+01 3.3231510940472067e+00 0 0 0
348 2 4.9220000000000006e+00 2.1312885187134995e+01 3.3231510940472067e+00 0 0 0
350 2 6.1524999999999990e+00 2.2023314693372832e+01 3.3231510940472067e+00 0 0 0
386 2 6.1524999999999999e+00 2.3444173705848499e+01 3.3231510940472067e+00 0 0 0
388 2 7.3830000000000009e+00 2.4154603212086336e+01 3.3231510940472067e+00 0 0 0
390 2 7.3829999999999991e+00 2.1312885187134999e+01 3.3231510940472067e+00 0 0 0
392 2 8.6135000000000002e+00 2.2023314693372832e+01 3.3231510940472067e+00 0 0 0
420 2 8.6134999999999984e+00 2.3444173705848499e+01 3.3231510940472067e+00 0 0 0
422 2 9.8440000000000012e+00 2.4154603212086336e+01 3.3231510940472067e+00 0 0 0
424 2 9.8440000000000012e+00 2.1312885187134999e+01 3.3231510940472067e+00 0 0 0
426 2 1.1074500000000002e+01 2.2023314693372832e+01 3.3231510940472067e+00 0 0 0
446 2 1.1074500000000002e+01 2.3444173705848499e+01 3.3231510940472067e+00 0 0 0
189 2 0.0000000000000000e+00 1.2787731112280996e+01 6.3161237763572204e+00 0 0 0
226 2 2.4610000000000003e+00 1.2787731112280996e+01 6.3161237763572204e+00 0 0 0
187 2 0.0000000000000000e+00 1.4208590124756663e+01 6.3161237763572204e+00 0 0 0
222 2 1.2305000000000001e+00 1.4919019630994494e+01 6.3161237763572204e+00 0 0 0
224 2 2.4610000000000003e+00 1.4208590124756663e+01 6.3161237763572204e+00 0 0 0
267 2 3.6915000000000004e+00 1.4919019630994494e+01 6.3161237763572204e+00 0 0 0
271 2 4.9220000000000006e+00 1.2787731112280996e+01 6.3161237763572204e+00 0 0 0
318 2 7.3829999999999991e+00 1.2787731112280996e+01 6.3161237763572204e+00 0 0 0
269 2 4.9220000000000006e+00 1.4208590124756663e+01 6.3161237763572204e+00 0 0 0
314 2 6.1524999999999990e+00 1.4919019630994494e+01 6.3161237763572204e+00 0 0 0