LAMMPS data file via write_data, version 16 Mar 2018, timestep = 100000

6736 atoms
2 atom types

3.0745914907618754e-01 4.8912540850922412e+01 xlo xhi
3.0620754878555445e-01 4.8713428381625292e+01 ylo yhi
3.3581644403481548e-01 5.9726183555964681e+01 zlo zhi

Masses

1 18.015
2 12.01

Atoms # atomic

2608 1 1.5081661097841213e+01 9.7785164496898584e+00 5.4876767181889807e-01 -2 -1 1
4604 1 7.5221894175291260e+00 7.2406740380870804e-01 1.7292223463173948e+00 1 -1 0
913 1 1.2728777378711651e+00 1.2480297491398158e+01 6.3385652184905639e-01 1 1 1
3673 1 8.8931793914835264e+00 3.3337812494917451e+00 8.3078033571242860e-01 0 1 0
2710 1 1.0999215395992357e+00 3.6199322897373953e+00 1.7874729243645588e+00 0 0 1
1233 1 1.3328669186720068e+01 1.2480055865450357e+00 2.2415332540472694e+00 0 -1 1
848 1 4.4109065261821554e+00 1.0750910692062359e+00 4.9244082562984230e+00 1 0 1
3451 1 1.5455249104825253e+01 5.6881378450315445e+00 1.7622711200031644e+00 1 1 0
108 1 5.3515268032632939e+00 8.1300665063774389e+00 1.7356023077289697e+00 0 1 0
3589 1 1.5494124012190358e+01 2.2222594099763313e+01 4.8431691019057572e+00 0 -2 0
3784 1 4.7393279596603266e-01 2.3309585124050844e+01 3.8637571299413498e+00 0 1 0
5949 1 9.6364208230774757e+00 2.2966848302149568e+01 3.3439588245519900e+00 0 0 1
6162 1 6.7750195981630643e+00 6.4887532507422216e+00 3.5233414380378152e+00 1 0 1
432 1 1.5118609759156177e+01 7.7567662950484695e-01 8.4156445837549505e+00 0 0 0
82 1 8.9808502131990480e+00 6.2456697630918825e+00 1.2756388928562088e+00 1 0 0
5443 1 1.3160491245818974e+01 7.6673500843665217e+00 1.8429683327459938e+00 1 0 0
167 1 1.1646878339224688e+01 1.8247734646771892e+01 8.3800418957985627e+00 1 0 0
1146 1 1.5443015183623908e+01 5.1117245155232345e+00 1.0386241586721477e+01 1 2 1
886 1 2.5816404170702447e+00 1.0914558307724993e+01 2.2278033586940071e+00 0 -1 1
3758 1 3.7171825484724845e+00 2.3846722305858968e+01 1.1611887240373109e+01 1 0 0
1204 1 4.9235717379062365e+00 1.1627938712049893e+01 1.3007514339067994e+00 1 1 0
5903 1 6.8782400564429720e+00 1.0868902727658417e+01 2.8901499630821612e+00 1 1 0
2702 1 9.0338014371193243e+00 1.0215523070747073e+01 1.7083068579450118e+00 2 0 1
5524 1 1.0839017956769261e+01 9.9515309248384405e+00 3.5916731204811159e+00 0 1 0
2593 1 1.3804739161612053e+01 1.4636665799399349e+01 1.2116230472983149e+01 1 1 1
4440 1 1.2453387319316892e+01 1.4120350430326205e+01 1.9467572483346449e+00 0 1 1
4236 1 2.8964999915570884e+00 1.4596576797801802e+01 3.4131348277266107e+00 1 1 1
3679 1 1.6197583099562543e+01 5.1431277372399631e+00 5.8822865698080138e+00 1 1 0
4156 1 5.0633060620768084e+00 1.4311559394367601e+01 1.5189167227726601e+00 1 -2 1
3416 1 7.0961852684005606e+00 1.5176030510363558e+01 3.4926541221529228e+00 -1 0 1
4264 1 1.4165200049501813e+01 1.6476931028267654e+01 1.7385839629083342e+00 1 1 1
5440 1 9.5237703279727413e+00 1.6245705435129764e+01 3.6142581956294637e+00 1 1 0
3744 1 1.1346747017750104e+01 1.4307258922828082e+01 4.5575680343745439e+00 1 0 0
2036 1 1.7112689212012275e+00 1.5066754765537453e+01 1.0549601407322566e+00 1 -1 1
2104 1 1.3673542255370869e+01 1.2553892747834963e+01 6.1131436958004333e+00 0 0 0
6299 1 4.6769177459074971e+00 1.8495212788158309e+01 2.2976856876490395e+00 -1 0 0
5216 1 1.3547275052754578e+01 1.0188432850342895e+01 4.1716431353984245e+00 0 0 0
1199 1 6.3044897367840642e+00 2.0291521608091482e+01 3.6182001545285818e+00 1 0 0
5157 1 1.1649243301615247e+01 1.9315366624335589e+01 3.3595539771331540e+00 1 0 0
6022 1 1.0068532836881163e+01 1.7907161551793216e+01 1.7826966904521293e+00 1 2 1
4499 1 1.5666053300665613e+01 1.7625975825206144e+01 3.9045983459871620e+00 0 1 1
5084 1 7.5611052147292679e-01 1.7386915352057571e+01 8.9846646497196438e+00 0 0 0
2904 1 5.0941378413414915e+00 2.4044382015024375e+01 8.2841184478186722e+00 0 0 1
230 1 4.6170989085897931e+00 2.2819589576763530e+01 3.4795358519261352e+00 0 0 0
120 1 1.1898072403867673e+01 2.4480713752619138e+01 8.9092458947745286e+00 -1 -1 0
5277 1 7.8964043307687284e+00 1.9585305228068627e+01 1.2988435349544596e+00 0 0 1
2199 1 1.1269577148504295e+01 2.1484486765369457e+01 5.3224936045100293e+00 1 -1 0
4459 1 1.1750388849194874e+01 2.3120396680348371e+01 1.4370440364616417e+00 0 1 1
5232 1 1.3286443496738514e+01 2.0777042190557413e+01 1.4734558084411269e+00 1 0 1
243 1 1.3095015565233791e+01 2.3698106851761974e+01 4.9380414466562614e+00 1 0 0
962 1 5.1511761912286858e-01 1.8952821623798361e+01 6.8993237739377680e+00 1 0 0
4316 1 6.0932110892918012e-01 1.0364982009379654e+01 5.5297673105862186e+00 0 -1 1
5289 1 3.3056808808105838e+00 3.0062347598448462e+00 6.4099133300114328e+00 1 1 0
153 1 1.3282534557600099e+01 2.2478531639269363e+01 1.0910541715461614e+01 0 0 0
792 1 6.5603721260851495e+00 2.2147498417953990e+00 8.6639995634212372e+00 1 0 1
3394 1 6.6354488532701845e+00 2.0903440697125677e+00 4.1431535283119452e+00 1 -1 0
4151 1 1.0203791093649805e+01 2.7798575858618442e+00 3.2136786677733618e+00 1 0 1
1128 1 1.1035634451541961e+01 3.5408101498467857e+00 6.6970927702935654e+00 -1 -1 1
2424 1 9.1848738249378830e+00 4.9176721577187505e+00 5.1322142486530380e+00 0 0 1
6151 1 1.5517864570091742e+01 1.2675020624761335e+00 7.5174823770336974e-01 -1 2 1
5976 1 5.7175202848513607e+00 2.4227488082685536e+01 5.3007512288008751e+00 0 0 1
370 1 1.3359445740317090e+01 4.0161478838921614e+00 5.4608020949046745e+00 -1 0 1
2169 1 3.7178201151006096e+00 3.9497997786353598e+00 1.4307893510417025e+00 1 -1 0
5503 1 1.3644429158188045e+01 1.1625984990193345e+01 1.2014421354920833e+01 2 0 0
914 1 2.8346151022993822e+00 6.7646088490938503e+00 5.2889362944615375e+00 2 1 1
292 1 4.6461275594986624e+00 4.7061798101649908e+00 4.2873299423898326e+00 1 0 0
3456 1 6.9263149678069187e+00 4.2235609640837568e+00 6.7021820660320355e+00 1 0 0
912 1 1.0843069165245769e+01 6.1990481133157314e+00 3.0129290231153738e+00 0 2 1
1710 1 1.0495689243332329e+01 7.7625713924004893e+00 5.0214177924620760e+00 1 0 0
1228 1 1.2809216117799556e+01 4.1638593429674495e+00 2.7064952044045607e+00 0 0 1
2105 1 1.2796087179566825e+01 7.1453183514200855e+00 6.5097881060199505e+00 0 2 0
6035 1 1.5092565293252457e+01 7.6606877805356657e+00 4.8502061064121484e+00 0 -1 1
4319 1 2.5893113002304942e+00 7.9834570556349060e+00 2.8355876963832789e+00 0 1 1
6013 1 2.7193918937575483e+00 1.2265961955923796e+01 4.8819268452136688e+00 1 -1 1
256 1 1.6269250751924794e+01 1.5553338870105463e+01 5.2694237550792933e-01 0 -1 0
2577 1 7.2970680725867245e+00 1.2680440311388129e+01 4.9116216674849280e+00 0 1 1
177 1 6.6471681024835716e+00 8.7930014249564969e+00 5.4045812947093284e+00 0 1 0
1914 1 5.1957216581762049e+00 1.1460839199434373e+01 6.7007799619826169e+00 1 0 0
845 1 1.0192422562851027e+01 1.2145040907354373e+01 4.8698052097178417e+00 0 0 1
1934 1 5.6790099167250674e-01 2.2506645292940789e+01 1.0471161621716603e+00 0 0 0
2168 1 1.2524403564756454e+01 9.8500512992877827e+00 7.3347831598723010e+00 0 1 0
4606 1 7.7463463111440234e-01 2.6724484979606249e+00 6.1967151603869466e+00 1 0 1
3765 1 3.8916289743077144e+00 1.6774682917839119e+01 7.1544573372673659e+00 -1 0 0
6302 1 4.7231219167094309e+00 1.6654934695828675e+01 4.5959369801401353e+00 -2 0 1
5118 1 1.0543558659495789e+01 1.1447872523980980e+01 7.5979872420024819e+00 1 0 1
4437 1 4.3165183498319157e+00 9.1072829526380039e-01 9.7384979695016449e-01 1 0 1
5383 1 1.4223096946483299e+01 1.5782105961840267e+01 5.9323802719683867e+00 1 0 1
510 1 2.6086655339703380e+00 2.0781183439867842e+01 7.2677723854392324e+00 1 -1 0
483 1 2.1365920482375755e+00 1.0751585025897002e+01 9.5479573102885897e+00 2 1 0
287 1 6.8796934965019352e+00 1.8965404844300899e+01 6.1673128267359072e+00 1 0 0
289 1 1.1299002444258315e+01 1.5931396052046653e+01 6.9878142406449006e+00 0 -2 0
2700 1 8.2167394673796306e+00 1.6399755264512741e+01 6.4872108399490767e+00 1 0 1
4593 1 8.8809119935651832e+00 2.1314986889980347e+01 9.1180066903516757e+00 -1 0 1
6297 1 1.5097144485392144e+01 1.6581740008552782e+01 8.3698463599947779e+00 0 1 0
3808 1 2.5496127408936173e+00 2.1696974623557526e+01 4.5134963364850051e+00 0 -1 0
178 1 2.5576205237942009e+00 2.3847259175300451e+01 7.9372722292455880e+00 -1 0 1
2709 1 1.2902556299701033e+01 1.1269906091401088e+01 1.2463990444455653e+00 1 0 1
2788 1 5.8033658615258297e+00 6.9423840130552659e+00 9.7791976656979891e+00 0 -1 1
1923 1 6.1479448992391070e+00 2.1416805275529537e+01 9.0910284598265036e+00 0 0 1
1231 1 1.3355861616996155e+01 1.7168587734739994e+01 1.0859545856364209e+01 0 1 0
791 1 1.5750953807230218e+01 2.1110530644404996e+01 2.4775826611897895e+00 1 0 1
943 1 9.6634563226889796e+00 2.2713124080450012e+01 7.2240214574069617e+00 1 0 0
428 1 1.5571691413384290e+01 1.9635472495409104e+01 5.8343699099811932e+00 0 0 0
3384 1 3.1847974157018375e+00 9.6637961401266672e+00 1.2184674791291904e+01 3 1 0
3787 1 1.2849127793944845e+01 1.9584181370219888e+01 6.5682234743422674e+00 1 1 0
908 1 7.6839564883136484e+00 1.7450794392957739e+01 1.0227566061075647e+01 0 0 1
2544 1 2.1467226203997138e+00 2.2066008067398535e+01 9.9885550370935281e+00 1 1 1
1001 1 1.5924956457331296e+01 1.9568735923263535e+01 9.0979068634143889e+00 0 1 1
3693 1 4.0614984585937330e+00 2.8008899263656515e+00 9.1141655366940615e+00 0 1 0
2102 1 1.0111596249569732e+01 4.0459532977786914e+00 9.3524042431786860e+00 0 1 0
1779 1 4.0839701280365510e+00 5.1423116956741985e+00 1.0815769793959278e+01 0 0 1
3739 1 1.2639880848400852e+01 1.6961538528304487e+00 9.3541231595031249e+00 1 2 0
3428 1 1.5232079362235472e+01 1.6669261736470624e+00 5.8916602598600223e+00 1 -1 0
3438 1 8.0220513588267526e+00 2.8027674909926752e+00 1.0699965922498812e+01 -1 1 1
3769 1 1.3925944063468735e+01 2.8942809974195138e+00 1.1173194538124466e+01 0 0 0
5887 1 9.4914479455436451e-01 5.0119944452634320e+00 1.0507937791377772e+01 0 -1 1
970 1 1.0437900769809954e+01 2.1826095632638392e+01 1.1272159959439872e+01 -1 0 1
1913 1 8.4536614450752232e+00 8.0737407210108714e+00 7.0114116212634823e+00 2 2 0
415 1 3.5685014507157575e-01 6.2911836697953918e+00 2.1305738236043852e+00 2 0 0
284 1 7.8972090084313615e+00 5.8878347369465009e+00 8.4032859261878734e+00 1 0 0
5360 1 9.3489050976022856e+00 7.1784997297890492e+00 1.0790044386905993e+01 1 1 0
251 1 1.5520752872476644e+01 2.3300054802773694e+01 8.1204250386331172e+00 0 -1 1
1723 1 1.3271664879984936e+01 6.5708296801268560e+00 9.2692174919116521e+00 1 0 0
3471 1 1.7826710984642058e+00 9.1014835344214955e+00 7.6944023802068369e+00 -1 -1 0
3644 1 5.7412772966981498e+00 1.0237051941373171e+01 9.6612996015947523e+00 1 2 0
6196 1 4.5308789657091477e+00 8.4429428305305620e+00 7.3899462388820476e+00 -1 1 1
1076 1 1.3748834758382053e+01 2.1020448611809105e+01 8.6467685946241755e+00 0 0 1
394 1 8.7195582375309719e+00 9.7352721129089090e+00 9.3051371684727808e+00 0 0 0
2499 1 1.1798507657186049e+01 9.9039356528613887e+00 1.0339800796281247e+01 0 0 1
4262 1 1.2111827345636666e+01 7.3205236099152842e+00 1.1191475562079969e+01 2 -1 1
5445 1 1.0821293721471301e+01 1.7656695322962367e+01 1.1592749755013923e+01 1 0 0
5922 1 1.5295219214844362e+01 9.4281267970354179e+00 8.4605277049024998e+00 1 1 0
125 1 2.8805971781250683e+00 1.4168257675764325e+01 6.8211026665062962e+00 0 0 1
5290 1 4.0213250427362617e+00 1.2402442040819215e+01 8.8399209446248701e+00 1 -1 0
3745 1 7.5316698523961261e+00 1.3962358864280183e+01 7.6582824350565417e+00 0 2 0
1033 1 5.5300577321080233e+00 1.3714207029292570e+01 1.1821170844666621e+01 0 1 1
2866 1 7.8606360134011570e+00 1.2757834171668796e+01 1.0266020777969237e+01 0 0 1
1149 1 1.1860160655979660e+01 1.3810607707297873e+01 8.5393256737228853e+00 0 2 1
1144 1 1.4281059873806813e+01 1.4035923100761444e+01 9.7502938588429142e+00 -1 0 1
433 1 2.9881238283696461e+00 2.0219913853835664e+01 1.1868420583016423e+01 1 0 1
267 1 3.2776577272558201e+00 1.8186072732013098e+01 1.0177135180248229e+01 1 -1 0
5149 1 4.7386991741918054e+00 1.9431491399983091e+01 8.2169805673526710e+00 0 -1 0
2460 1 5.6439981686629102e+00 1.5434803923208658e+01 8.9570852602097037e+00 -1 2 1
2678 1 8.8281739280274198e+00 1.8781942206206789e+01 8.4701390602525120e+00 -1 0 1
1229 1 8.8381514713541307e+00 1.5232620606527805e+01 1.1835553272987948e+01 0 -1 0
2091 1 1.9438474535114725e+00 1.9066514009899937e+01 3.3396922154190252e+00 1 0 0
3372 1 4.0491475972244642e+00 1.6216633222308605e+01 1.1663728074096458e+01 0 0 1
2139 1 6.7357486558856836e+00 1.9974279991745441e+01 1.1848030438493261e+01 2 1 0
2098 1 4.0800311559638874e-01 1.9878444162310430e+01 1.0299644012077915e+00 2 -1 0
5463 1 5.7010433775429947e-01 1.8438578501283820e+00 3.5291464604335303e+00 0 1 0
403 1 1.1522994727931795e+00 1.6938221402502140e+01 5.0044492468102568e+00 0 0 0
1065 1 1.6425655937449417e+01 8.0651501851789504e+00 1.0995698268509628e+01 0 1 1
2183 1 1.1562422263924033e+01 7.6377173855696912e-01 6.3341399352781744e+00 2 1 0
5488 1 8.2140924420219061e+00 2.4444589341199372e+01 5.3651154100392926e+00 1 0 0
2159 1 8.2692870424634091e+00 2.2517187077550545e+01 9.5692287463498937e-01 0 0 0
99 1 1.5893130711364277e+01 1.1524093204573681e+01 9.9790471049445237e+00 0 0 0
5211 1 1.6320082009765372e+01 1.3156063464252885e+01 6.2130766920960694e+00 0 -1 0
3701 1 8.8069759787079853e+00 4.4471400191173149e-01 5.3792329992406493e+00 1 0 0
5327 1 9.9508683556072963e+00 1.3603953558665907e+00 1.2027495795576527e+01 1 1 0
5366 1 1.6060893572585503e+01 1.2426127345418996e+01 7.6582078897151329e-01 2 1 0
4342 1 1.5353820661092543e+00 1.5461231926660194e+01 1.2151153824529485e+01 0 0 1
5892 1 1.1540359772912520e+01 3.8024450733782240e+00 1.2201342486438016e+01 1 0 1
4420 1 7.7042446868166570e+00 2.2753872648300071e+01 1.2110653060622861e+01 1 0 1
421 1 1.5443083872891505e+01 1.8479148663209859e+01 1.2023598263716183e+01 1 0 0
2921 1 1.5736938630073235e+01 2.1484109643770104e+01 1.2089412355858315e+01 0 0 0
3419 1 2.5219261134613173e+00 1.6037104070838544e+00 1.8498625105479334e+01 0 0 1
5300 1 8.8354650365913956e-01 2.0082831409980233e+01 1.3358922713731138e+01 1 0 0
3840 1 7.1310594242145884e+00 1.4978183519979734e+01 1.4204718607118494e+01 1 -2 0
2858 1 2.7218950551952208e+00 6.1347138259795875e+00 1.3219463001244472e+01 1 0 1
6292 1 1.0174200028089173e+01 2.4285488277340349e+01 1.3108840737288524e+01 0 0 1
3847 1 1.5597190218397039e+01 1.5591170451676106e+01 1.4036858554145715e+01 -1 0 0
4492 1 9.6585607264739437e+00 9.8353347023932425e-01 1.4918057400700992e+01 1 0 1
2720 1 1.5148979445137172e+01 1.9391285688935216e+00 1.3218017630965864e+01 -1 0 1
420 1 1.2537868374830220e+01 1.0296637386275056e+00 1.5257421112972390e+01 1 0 0
3480 1 4.2068577270297416e+00 8.1853181268711879e+00 1.5370702175001819e+01 0 0 0
2020 1 2.6424462802758075e+00 4.1000761890815740e+00 1.5091169083029357e+01 1 2 0
5473 1 9.7920456959495290e+00 2.3096599351862466e+01 2.1525898008904640e+01 0 0 0
5995 1 1.8118502418487485e+00 8.9410847157487017e-01 1.2268381087134099e+01 0 0 1
3641 1 7.6087878125778188e+00 6.9811033927219865e+00 1.2953237576026707e+01 0 0 0
3817 1 1.4077322264588071e+01 6.0683272169950184e+00 1.3351361454995301e+01 0 0 0
2147 1 6.2231664675394320e+00 2.4507662607401400e+01 1.8129965759256741e+01 0 -1 0
6152 1 1.3659050111528679e+00 1.3057259953308270e+01 1.3719876307628036e+01 1 0 1
400 1 8.8230862348853289e+00 1.6934479961006122e+01 1.5156662417988647e+01 2 0 0
2059 1 9.8563263316667593e-01 6.2705887054503764e+00 1.6877089922651237e+01 0 0 0
4377 1 1.3946256520354304e+01 2.4238100744475222e+01 1.3735236379494616e+01 1 1 0
6208 1 4.4985286922799421e+00 1.1674467852174432e+01 2.3280967892657372e+01 2 1 1
6033 1 9.7120180296607419e+00 6.5963149340803238e+00 1.4562881487133476e+01 0 1 1
2588 1 1.0807986529500052e+01 9.0766153805334628e+00 1.3687375591482292e+01 1 1 1
4254 1 1.3294039421826715e+01 8.6202885088744736e+00 1.4541803607909769e+01 0 0 1
1799 1 1.4483448732752544e+01 1.1036287330926458e+01 1.4408622871805795e+01 0 0 1
5344 1 3.0717578137831754e+00 1.6203628007948360e+01 1.8462478482375460e+01 1 0 0
1965 1 1.3689783695040136e+01 1.4064284654459598e+00 2.2646043631679550e+01 1 1 0
6216 1 4.0750102328655320e+00 1.2202987376173223e+01 1.3235629454424677e+01 1 -1 1
1077 1 3.4619591129710594e+00 1.2755886655447471e+01 1.6094289756493637e+01 0 0 1
3580 1 5.9231731964125238e+00 1.0886932832336766e+01 1.4985547093542392e+01 0 0 0
1187 1 8.0925356156295241e+00 1.2051378157889381e+01 1.4791263687684284e+01 1 0 1
2896 1 1.1254849976065033e+01 1.4043343474772771e+01 1.2863290190104090e+01 0 0 1
1856 1 1.1113310618498467e+01 1.9302412536411026e+01 2.0896371164961781e+01 0 1 1
3622 1 8.2805414153987620e+00 2.0320652029453278e+01 2.1272929755050111e+01 1 0 0
241 1 1.4580640542224284e+01 1.3448543736964965e+01 1.6201936453721554e+01 0 -1 0
5504 1 6.1731980027097038e+00 8.5297381172087972e-01 1.2308685592534692e+01 0 0 0
5459 1 1.3010209099907826e+01 1.1238853245986464e+01 2.3713328688739875e+01 0 1 0
6227 1 1.5163388008231054e+01 2.3904236322837249e+01 2.2662672247306752e+01 1 0 1
469 1 5.1168632743261888e+00 1.9068176827607811e+01 1.3832993832392892e+01 1 -2 0
4282 1 1.1777224509481028e+01 2.3430125401723487e+01 1.5146306557660331e+01 1 2 1
4546 1 1.4848645378327336e+00 2.2624402686664652e+01 1.4794278184676257e+01 0 0 0
862 1 1.6502038511278258e+01 2.1442372402947537e+01 2.2815886263639328e+01 1 -1 1
5081 1 1.2779235179190169e+00 2.4450011687606779e+01 1.8090963347065191e+01 1 1 0
195 1 1.3464348835069558e+01 1.9211707058061812e+01 1.4121682145305130e+01 0 0 1
5971 1 5.8788162733715312e+00 8.9591569348352653e+00 1.2929672869151636e+01 0 1 1
6220 1 1.1239817552298341e+01 2.0657798451889960e+01 1.4844297795519953e+01 1 1 1
5221 1 5.4554094404137576e-01 1.8531037643725043e+01 1.7107064648078044e+01 1 1 0
3781 1 7.1080401614506803e+00 2.2611848265927115e+01 1.5071918959420165e+01 0 0 0
2789 1 1.3912116592799237e+00 1.9398870140893674e+01 2.1123458093810228e+01 0 1 1
4355 1 1.1503580040923417e+01 1.7082856868704955e+01 1.4109868353141994e+01 1 1 1
4202 1 9.5103218012798756e+00 1.9835788900053199e+01 1.2937960337169248e+01 1 0 1
405 1 1.4877191584264443e+01 2.0833186006961402e+01 1.5983423932980166e+01 1 0 0
5435 1 1.6441895793940933e+01 2.3079224170738115e+01 1.4621584467582327e+01 0 0 0
2609 1 1.3034269743663858e+01 2.1342597929329564e+01 1.9638446985178188e+01 0 2 1
448 1 4.0363824028063355e+00 1.0153450703110236e+00 1.4302101723156202e+01 2 0 0
315 1 5.4043010668539111e+00 2.4101496799031324e+01 2.0912984137639171e+01 1 -1 0
3743 1 6.7157771902409928e+00 1.9510121948338364e+00 1.6636613539569684e+01 2 1 0
1788 1 5.3107655835966883e+00 3.5151395950812194e+00 1.4749192701385834e+01 2 0 0
2559 1 6.1825162512984670e+00 2.4097008526146158e+00 1.9168348387768201e+01 1 1 1
3478 1 9.4579166573718734e+00 3.0108409925772843e+00 1.7352134812599761e+01 0 -1 0
435 1 3.1389181333195739e+00 4.1717965391484757e+00 1.8001660149867117e+01 1 1 0
2527 1 1.0905158100038555e+01 1.3286880645541150e+00 1.9129345134498820e+01 -1 1 1
5158 1 2.2179242236030996e+00 1.0605691290785497e+01 2.1316789345147619e+01 0 0 1
1986 1 4.1171011863812073e+00 2.5394837305818303e+00 2.3042591480299574e+01 0 0 0
61 1 5.0432298048908377e+00 2.0812557746044529e+01 2.3882801518645060e+01 1 0 0
181 1 5.1496937259048248e-01 2.2485662435576872e+00 1.4551336071454983e+01 2 -1 1
5987 1 5.7255128583461969e+00 6.0684322799348518e+00 1.5711361390410444e+01 1 0 1
1116 1 8.2002334359079505e+00 7.3137197200038644e+00 1.6733091752418233e+01 1 0 1
182 1 4.7049965203574198e+00 6.4114308546738359e+00 1.8175614355917229e+01 1 0 0
1812 1 1.0515293545060580e+01 3.9601065261194179e+00 1.4804650949427302e+01 -1 0 0
5227 1 9.4096836034684426e+00 5.8448252691298856e+00 1.8524689665058055e+01 0 1 0
2761 1 1.3158390915113767e+01 4.2898502274695733e+00 1.5455484398892548e+01 0 2 1
1209 1 1.6071399379376281e+01 7.3758000357674565e+00 1.7649802781191958e+01 -1 1 1
2859 1 2.7098540035367336e+00 8.1144203313514502e+00 1.8266251381547175e+01 2 2 1
2674 1 1.5186886687456866e+01 1.2140431737998000e+01 1.8740962211312397e+01 0 1 1
1019 1 6.7205019964065436e+00 9.7361014610600076e+00 1.7759762524896331e+01 1 0 1
4512 1 1.0561071071902802e+01 1.0864332201335968e+01 1.5806364083274966e+01 2 1 0
236 1 1.2046209438697403e+01 6.0975050318908863e+00 1.7727092566753580e+01 -1 1 1
992 1 1.2261832738026454e+01 1.1019279788574099e+01 1.7815275495432459e+01 0 0 1
1002 1 1.3389402506011718e+01 8.5457140053858556e+00 1.7166802394197937e+01 0 1 1
4412 1 1.6395433047237979e+01 1.7999857803002705e+01 1.9997933231183527e+01 1 0 1
27 1 1.5279409832837688e+01 5.1974962107936760e+00 1.9202172810797911e+01 0 0 0
4493 1 4.8584377606301166e+00 1.5291318048786582e+01 1.6512394101967619e+01 0 0 0
2181 1 4.3391128119955349e+00 1.1182050050476338e+01 1.8428778366826389e+01 -1 0 0
5926 1 5.0484310269891663e+00 1.3040835663392338e+01 2.0078491152921206e+01 2 0 1
995 1 6.4884948797655611e+00 1.5372757959890505e+01 1.9448743477105985e+01 1 0 1
6298 1 1.0439454864469518e+01 1.5460473276930712e+01 1.6847397279473970e+01 -1 1 0
1881 1 9.2269467661533398e+00 1.1058309635807326e+01 1.8439748161525412e+01 2 2 0
4543 1 9.0056318179354413e+00 1.3855014876007626e+01 1.9063479385741150e+01 1 1 0
2706 1 1.4499687600020446e+01 1.7031655465840821e+01 1.6220764952815493e+01 0 0 0
3825 1 1.1720591757668066e+01 1.3503084653026315e+01 1.5443975653560738e+01 1 0 1
4198 1 4.3918333686728461e-01 1.5212452917081373e+01 1.8545334395056081e+01 1 1 1
2639 1 2.8690073440136592e+00 2.1608294524083373e+01 2.1031567697524636e+01 0 0 1
5547 1 3.0542307908535204e+00 1.8940852096718388e+01 1.8604015819644680e+01 1 0 0
479 1 3.6778879937627744e+00 1.6893284470791091e+01 1.4447412241447916e+01 1 -1 0
2007 1 6.4872058397132717e+00 1.7629813540776070e+01 1.7512213380220793e+01 0 1 0
2141 1 8.4769843157222002e+00 1.9699217560749716e+01 1.5850722057326561e+01 0 0 0
1206 1 1.2085600649279133e+01 1.7095845148015478e+01 1.7645390341967119e+01 1 -1 0
2017 1 1.1592182664285067e+01 1.6594188747329138e+01 2.0384289768287530e+01 0 -1 0
5209 1 2.2518841340582432e+00 2.2091919174439077e+01 1.7378342004549481e+01 1 0 1
5517 1 1.6467321527058289e+01 2.7053170744608890e+00 1.6339465095698987e+01 1 0 0
2679 1 7.7031459698162497e+00 1.0681658449281722e+01 2.3687772288903805e+01 2 1 1
2725 1 4.3088201712195939e+00 2.0196394833660516e+01 1.6557444799704914e+01 2 1 1
5832 1 5.5261137920913770e+00 2.0898819525031740e+01 2.0451391298432178e+01 2 1 0
2120 1 1.1406339409489691e+01 1.9903007437624129e+01 1.7632674944158534e+01 0 0 0
6187 1 9.3380610377098670e+00 2.1855101679975519e+01 1.8797967272874921e+01 0 1 1
897 1 1.3660583342336118e+01 2.2922816583140264e+01 1.7216888447315654e+01 0 -1 1
180 1 1.5591238850081583e+01 2.0797108531889446e+01 2.0422785327314923e+01 1 0 0
2122 1 1.2194314021917165e+01 2.3559223856382793e+01 2.0905712440021034e+01 1 2 0
5292 1 1.1808417485154252e+00 4.5129367794653055e+00 1.9862468710074101e+01 2 0 1
2051 1 4.2850701635983057e+00 1.1067440986297798e+00 2.0656077292328977e+01 2 2 0
459 1 8.3093041023038481e+00 1.6478852608765244e+00 2.0977451351682657e+01 0 0 0
2798 1 9.4506257667502336e-01 1.7731559633927855e+01 1.4635159323051608e+01 0 0 0
5818 1 9.8688832444873871e+00 1.1441330354237470e+01 1.2370187506686060e+01 0 0 1
58 1 6.3595214780274834e+00 2.1794850276831092e+01 1.7932212793848549e+01 0 0 1
159 1 4.2039748644356019e+00 2.2309158463272368e+01 1.3905124993924661e+01 0 0 0
1023 1 1.1835739354297090e+01 3.4236322315753149e+00 2.1148840370801921e+01 1 1 1
771 1 1.4592445002374244e+01 1.3466410251523458e+01 2.3574367196738006e+01 1 0 1
1022 1 7.9370552998727719e+00 1.6821007295178632e+01 2.3675358771700257e+01 1 0 1
5281 1 1.4093768089655400e+01 1.7907837266840954e+01 2.3472063794729660e+01 -1 0 0
2144 1 2.3940562416533426e+00 6.2582947630752592e+00 2.1958606096049049e+01 0 0 0
374 1 1.5236839675557070e+01 9.2192884011047749e+00 1.9716832979533542e+01 0 1 0
135 1 6.4475489268822059e+00 5.3673381574249674e+00 1.9898816855644263e+01 0 0 1
939 1 5.3087869915085883e-01 9.2582776205786033e+00 1.9929499375991245e+01 1 -1 1
316 1 9.4818796686064175e+00 4.4082325113838152e+00 2.1315975217707557e+01 -1 1 0
16 1 1.3098735081240935e+01 5.9366945757221021e+00 2.0566160554878167e+01 0 -1 0
29 1 1.4043185611599291e+01 2.9856556733690911e+00 1.7577353477563054e+01 0 1 0
3505 1 1.5068978750427624e+01 3.7447934547136952e+00 2.3626262953979307e+01 1 1 0
4260 1 9.3311735007175123e-01 9.5171350311996807e+00 2.3553497774946678e+01 1 1 1
4235 1 3.9667045676405812e+00 8.3342040720267150e+00 2.1289543348813623e+01 0 1 1
3414 1 1.2735785037458793e+01 5.4395213302056016e+00 2.3616094000580478e+01 0 0 1
4568 1 6.8023178992185613e+00 1.4531321102136063e+00 2.3302440504253294e+01 1 0 1
5389 1 6.5466840451681083e+00 8.6604713460014686e+00 2.0260331203945039e+01 1 1 0
4105 1 6.4106667509880646e+00 1.3919139307669377e+01 2.3115642077638260e+01 0 1 1
840 1 7.3964264814384730e+00 1.1490019204639692e+01 2.0949340111975413e+01 0 1 0
3678 1 8.9086345330347534e+00 7.6404134827999393e+00 2.0951869507719142e+01 1 -1 0
2069 1 1.2392452299200910e+01 2.0081915743731084e+01 2.3411555580804023e+01 2 1 0
72 1 1.3274690796684473e+01 8.4824667754154905e+00 2.1263809544953610e+01 -1 1 1
4305 1 6.6673191553745470e-01 8.8115712916749143e+00 1.3172864087600086e+01 1 2 1
800 1 1.0338877663263897e+01 1.1711000467824778e+01 2.3200350267824103e+01 0 0 1
50 1 7.6302326502795015e-01 1.3432638115699289e+01 2.0878355759345478e+01 1 0 0
1819 1 3.3037672896372143e+00 1.4858726413824975e+01 2.0774487184989848e+01 1 0 0
5400 1 6.4642226502729470e+00 4.4598203185076128e+00 1.2379377237583620e+01 1 1 0
2422 1 1.0371757904069444e+01 1.4284650144406639e+01 2.1281051774641668e+01 0 1 0
2585 1 1.0657300724057071e+01 9.6500682777388551e+00 2.0726122487931953e+01 1 0 1
4138 1 4.8043948475436666e+00 4.9965284264162371e+00 2.2436401920241892e+01 1 0 1
2692 1 1.1019359297713120e+01 8.9947340641921891e-01 2.3496528925907441e+01 1 1 1
199 1 1.4411478105256911e+01 6.9551432181552486e-01 1.9994711709285856e+01 0 0 0
6069 1 1.2640789872097510e+01 1.2391010417322384e+01 2.0761920138678814e+01 0 1 1
5124 1 1.5194943857315721e+01 1.4071483971855987e+01 2.0957729357114118e+01 0 1 1
5099 1 1.3795537566764359e+01 8.3223986780610613e+00 2.3990142684783308e+01 0 0 0
4375 1 5.0356467390291337e-01 8.4139806359987823e-01 1.6919425651189073e+01 0 1 1
6099 1 8.9725772979398610e-01 1.6968278085176085e+01 2.1700423153832929e+01 1 -1 1
309 1 4.9623289031732245e+00 1.8046143714550372e+01 2.0707643667122230e+01 1 -1 0
2538 1 5.3684518809823309e+00 1.7858416638344188e+01 2.3520649890015129e+01 0 -2 1
1911 1 7.9433039053918000e+00 1.7493746565112200e+01 2.0965288482295730e+01 0 0 0
5386 1 1.4124450027558808e+01 1.6592775567412133e+01 2.0972632302010361e+01 1 0 0
973 1 9.9688856141043853e+00 4.9751859498097168e+00 2.4021801461883982e+01 0 0 1
2707 1 2.5782216169142598e+00 2.1708229916399883e+01 2.3934198712010250e+01 -1 1 1
4609 1 1.2876063895755077e+01 2.2712104868148032e+01 2.3612146401583942e+01 0 0 1
2839 1 8.3427726087355456e+00 7.2700121410665686e+00 2.3851841758277381e+01 1 1 1
5204 1 4.2612905754687631e+00 8.7817385612860637e+00 2.4057037884363105e+01 2 1 0
5078 1 3.7438593552098731e+00 1.5794927626458451e+01 2.3467412049785516e+01 1 1 0
4454 1 9.6232627369721833e+00 2.3742340362322199e+01 1.6696331629088277e+01 1 0 1
1880 1 1.6205970857594210e+00 2.2111228624487786e+00 2.4068909754463625e+01 -1 1 1
444 1 1.5227834645528739e+00 2.4164095543499513e+01 2.0764677865903906e+01 0 0 1
1839 1 1.2712468230356418e+01 1.5223702671443066e+01 2.4015160363962483e+01 1 1 1
1221 1 7.8113503018177655e+00 2.1421088569417428e+01 2.3968879912929701e+01 0 0 1
511 2 3.0745914907618754e-01 3.1124232492400452e+00 2.6757925125807493e+01 0 0 0
512 2 3.0745914907618754e-01 3.0620754878555445e-01 2.6757925125807493e+01 0 0 0
513 2 1.5225861916223593e+00 1.0077614738991683e+00 2.6757925125807493e+01 0 0 0
517 2 1.5225861916223593e+00 2.4108693241263452e+00 2.6757925125807493e+01 0 0 0
518 2 2.7377132341685311e+00 3.1124232492400452e+00 2.6757925125807493e+01 0 0 0
519 2 2.7377132341685311e+00 3.0620754878555445e-01 2.6757925125807493e+01 0 0 0
520 2 3.9528402767145758e+00 1.0077614738991683e+00 2.6757925125807493e+01 0 0 0
528 2 3.9528402767145758e+00 2.4108693241263452e+00 2.6757925125807493e+01 0 0 0
5494 1 1.3318611029007357e+00 1.6819913292679214e+01 2.4535488052182522e+01 2 0 0
529 2 5.1679673192608746e+00 3.1124232492400452e+00 2.6757925125807493e+01 0 0 0
530 2 5.1679673192608746e+00 3.0620754878555445e-01 2.6757925125807493e+01 0 0 0
531 2 6.3830943618069638e+00 1.0077614738991683e+00 2.6757925125807493e+01 0 0 0
543 2 6.3830943618069638e+00 2.4108693241263452e+00 2.6757925125807493e+01 0 0 0
544 2 7.5982214043529641e+00 3.1124232492400452e+00 2.6757925125807493e+01 0 0 0
545 2 7.5982214043529641e+00 3.0620754878555445e-01 2.6757925125807493e+01 0 0 0
546 2 8.8133484468992354e+00 1.0077614738991683e+00 2.6757925125807493e+01 0 0 0
562 2 8.8133484468992354e+00 2.4108693241263452e+00 2.6757925125807493e+01 0 0 0
563 2 1.0028475489445562e+01 3.1124232492400452e+00 2.6757925125807493e+01 0 0 0
564 2 1.0028475489445562e+01 3.0620754878555445e-01 2.6757925125807493e+01 0 0 0
565 2 1.1243602531991812e+01 1.0077614738991683e+00 2.6757925125807493e+01 0 0 0
585 2 1.1243602531991812e+01 2.4108693241263452e+00 2.6757925125807493e+01 0 0 0
586 2 1.2458729574537740e+01 3.1124232492400452e+00 2.6757925125807493e+01 0 0 0
587 2 1.2458729574537740e+01 3.0620754878555445e-01 2.6757925125807493e+01 0 0 0
588 2 1.3673856617083990e+01 1.0077614738991683e+00 2.6757925125807493e+01 0 0 0
609 2 1.3673856617083990e+01 2.4108693241263452e+00 2.6757925125807493e+01 0 0 0
610 2 1.4888983659629741e+01 3.1124232492400452e+00 2.6757925125807493e+01 0 0 0
611 2 1.4888983659629741e+01 3.0620754878555445e-01 2.6757925125807493e+01 0 0 0
612 2 1.6104110702176605e+01 1.0077614738991683e+00 2.6757925125807493e+01 0 0 0
633 2 1.6104110702176605e+01 2.4108693241263452e+00 2.6757925125807493e+01 0 0 0