LAMMPS data file via write_data, version 29 Oct 2020, timestep = 0

6854 atoms
2 atom types

0.0 49.22 xlo xhi
0.0 49.019635930410494 ylo yhi
-0.39838199551245523 60.460381995511845 zlo zhi

Masses

1 18.015
2 12.01

Atoms # atomic

1 1 5.467991702269337 2.633657813263845 2.542545859417619 1 0 0
2 1 14.869253695149844 22.731939769207006 -0.3200230747952162 0 0 1
3 1 9.556510041585776 1.3584347237709276 0.8466023388535109 1 1 1
4 1 12.840215911853152 4.279103846551145 0.4941641045740818 0 1 0
5 1 12.303594552704313 0.5473165975045737 1.1700980000249959 0 0 0
6 1 17.70015252868614 3.5981654799699965 3.180653775068946 0 1 1
7 1 22.201567247577614 22.71146985787973 -0.34255675023852916 0 0 1
8 1 17.538357101344335 23.869522184916946 16.75160074199753 0 0 0
9 1 0.8129693448040847 1.9359885655547648 0.08832349535206213 1 0 1
10 1 3.3394854129352325 4.448698466410038 2.351007948429689 0 0 0
11 1 10.190679296899937 3.8694851868208566 0.3405327931345624 0 0 0
12 1 8.868879946609129 5.65033865164215 2.1260397365731913 0 0 0
13 1 23.64858402365167 14.19516483386664 12.53437467825654 0 0 1
14 1 24.523331982106114 3.8835274396215236 23.484908297096435 0 0 0
15 1 21.508231945703336 24.26797549092965 21.676913153692958 0 0 0
16 1 15.083284775008302 0.1515210840034058 18.660478872410437 0 1 0
17 1 23.502649927777075 2.910703827650817 0.5708303138284231 0 0 0
18 1 16.574448312579324 0.051011609677457055 14.502957911875534 0 0 0
19 1 2.1317281096308744 11.674605652186905 1.2248591403687217 0 0 0
20 1 2.9758206304446326 7.860048654882302 0.5790283134672164 0 0 0
21 1 7.098805350655503 7.6531358184991065 2.3462903934901904 1 0 0
22 1 12.558237253814742 0.35930792872239437 22.122271700802553 0 1 0
23 1 11.904105916690327 8.54416194534478 1.2719823214169277 0 0 1
24 1 19.663128359614024 9.438918107636365 0.34466144254243825 1 0 0
25 1 11.345147596377744 23.891608549998473 23.147628621511632 0 0 0
26 1 23.31732432836686 11.160774657862612 3.8947965078780955 0 0 0
27 1 23.658858688445893 7.208164758292367 0.9245155706228894 0 0 0
28 1 0.8744963043654933 0.10985531406276544 8.34633754383866 0 1 0
29 1 2.5337313843691973 15.431870789796626 3.6357460315030936 0 0 0
30 1 5.308270347233581 11.426769423064613 2.4422413669057086 0 0 0
31 1 24.564247937324964 21.617278433661227 1.0047218927157813 0 1 0
32 1 7.888038734849109 10.901332553725132 2.177142833144363 0 0 1
33 1 13.798183982801522 10.919571112478696 0.9650521661895317 0 0 0
34 1 15.730950330560002 13.581007652810188 0.7283072735044367 0 0 1
35 1 0.3474819497732078 10.893692486271481 20.874730646230624 0 0 0
36 1 22.473417496140396 12.963507653888419 2.2794769706556064 0 1 0
37 1 6.634482557454752 2.451764539634865 9.793078801108622 1 1 0
38 1 17.22679008106798 0.2806047478808607 0.35661422585731173 0 0 0
39 1 1.655299260077012 16.82253965627126 1.7985366899336461 0 0 0
40 1 0.6343048935441723 23.727356405211665 10.9424627907615 1 0 1
41 1 20.265514642262247 24.45219401637021 5.630342444239298 0 0 0
42 1 12.025885486543352 12.999711674825503 1.5321375072759738 0 0 0
43 1 9.37590871733746 24.095646578492165 21.268091755193034 0 0 0
44 1 0.6422474693684439 3.5910474333303473 6.122241005904387 1 0 0
45 1 19.024130355073474 18.398382872003822 0.6793340079609949 0 0 1
46 1 23.557355781257705 15.315581253227258 1.945874413340389 0 0 0
47 1 19.73268606291836 23.77892696752133 8.307924192982002 0 0 0
48 1 3.4152438662111093 20.871649081516093 2.453819986496178 0 0 1
49 1 9.229765221714214 23.595650122958254 7.281332697093818 1 0 1
50 1 0.41948379807103225 11.246590857913866 8.441285903891371 1 0 0
51 1 15.839971537726344 19.130825804935036 2.7972668569474877 0 0 0
52 1 14.764267529989057 17.526632360522697 0.9742448059198727 0 0 1
53 1 21.316326324195227 20.520369266335997 0.39325555766382514 0 1 0
54 1 21.524539211822344 19.963575209577726 3.132283865259232 0 0 1
55 1 15.315238919530177 24.321800461208365 24.853282814793047 0 0 0
56 1 23.711247754735208 3.61453865949862 11.182191513794951 0 1 0
57 1 0.9722639553189147 21.70617705298812 2.3431671105690106 1 0 1
58 1 1.4293483457566272 24.40448059324775 1.0616418575185023 0 0 1
59 1 3.9889360494130575 0.997657128298901 19.07117209648075 0 0 0
60 1 9.726203339889125 9.974820855755517 0.06415754863721806 0 0 0
61 1 0.08751721838595178 1.7657461896246747 15.78671485100416 1 1 0
62 1 24.5463529562157 2.7894289214163486 19.128275979416976 0 1 0
63 1 12.537973101214572 21.57364941100633 0.681115127093235 0 0 0
64 1 17.70627902042848 21.55603194798148 3.109576389104502 0 0 0
65 1 17.59670388527249 20.06566084128479 24.98090452857639 0 0 0
66 1 0.03874815819997224 19.57354882567933 20.033893048993455 1 0 0
67 1 21.794056047812177 22.790897818855036 4.060693605049784 0 0 1
68 1 2.2519360236920414 0.1025961692788313 24.011193572591566 1 0 0
69 1 15.234698828615478 22.699765470196652 4.6089472742346365 0 0 1
70 1 1.3377334384672155 2.3447120725345814 3.0470827371437115 0 1 0
71 1 4.892845643948837 0.6295599080007757 4.121634141637544 1 1 0
72 1 8.733899666376395 1.551236343250752 3.3776210926185537 0 1 1
73 1 11.594355201412798 1.853536640937422 4.3863299614341535 0 1 0
74 1 16.292258728448004 2.5736949130075626 0.8320622331335634 0 0 0
75 1 4.652733390172778 7.042562069974747 24.778472624373233 1 0 0
76 1 16.888595604110627 1.8670029360104639 7.473332211302233 0 1 0
77 1 18.527126195328396 1.912200921229252 5.1710056510101055 0 1 0
78 1 20.292202947594483 1.4615590682113322 3.3449778642306454 0 1 0
79 1 21.693076436469905 3.615934381947974 2.610507895950204 0 0 1
80 1 3.1608151593565057 3.892797536519897 5.2548019555470304 0 0 1
81 1 20.824046984901038 11.956963179151181 0.3132059078102186 0 0 0
82 1 3.147527089765878 6.503167932927066 5.301434556385456 1 0 0
83 1 7.411957089833689 4.444276613677048 6.762280624645101 0 0 0
84 1 7.3799818297900295 3.884179923968544 3.671006083433885 0 1 0
85 1 13.005337724992945 4.202878264097256 3.176449512483442 0 0 0
86 1 10.847208560852918 6.005279938970473 4.081835553418821 0 1 0
87 1 15.626384332012385 5.498943370215574 4.457240901259642 0 1 0
88 1 19.80563961291849 5.253740544630646 2.3307582912214224 0 1 0
89 1 0.2156070229600524 9.049180140216746 2.0112488933847783 1 0 0
90 1 15.19090155878474 0.10390903343226654 6.0839992959693365 0 0 1
91 1 4.216149479570956 7.291251824467256 2.6666435293088737 0 0 0
92 1 3.823126212276386 10.092151311020729 3.934209477293206 0 1 1
93 1 7.780806695958283 9.049317210801908 4.725637654924833 0 0 0
94 1 12.011552046500336 8.335001549282504 4.147605065964486 0 0 1
95 1 10.348366610497813 10.029604274056553 5.141877529285699 0 0 1
96 1 16.58257623326174 7.61503933014619 3.0045907366321587 0 0 1
97 1 19.399899565993007 8.009723164529161 2.817535244971547 0 0 1
98 1 17.85745752794816 10.986166362576219 2.9020674895184393 0 0 0
99 1 19.79105380371308 11.080897082984976 5.071133869650972 0 0 0
100 1 22.614147865846952 6.636916496514989 3.4858773724015277 0 0 1
101 1 21.44308491945219 9.109033189443009 4.309541073941331 0 0 1
102 1 1.3289894340981598 11.847021738083248 4.372690033547897 1 0 0
103 1 5.339055256070062 10.57477457200079 6.33663550827337 0 0 1
104 1 4.356357806701441 13.403108899167522 6.289659204875728 1 0 1
105 1 8.712715809342557 15.613172190627948 4.16182233060306 0 0 0
106 1 7.798880619250849 11.271324235333712 7.563317676177369 0 0 0
107 1 10.32102466530412 12.450191441158344 3.9075694200395565 0 0 1
108 1 15.336139517887215 10.083605318469433 3.0715480323058815 0 1 0
109 1 15.053932055879613 11.481035839779915 5.511308723754354 0 0 0
110 1 20.278750472045044 13.776673806950633 4.232569002601731 0 0 0
111 1 24.424633695528637 20.22461344940472 8.562261717467562 0 0 1
112 1 13.434163379424279 0.2364768970873917 10.48142588003159 0 0 0
113 1 6.631684035045971 14.914365792246663 2.7586724140199337 0 0 0
114 1 3.436370134610799 16.588089010487366 6.069507853624953 0 0 0
115 1 5.714374620424195 17.84356399636252 2.067076364433676 0 0 1
116 1 10.977627384812457 16.347752070477096 2.4553348644569026 0 0 0
117 1 12.475972919496348 12.999452075347905 5.740436868653892 0 0 0
118 1 13.684505047693337 15.123450702531324 1.9043215095684753 0 0 1
119 1 16.12022652935956 13.897381065108211 4.999512760757349 0 0 1
120 1 17.475127189071273 13.928896863205656 2.8414554961711973 0 0 0
121 1 19.490182655240133 16.344069771892602 2.742172906544592 0 0 1
122 1 22.213448639076564 16.727492899699822 3.530965665827786 0 0 1
123 1 21.925233481727332 14.259072866456476 8.313917162047886 0 0 0
124 1 4.7678532949963355 13.650165840969256 3.9533594309668754 0 0 0
125 1 6.816478641606502 14.299899330700596 -0.02316450629934158 0 0 1
126 1 19.751922099599152 14.527386984216932 -0.13498199393657334 0 0 0
127 1 5.379268557562419 18.538565849218173 4.720621541109893 0 0 0
128 1 9.405858919386452 19.886481875808713 3.4152031695852902 1 0 1
129 1 8.254044955578966 18.2674878330253 5.2040577469303155 0 0 1
130 1 8.197202080906761 19.035124181574353 1.0328729828989058 0 0 1
131 1 11.696966997271948 18.630766336160875 3.546469765571753 0 0 0
132 1 15.539373303003519 18.153159310663423 5.419096781962207 0 0 0
133 1 18.226769885396287 17.706664048040732 5.214450050766712 0 1 1
134 1 19.341563041038416 19.95962432156567 4.696683562487588 0 0 1
135 1 24.59556730595524 19.60035146106815 4.353123122352021 0 0 1
136 1 0.18723612693410127 21.75753279061755 24.07843232620666 1 0 0
137 1 0.9293541360015792 22.806715060083047 5.2841183616652545 0 0 0
138 1 5.78730981700901 22.34394082054644 2.3770536427667612 0 0 1
139 1 23.48537197360779 22.40805168627298 19.275600564733594 0 0 0
140 1 8.162433871645321 22.793917367138754 4.562795750512989 0 0 0
141 1 13.275203846453277 20.87812849292122 3.276493584887716 0 0 0
142 1 15.619722883852852 24.48157547026618 1.8119877152054764 0 0 0
143 1 19.785437037460763 21.085545195704203 7.070171793977521 0 0 0
144 1 10.48323650407858 17.605369405167252 -0.06362569692470971 0 0 0
145 1 24.09113513744697 23.744460846623294 5.169407147301204 -1 0 1
146 1 4.953054956671955 2.043997386137156 6.6969684897836 0 0 0
147 1 1.5171064356152002 4.849574080235411 0.1373188542096324 1 0 1
148 1 3.310308296521514 18.429401203859506 0.5225096897028566 0 0 0
149 1 0.9978122281564858 23.96518795685422 20.358578322673218 0 0 0
150 1 17.856896271898925 0.4535380766900643 9.714503400584327 0 1 0
151 1 21.28360445454755 1.8326967423831144 9.330335451242973 0 1 0
152 1 19.603830808625307 21.412576158371646 23.769891430533438 0 0 0
153 1 2.6519899159242075 3.771866072885539 9.522717162979783 0 0 0
154 1 4.600802605519134 5.862520985399451 11.909663683101506 1 0 0
155 1 5.141709026270715 5.102811578283442 8.502954467054732 0 0 0
156 1 11.631096274452245 2.735981745164768 7.1848156067236895 0 0 0
157 1 10.792208036000355 5.847264375154187 6.8957589112562 0 1 0
158 1 15.751072393540964 6.5373548529263985 6.790116951634937 0 0 0
159 1 20.72884578511622 3.0966188454591457 6.871754444198766 0 0 0
160 1 20.244409045504604 5.790696383891497 7.162765364560261 0 1 1
161 1 12.793468850562409 0.1563271822470571 17.187340116249587 0 1 0
162 1 0.9197303710191467 7.5150354386907505 6.012180806903978 0 0 0
163 1 0.825680070817407 8.061529094230933 8.616296076031794 0 0 0
164 1 4.319271779242239 7.816545943457286 7.5056793117285965 1 0 0
165 1 7.34800784002133 7.396856610583959 6.768638937898894 1 0 0
166 1 9.158118708117799 7.898064737978873 9.012402045080831 0 0 0
167 1 7.081173302562139 9.07003295594488 10.229510815497724 0 1 0
168 1 13.178433455225836 7.462406143049492 7.139153886380821 0 0 0
169 1 13.731478339361582 10.289931267819211 7.574833766238143 0 0 1
170 1 18.164510116882752 7.867046725891296 7.392160943519522 0 0 0
171 1 17.735155961572485 10.566046394608028 6.58765403579362 0 0 1
172 1 21.754668161078033 8.230724553430473 6.953792692807239 0 1 1
173 1 7.017451530544709 22.155282858727208 -0.03735568218369817 1 0 1
174 1 10.49124629065641 10.243660422844037 8.146026013363795 1 0 0
175 1 13.208383993603494 13.033445773307234 8.63648577082521 0 0 0
176 1 15.598221739562579 9.800038117299577 9.247681000472946 0 0 0
177 1 18.65506011286497 11.890977585928775 8.693368299334457 0 0 0
178 1 0.7118260742598485 14.40492432495316 0.3880916124626429 0 0 1
179 1 23.644144563704465 9.796617418488385 8.021945701263686 0 0 0
180 1 1.6507295578608154 12.990435384549391 6.769885036312586 1 1 0
181 1 0.8974468346363524 15.614027286580704 8.169872376265696 1 0 1
182 1 6.50867391013106 14.387373604114352 8.319107459838994 0 0 0
183 1 8.747981884514289 13.585966406880525 6.286635415327007 1 0 0
184 1 10.604981883212188 14.945083682693188 7.95734849316241 1 0 0
185 1 17.373174938159526 14.267632719545833 7.329456323244439 0 0 0
186 1 13.899856743893995 15.379006200236216 4.687261396290432 0 0 0
187 1 15.310109095800064 14.989948111246498 8.879310782771018 0 0 1
188 1 20.998065910821957 15.57351511540166 6.354125413793982 0 0 1
189 1 15.219016920464922 22.066285868578145 23.141415062913058 0 0 0
190 1 1.9254000586549895 18.971352649404682 6.6792806779963065 1 0 1
191 1 6.004866015322821 17.279074295199834 7.559134813200933 0 0 0
192 1 9.684006758608625 17.624051019022225 7.393818458656848 0 0 0
193 1 12.21118826759633 18.591601208747086 6.221939654965336 0 0 0
194 1 13.207277280737848 16.36839312603419 7.414050742978818 0 0 1
195 1 18.97588833441579 16.489093571843178 7.38622760289622 0 0 1
196 1 18.49817658126554 18.043444910800822 9.778648552937552 0 0 0
197 1 23.337227020868607 17.659150838975574 6.125185886570765 0 0 0
198 1 21.119294578264753 18.536215761297186 10.088304712974459 0 0 1
199 1 0.3709811244944148 3.963759084951697 18.011322050028433 0 0 0
200 1 22.09611105190528 22.3250215083244 14.707519412634355 0 0 0
201 1 5.071828077412911 21.145092583341892 7.8406409190373765 1 0 0
202 1 3.610778313078254 20.746202090567756 5.3266750563645 0 0 0
203 1 7.770370602966001 20.501823027541953 7.401485862975449 0 0 0
204 1 13.047158237943416 20.827012327257 7.624804963695903 0 0 0
205 1 11.879091735009482 23.104789120823046 6.578803637207242 0 0 1
206 1 15.433147396541786 20.71441165233042 6.495929277654593 0 0 0
207 1 17.22103876640972 20.612817492060568 8.664506149915118 0 0 0
208 1 22.134170406371517 19.29770486684676 7.8236686733409115 0 0 0
209 1 20.355285977834217 24.287934601371266 13.175455328502137 0 0 0
210 1 4.876678619234245 1.391071100925858 12.154200516446654 1 1 0
211 1 23.93303343662701 10.789346360280348 12.200176381354883 0 0 0
212 1 13.350599529376918 2.9161299863757044 9.364631776937124 0 0 0
213 1 12.845549893677859 22.27547048831499 21.77230141626996 0 0 0
214 1 9.549666370745978 21.206388064437576 24.450592789007988 0 0 0
215 1 20.663771789424406 3.386595024297248 11.355055643408411 0 1 0
216 1 24.21537422573122 21.944620534250667 10.880087300819213 0 0 0
217 1 24.21060781321621 1.0246285973947107 12.687902522426096 0 0 0
218 1 3.2632141936259376 3.4983823010044928 12.13736564777554 1 0 0
219 1 9.276204029545912 3.760172580956742 8.358166060206825 1 1 0
220 1 5.395184788449509 7.687044536055091 13.702642331785706 0 1 0
221 1 7.304952089272314 4.421719491563845 11.7167555610653 0 1 0
222 1 7.749734273388231 2.9327156780411427 14.298168095443136 0 0 0
223 1 12.395228705453277 4.65258445488624 11.14802198609987 0 0 0
224 1 14.489530797386104 6.459338762668642 11.333979775075004 0 1 0
225 1 15.615668675732236 4.104787912715808 8.051562424965788 0 0 0
226 1 16.59355530708926 5.031989660635353 10.524098160671343 0 0 1
227 1 19.909656939098696 5.66509067482191 9.907678175961312 0 0 0
228 1 20.670346087417418 6.021883093128032 14.975828108682128 0 0 0
229 1 23.283519701618907 5.910032119422922 12.839739720360804 0 1 0
230 1 21.269440931888887 7.255160322259734 11.087488554728223 0 0 0
231 1 3.3246020839981507 7.5483958821501735 10.29189861367531 0 0 0
232 1 7.931130361245942 8.570220751737647 13.10169020255628 0 0 1
233 1 12.284961630739218 7.848421215393227 9.760550932814578 0 0 0
234 1 9.531822772143848 5.511871281857062 10.595570532909239 0 0 1
235 1 17.701854576905966 7.8994478979823555 10.01568311675038 0 0 0
236 1 16.75631423725198 8.533166204600127 12.588076526600998 0 0 1
237 1 22.100588183139074 9.752556785132828 10.187119951925109 0 0 0
238 1 1.9189720780496102 13.800869345324454 10.216978721260885 1 0 1
239 1 3.4485428945907284 1.002137913853893 8.830389551023504 1 0 1
240 1 4.885844370179684 13.904369407190552 10.824575658084727 0 0 0
241 1 7.371627511549281 11.916006267528612 10.405295946372323 0 0 0
242 1 9.663191099050252 12.684015354938499 11.590238943177988 0 0 0
243 1 11.745236538050358 11.36729227021682 10.529534832983098 0 1 0
244 1 13.73721750068835 9.648271001560433 11.53800874814325 0 0 0
245 1 15.901380619458182 12.284779456048934 10.786323656114423 0 0 0
246 1 16.560163070845395 12.44442899820206 13.5413726733813 0 0 0
247 1 18.354567368842563 10.818291590355253 11.208440381939074 0 0 1
248 1 21.14369405707322 11.596602039883471 7.518658726250604 0 0 0
249 1 3.6843475942466153 20.06666924230155 23.28763645676414 0 0 0
250 1 2.627459000126365 16.87838805939943 11.93814528526816 1 0 0
251 1 1.0989383285710943 14.835074819991734 12.258952430112076 0 0 1
252 1 5.57480527794555 16.402448670050752 12.347602126160233 0 0 0
253 1 7.7904166729765905 16.231739976451575 10.338630163146256 0 0 0
254 1 10.09492516543731 14.90208360853714 10.737337986295515 0 0 0
255 1 12.18314482815275 16.54858243246216 12.083670305204622 0 0 0
256 1 14.91967845830196 16.468426546771898 11.135076403373835 0 0 0
257 1 20.8243258743091 14.230795238034315 11.016504151565963 0 0 0
258 1 16.53072678539683 15.289972702233186 12.960283360226892 0 0 0
259 1 20.53638565226417 11.761154643462987 11.750991241810631 0 0 0
260 1 1.640645458694127 17.916159062111113 9.57173209335634 1 0 0
261 1 22.418331409171955 0.21021732006515886 17.71577982986975 0 0 0
262 1 13.579203182600274 6.841952382540153 -0.21817806808666737 0 1 1
263 1 4.7178088575167445 18.785427724104043 9.557807070768776 0 0 0
264 1 7.1710693561607455 18.827393641861505 11.750867041658417 1 0 0
265 1 9.308207994743071 19.20934387350816 9.702527002434518 1 0 0
266 1 11.593784762964669 19.22329461548682 11.574474925597409 1 0 0
267 1 15.943910681838137 19.020086440288797 10.843184786735543 0 0 0
268 1 19.017300207120087 16.01866677554941 11.496490429537552 0 0 0
269 1 16.469185172669015 19.537990058588772 13.380652416309834 0 0 0
270 1 22.637068182789076 18.344950985414908 12.279573854799937 0 0 0
271 1 20.364806882544947 17.67724083630269 13.741482164146337 0 0 0
272 1 2.5161255501173487 21.11167952772025 9.628740683330799 1 0 0
273 1 24.352947290899913 14.743723665417017 9.573412369903489 0 0 0
274 1 5.103054298610477 23.559046865470084 9.601335887750093 0 0 1
275 1 6.3949696536306995 21.586310838888505 11.193219436797664 0 0 0
276 1 10.59223293799203 23.352849388228737 11.441525918839698 0 0 0
277 1 8.941748744427457 22.165451137222266 9.738799159058988 0 0 0
278 1 13.601101378348407 22.975565724490984 11.650955165495262 0 0 0
279 1 13.809265727084021 20.5738038790438 10.253281865819874 0 1 0
280 1 16.664299891836116 22.6167752109949 10.665397462900975 0 0 0
281 1 1.1418265395825282 4.756669009753521 23.679262523658196 1 0 0
282 1 20.109309995896115 21.358250075040644 10.579277757136985 1 0 0
283 1 18.490072499775437 21.651880888499047 0.372831074981515 0 0 0
284 1 22.060781875295074 23.1093519918223 10.42675955586246 0 0 0
285 1 2.580580969039189 0.8028737392836025 16.53076527481682 0 0 0
286 1 0.6004086613257495 4.018819161732041 13.608753105968026 0 1 0
287 1 16.20267157298004 6.922780629987866 0.2370304679884968 0 0 0
288 1 24.07105427246152 12.110322786734399 6.575452620667648 0 0 0
289 1 5.452274986591949 3.7871022997341024 16.682542695288518 0 0 0
290 1 11.031903509349439 22.6484247354733 3.8686622904609624 0 0 0
291 1 9.361755655483442 0.2900604838769665 24.896457839964715 0 0 0
292 1 1.3909015810639054 14.290927144642623 16.452097709015035 1 0 0
293 1 10.475619790796333 1.8284466794372645 15.060422837327726 0 1 0
294 1 17.76338488624152 2.7321572547794446 11.470963325164448 1 0 0
295 1 18.29687243974157 2.874769656746691 14.316560223523044 0 0 0
296 1 5.396594854893578 1.6288070967029966 0.017390539506231095 0 1 1
297 1 0.6896421562902519 5.789504201365101 11.201226140718918 0 1 0
298 1 5.014781692810492 1.64496162332071 15.12569031079613 0 0 0
299 1 6.463884507008338 6.313100107945998 15.598640524603441 1 1 0
300 1 9.095590773153859 5.32939916956946 15.4914418288226 0 0 0
301 1 11.195004465784528 4.5515984141330765 17.119709630394627 0 1 0
302 1 13.837525950357614 1.3111906814743621 14.952966578761641 0 0 1
303 1 18.04413619688863 5.369624105140209 15.454160569138121 0 0 0
304 1 21.24535899655392 1.8336091471704776 13.893563545987607 0 0 0
305 1 1.6053810972178455 7.0960112804413935 16.4606798118467 1 0 0
306 1 2.7702815165442995 10.01826339640232 11.958207877865553 0 0 0
307 1 3.5719358055569423 8.809537564022426 15.65256876888418 0 1 0
308 1 9.748303608524274 6.600642173648639 13.142882254933658 0 1 0
309 1 11.62985447488766 8.733884302750331 13.551172957671701 0 0 0
310 1 13.839626587457554 6.9026830658972385 14.225962271572714 0 0 1
311 1 17.655006417648963 10.409579544677168 15.779134788304543 0 0 1
312 1 18.80967634296452 9.73902653849438 18.43291360489926 0 0 0
313 1 22.335716239378836 8.046815671865161 16.116436314072153 0 1 0
314 1 1.385152769865131 10.085401636603313 14.266110117582107 0 0 0
315 1 5.206054644872279 11.566909405068607 12.693566780354242 0 0 0
316 1 4.475040307373614 12.893726789155107 14.960293678668119 0 0 0
317 1 7.290421023105368 10.788386188948563 14.430163690654696 0 0 0
318 1 9.487727830636922 12.506463842924736 14.357409477179973 0 0 0
319 1 11.756844724445267 11.200479540371626 15.254290084593743 0 0 0
320 1 14.270912787178961 12.467223383091168 15.439990339219918 0 0 0
321 1 16.412304985190026 13.480170393630107 18.235711499854894 0 0 0
322 1 20.12360009119809 10.909177714485413 14.492357693600535 0 0 0
323 1 19.273028295700264 13.730012961249324 14.629224490047022 0 0 0
324 1 22.215948006317532 10.9800078859445 15.772492059295615 0 0 0
325 1 1.7568004625200113 12.980422478363964 14.178091538900404 1 0 0
326 1 5.943590352344497 15.119634766080797 15.096229494571357 0 0 0
327 1 8.346568510880248 14.388416985490297 16.102577964700924 0 0 0
328 1 9.4074976114026 16.970802235721386 15.542325553121128 1 0 0
329 1 13.772167552623737 14.82691387309255 16.618750237281244 1 1 0
330 1 18.969986445747768 13.286377718804173 17.421767565285084 0 0 0
331 1 22.779096997551953 13.687590872927982 16.352431077363683 0 0 0
332 1 21.584342367429453 14.993405348471974 14.12520910330414 0 0 0
333 1 2.8531876169937687 18.818756012062323 13.873778367260094 0 0 0
334 1 0.6798933059220055 11.436236015029506 11.066148413313053 1 0 0
335 1 2.4349202325972796 21.08506558657582 12.368257801462878 0 0 0
336 1 7.922429543250869 19.106086547650456 14.392794962172832 0 0 0
337 1 11.876999007307072 15.98731002124526 14.651936002344554 0 0 0
338 1 12.655368325030375 18.838272849883875 15.491778861078622 0 0 0
339 1 14.951163781729155 17.31249428634918 16.653109065746946 0 0 0
340 1 17.14569777252503 17.194384399416137 14.812065807371454 0 0 0
341 1 19.91053351593866 20.305446054834857 14.577300852375291 0 0 0
342 1 1.3493406873855858 24.261155235014883 15.976673397676812 1 0 0
343 1 3.604846976533156 23.837901404427317 4.875012295413385 0 0 0
344 1 5.83685396173266 23.255243285061333 16.34117272574685 0 0 0
345 1 6.938808470224364 23.135231553563756 13.862833057310505 1 0 0
346 1 8.953701597809442 21.699997276929373 15.295526942975377 1 0 0
347 1 11.411006758050119 21.091440630667616 13.664738387593227 0 0 0
348 1 14.903605078248177 20.666852261727467 15.37183493664145 0 0 0
349 1 13.74263698882577 22.775184920018987 14.084936171773299 0 0 0
350 1 17.72327415500071 21.08963142870908 16.73650485413633 0 0 0
351 1 18.605844176755948 21.84744527608297 12.667075311230057 0 0 0
352 1 22.189565019512788 20.134177667409066 24.46194162924594 0 1 0
353 1 14.680286926272261 19.66011080434186 23.85359487578303 0 0 0
354 1 7.094800314317581 2.702599005545939 18.528107245905975 0 0 0
355 1 20.311742447705853 0.9571753585553494 24.604302998533786 0 0 0
356 1 10.323391877126573 1.6454612423933879 17.875238226858166 0 0 0
357 1 0.6120677519420642 19.19477787677028 15.596235662061781 0 0 0
358 1 15.772955591991838 3.182540707706765 16.06180587027057 0 1 0
359 1 16.69678104633753 2.1378935389285108 19.025978129772188 0 1 0
360 1 19.398054317602515 1.504261205550938 20.364604555184048 0 0 0
361 1 22.320804153321447 2.919901178404941 17.714513555340684 0 1 0
362 1 19.792188399694375 16.61988704343905 23.68825838056183 0 0 0
363 1 2.964553614310616 5.079871040816669 17.92650628997199 0 1 0
364 1 3.361672126972872 5.639045069927181 20.77357450004836 1 0 0
365 1 8.856109025432952 4.725189166460894 18.851191118295183 0 0 0
366 1 11.808087647153913 3.843174623543615 13.473775817225462 0 0 0
367 1 13.522219189384625 4.8286642584366986 15.418365909773414 0 0 0
368 1 20.38781887879953 4.021746251921097 19.538414097081947 0 0 0
369 1 17.967784160985737 5.63795045639355 18.161237694448168 0 1 0
370 1 22.905849775412943 3.6953923569893297 14.902879595407635 0 0 1
371 1 0.6176628162913298 8.885414657209479 17.94656906106802 0 1 0
372 1 7.207128666260146 10.86314675974009 17.133891307440475 0 0 0
373 1 6.20826094687305 8.267624403735068 17.516144262053064 0 0 0
374 1 3.1919363119903967 10.16102056575635 18.476929193811106 0 0 0
375 1 13.491565572418876 6.285777293031159 18.085562860738925 0 1 0
376 1 10.952455770549328 11.055413399618505 17.895907575069643 0 0 0
377 1 15.33887867337821 8.127631322945229 17.89297898623254 0 0 0
378 1 16.329972880910994 7.810116068268198 15.60334797435883 0 1 0
379 1 14.984132220736585 11.094617016702376 17.738399601807153 0 0 0
380 1 20.740990204167336 7.128197556562783 18.590433131752814 0 0 0
381 1 23.157616536693503 7.17654927691857 19.747284115188673 0 0 0
382 1 24.48996203180733 7.771797080040965 17.53998329176914 -1 0 0
383 1 5.482212553653891 24.224058916536094 19.03165149578566 0 0 0
384 1 1.3174622635630044 12.719205484511148 18.541130553467333 0 0 0
385 1 4.934534807223711 12.139389336404872 17.69397367628566 1 0 0
386 1 5.14607323251405 14.317996618750266 19.464191290672648 0 0 0
387 1 8.769990705489768 14.870715629759447 18.99589400684842 0 0 0
388 1 8.749902411552101 12.005935275157057 19.390566221882864 0 0 0
389 1 19.02163574545744 14.160678928403346 21.056127304751456 0 0 0
390 1 21.010657682330564 11.726785983653526 18.27525291128938 0 0 0
391 1 16.057178840773467 17.07808005518648 23.17763743942722 0 0 0
392 1 21.99801295830357 13.516384143389793 20.626161568989815 0 1 0
393 1 11.85540145482479 23.991837795726987 16.190348863974634 0 0 0
394 1 4.974378274909247 16.873281076175672 16.78719086946302 1 0 0
395 1 2.5404600600677 16.288294892811802 17.739632473306614 1 0 0
396 1 7.61804314751365 20.265469910725564 18.097088964163802 0 0 0
397 1 13.212405951513801 15.385681916764051 19.166664086443795 0 0 0
398 1 19.492232792551242 16.90420277392574 16.425168587899037 0 0 0
399 1 21.629569584264168 15.24482329381977 18.257546139688618 0 0 0
400 1 3.0948293935693334 23.13692965202019 14.219208493997606 1 0 0
401 1 5.055238162013153 18.80631894540956 14.98382700623514 0 0 0
402 1 9.734455846437724 18.288684332906055 17.77809188365963 0 0 0
403 1 15.853495238199745 17.371226095588764 19.33929734196912 0 0 0
404 1 16.20841266501399 20.241102345507958 19.342046017067588 0 0 0
405 1 21.3936785084317 18.807921382912294 17.111099932299382 0 0 0
406 1 23.081101715950975 17.452208509507553 19.14437462385705 0 0 0
407 1 19.781548066311487 8.17458625482795 13.516982192260247 0 0 0
408 1 3.950007065679904 19.93315798017568 18.73679025467385 0 0 1
409 1 10.291119151056915 0.5860507622751137 7.777453499570795 0 1 1
410 1 23.328250914324528 5.70434248238414 6.25624305679438 0 0 1
411 1 10.124083087772165 22.08011289998067 17.540323267756317 1 0 0
412 1 11.66353142279564 20.178243615528416 17.864678138264782 0 0 0
413 1 14.250242868369169 21.675618791481984 17.88230607174989 0 0 0
414 1 20.912598941836436 22.91228338800295 18.38158483454109 0 0 0
415 1 19.833394495418744 20.18470910441547 18.634674728501224 0 0 0
416 1 23.426343901219955 20.750253928796596 16.735657315577342 0 0 0
417 1 3.4866046621131 2.666068715158196 21.11741066867335 0 1 0
418 1 7.420023515814223 1.4338682402817853 21.10866472385596 0 0 0
419 1 12.788976851037658 14.150668082808146 23.61162247113661 1 0 0
420 1 11.585632425473209 2.1496527273407158 20.350144538366592 0 0 0
421 1 15.943385969191109 2.9600622339660805 23.192898069567637 0 0 0
422 1 18.162157835157796 1.1311843999004891 22.950684522497937 0 0 0
423 1 24.1350235045146 1.360838661832664 8.353168046549644 0 1 0
424 1 23.646238958225652 1.889428408445881 21.587296216605317 0 1 0
425 1 5.940975916852344 6.429848243395735 21.366150172771725 1 1 0
426 1 9.49655856823592 3.402796344690042 21.348102952666412 0 0 0
427 1 12.395133366458264 6.7593347573766955 22.078363366134592 0 1 0
428 1 15.266112165891826 7.578988766666612 23.533349834221667 0 0 0
429 1 13.147797186210006 4.432094271185076 20.163806940151797 0 0 0
430 1 15.779040922086994 3.878174220812404 20.793408929073234 0 0 0
431 1 17.154760188805906 6.197777029288035 21.576397879603906 0 1 0
432 1 21.811524111143683 5.234576458585779 24.195281461301697 0 1 0
433 1 21.925227103590405 5.020113752700609 21.48216481392558 0 1 1
434 1 2.3337760633640885 9.136636497990274 21.77915499400623 0 0 0
435 1 0.8030800211371103 6.59665190229419 21.524811328592463 1 1 0
436 1 4.761502414939357 8.833444955964351 20.280933004534948 0 0 0
437 1 6.287364834844877 10.691222774799853 21.506758561811285 0 0 0
438 1 7.935050931739704 6.988614701659351 19.473683796433612 0 1 0
439 1 9.21270744340228 10.186101426680928 22.057511572934516 0 1 0
440 1 10.102635246899338 7.978100805150558 20.766069799542695 0 1 0
441 1 11.936462692256024 8.698362662502168 18.794707339374746 1 0 0