
# Create simulation box of size 49.22 x 49.019 x 60.06 Angstrom
#
region 	     all block 0 ${XDIM} 0 ${YDIM} 0 ${ZDIM} units box
region 	     all block 0 49.22 0 ${YDIM} 0 ${ZDIM} units box
region 	     all block 0 49.22 0 49.019635930410494 0 ${ZDIM} units box
region 	     all block 0 49.22 0 49.019635930410494 0 60.062 units box
create_box          1 all
Created orthogonal box = (0.0000000 0.0000000 0.0000000) to (49.220000 49.019636 60.062000)
  2 by 2 by 3 MPI processor grid

# fill box with randomly distributed atoms of number density 0.0327 N/A**3
#  ~800 atoms will eventually be removed to insert the substrate
#
create_atoms        1 random 4739 63782 all
Created 4739 atoms
  create_atoms CPU = 0.000 seconds
mass                1 18.015

# Define potential
#
pair_style          sw
pair_coeff          * * ML.sw mW
Reading sw potential file ML.sw with DATE: 2019-02-27

# Run minimization
#
minimize            1.0e-8 1.0e-8 10000 1000
WARNING: Using 'neigh_modify every 1 delay 0 check yes' setting during minimization (../min.cpp:187)
Neighbor list info ...
  update every 1 steps, delay 0 steps, check yes
  max neighbors/atom: 2000, page size: 100000
  master list distance cutoff = 6.0032907
  ghost atom cutoff = 6.0032907
  binsize = 3.0016454, bins = 17 17 21
  1 neighbor lists, perpetual/occasional/extra = 1 0 0
  (1) pair sw, perpetual
      attributes: full, newton on
      pair build: full/bin/atomonly
      stencil: full/bin/3d
      bin: standard
Per MPI rank memory allocation (min/avg/max) = 4.218 | 4.221 | 4.223 Mbytes
Step Temp E_pair E_mol TotEng Press 
       0            0    6625092.3            0    6625092.3    4360148.2 
     650            0   -51047.929            0   -51047.929   -699.63574 
Loop time of 1.27251 on 12 procs for 650 steps with 4739 atoms

97.2% CPU use with 12 MPI tasks x no OpenMP threads

Minimization stats:
  Stopping criterion = max force evaluations
  Energy initial, next-to-last, final = 
      6625092.29967298  -51047.6933616985   -51047.929427871
  Force two-norm initial, final = 1.1610230e+08 4.1101899
  Force max component initial, final = 67075401.0 1.3136830
  Final line search alpha, max atom move = 0.075575468 0.099282206
  Iterations, force evaluations = 650 1001

MPI task timing breakdown:
Section |  min time  |  avg time  |  max time  |%varavg| %total
---------------------------------------------------------------
Pair    | 0.67985    | 0.79821    | 0.89375    |   6.2 | 62.73
Neigh   | 0.016283   | 0.019662   | 0.034696   |   4.0 |  1.55
Comm    | 0.28169    | 0.38601    | 0.52434    |  10.4 | 30.33
Output  | 0          | 0          | 0          |   0.0 |  0.00
Modify  | 0          | 0          | 0          |   0.0 |  0.00
Other   |            | 0.06863    |            |       |  5.39

Nlocal:        394.917 ave         412 max         382 min
Histogram: 1 2 1 1 3 2 0 0 1 1
Nghost:        1001.17 ave        1028 max         969 min
Histogram: 1 1 2 0 0 2 1 2 1 2
Neighs:        0.00000 ave           0 max           0 min
Histogram: 12 0 0 0 0 0 0 0 0 0
FullNghs:      11132.2 ave       11747 max       10379 min
Histogram: 2 0 1 0 2 2 1 1 1 2

Total # of neighbors = 133586
Ave neighs/atom = 28.188647
Neighbor list builds = 25
Dangerous builds = 0

# Add velocity/set timestep
#
velocity            all create ${TEMP} 120598 rot yes dist gaussian
velocity            all create 235 120598 rot yes dist gaussian
timestep            5.0

# Define output
#
compute	            1 all msd
thermo	            100
thermo_style        custom step temp press vol etotal ke pe c_1[4] density

# Neighbor lists
#
neigh_modify        delay 0 every 1 check yes

# Set fixes
#
fix                 1 all momentum 10 linear 1 1 1 rescale
fix                 2 all nve
fix                 3 all temp/csvr ${TEMP} ${TEMP} 500.0 928347
fix                 3 all temp/csvr 235 ${TEMP} 500.0 928347
fix                 3 all temp/csvr 235 235 500.0 928347
fix                 4 all press/berendsen z ${PRES} ${PRES} 1000.0 modulus 20000
fix                 4 all press/berendsen z 1 ${PRES} 1000.0 modulus 20000
fix                 4 all press/berendsen z 1 1 1000.0 modulus 20000

# Run 0.5 ns equilibration
#
dump                1 all custom 1000 eq.${NAME}.dump id type x y z vx vy vz
dump                1 all custom 1000 eq.liquid_ML.dump id type x y z vx vy vz
run                 100000
Per MPI rank memory allocation (min/avg/max) = 3.468 | 3.471 | 3.473 Mbytes
Step Temp Press Volume TotEng KinEng PotEng c_1[4] Density 
     650          235    347.29654    144914.38   -47729.006    3318.9233   -51047.929 8.2379898e-34   0.97826959 
     700    135.49388   -356.91883    144957.72   -46963.219    1913.5907    -48876.81   0.22875279   0.97797708 
     800    179.06031   -323.85024    144772.38   -45921.272    2528.8828   -48450.155     0.655276   0.97922912 
     900    204.12336    18.558469    144584.02   -45346.071    2882.8502   -48228.922    1.1051377   0.98050483 
    1000    219.49236   -285.23717     144383.3   -44931.106    3099.9077   -48031.014    1.5386488   0.98186789 
    1100    225.67505   -449.85179     144134.2   -44749.209    3187.2264   -47936.435    2.0146859   0.98356486 
    1200    223.19134   -117.26828    143869.52   -44770.558    3152.1487   -47922.707    2.4986665   0.98537429 
    1300    229.15075   -5.9418299    143701.68   -44722.466    3236.3139    -47958.78    2.9149815   0.98652518 
    1400     229.0518    66.313317    143726.04   -44711.461    3234.9164   -47946.377    3.4515613     0.986358 
    1500    232.95479   -116.38049    143625.15   -44711.203    3290.0387   -48001.241    3.9606454   0.98705085 
    1600    237.02001    53.313739    143535.15   -44610.149    3347.4522   -47957.601     4.506582   0.98766976 
    1700    237.21395   -41.070806    143527.86   -44567.191    3350.1912   -47917.382    5.0459658   0.98771995 
    1800    231.89304   -72.846202    143444.75   -44700.799    3275.0434   -47975.843    5.5989545   0.98829219 
    1900    230.44464   -53.367788     143415.4   -44710.391    3254.5876   -47964.979    5.9760728   0.98849444 
    2000    229.00341     12.61127    143434.31   -44679.401    3234.2331   -47913.634    6.4295855   0.98836412 
    2100    241.33709   -299.69735    143412.49   -44566.823    3408.4226   -47975.246     6.920628   0.98851453 
    2200    240.02863    232.65325    143324.54   -44615.671     3389.943   -48005.614    7.5101878   0.98912116 
    2300    235.19913   -12.110418    143252.34   -44660.925    3321.7356    -47982.66    8.1248738   0.98961965 
    2400    239.20346   -18.837358    143238.31    -44665.92    3378.2892    -48044.21     8.648488   0.98971659 
    2500    236.41701   -133.89606    143134.76   -44640.266    3338.9359   -47979.202    9.0898484   0.99043261 
    2600    237.67133    168.09805    143063.43   -44583.625    3356.6507   -47940.276    9.6221742   0.99092641 
    2700    239.95919    92.769029     143123.3   -44583.673    3388.9624   -47972.635    10.191679   0.99051186 
    2800    236.71781   -212.30967    143248.76   -44587.926    3343.1841    -47931.11    10.590586   0.98964437 
    2900    237.95924    56.952127    143163.73   -44615.964     3360.717   -47976.681     10.99996   0.99023215 
    3000    231.00483    72.361289    143223.34   -44688.056    3262.4992   -47950.555    11.501312   0.98982001 
    3100    239.34411    37.975647    143158.44   -44633.204    3380.2755    -48013.48     12.10778   0.99026877 
    3200    237.75256    49.701504    143440.32   -44703.066    3357.7979   -48060.864    12.595025   0.98832277 
    3300    236.11232   -29.045335    143629.33   -44736.704    3334.6328   -48071.337    13.022817   0.98702216 
    3400    237.19231    47.006823    143668.84   -44771.344    3349.8855   -48121.229    13.626127   0.98675072 
    3500    234.29219   -51.166822    143678.96   -44814.849    3308.9269   -48123.776    14.132878   0.98668121 
    3600    235.85677   -222.34855    143591.46   -44814.369    3331.0236   -48145.393    14.532441   0.98728247 
    3700     232.6524    25.773192    143530.83    -44877.31    3285.7679   -48163.078     15.05499   0.98769949 
    3800    236.18314    121.49694    143445.98    -44866.57    3335.6329   -48202.203    15.532729   0.98828375 
    3900    236.41682   -67.253221     143409.5   -44874.899    3338.9332   -48213.832    15.917142   0.98853515 
    4000    230.68825    -109.0588    143348.57   -44879.843    3258.0281   -48137.871    16.429493   0.98895535 
    4100    237.86151    92.380124    143329.06   -44899.632    3359.3367   -48258.968    16.694744   0.98908991 
    4200     234.1374   -17.412452    143292.54   -44876.352    3306.7408   -48183.092    17.091675   0.98934199 
    4300    236.09264   -25.627686    143388.73    -44887.09    3334.3548   -48221.445    17.586415   0.98867835 
    4400    232.60482    75.247575    143133.92   -44876.668     3285.096   -48161.764    17.873804   0.99043838 
    4500    234.90496    138.76145    143248.15   -44834.004    3317.5811   -48151.585    18.349931   0.98964861 
    4600    235.09898     253.9008    143391.92   -44892.915    3320.3213   -48213.236    18.683055   0.98865633 
    4700    236.15804    152.40037    143554.62   -44869.893    3335.2784   -48205.171    18.886031   0.98753586 
    4800    233.99705    43.388261    143616.33   -44892.307    3304.7586   -48197.065    19.235969   0.98711151 
    4900    239.51071   -93.551512    143702.23   -44731.341    3382.6284   -48113.969    19.319929   0.98652144 
    5000    238.16464    28.074164    143591.94   -44658.761    3363.6177   -48022.379    19.582813   0.98727915 
    5100    236.55499   -24.160941    143512.65   -44736.845    3340.8846    -48077.73    19.805506   0.98782465 
    5200    234.76315   -33.726587    143584.27   -44806.417    3315.5783   -48121.996    20.371296   0.98733191 
    5300    241.01907    87.165129    143527.93   -44750.744    3403.9311   -48154.675    20.760096   0.98771947 
    5400    239.89779    308.39844    143628.49   -44782.824    3388.0953   -48170.919    21.173602   0.98702791 
    5500     234.2486   -7.9744166    143792.77   -44837.211    3308.3112   -48145.522    21.786191   0.98590027 
    5600    231.86948   -134.80758    143803.66   -44863.748    3274.7108   -48138.459    22.399237   0.98582558 
    5700    233.63522   -172.77474    143717.54    -44835.13    3299.6485   -48134.778    22.752735   0.98641636 
    5800     233.7103   -143.61056    143379.92   -44809.786    3300.7089   -48110.495    23.143332   0.98873905 
    5900    231.96208    20.991965    143404.58   -44880.536    3276.0185   -48156.554    23.526341   0.98856904 
    6000    235.49577    204.20187    143437.57   -44910.778    3325.9251   -48236.703    24.128845   0.98834167 
    6100    237.37914    235.75118     143447.6   -44874.212    3352.5241   -48226.736     24.59501   0.98827261 
    6200    234.72835    142.53781    143563.69   -44918.973    3315.0868    -48234.06    25.067328   0.98747345 
    6300    234.77069    -33.78748    143740.87   -44916.787    3315.6847   -48232.471    25.448091   0.98625623 
    6400    233.53907    32.442953    143670.58   -44870.533    3298.2905   -48168.823     25.67636   0.98673878 
    6500    234.15608   -30.271076    143648.12   -44810.699    3307.0045   -48117.703    26.085005   0.98689301 
    6600    235.60838   -183.11383    143647.28   -44859.508    3327.5155   -48187.023    26.178456    0.9868988 
    6700    231.55651    277.02701    143475.08   -44914.013    3270.2906   -48184.304    26.420595   0.98808331 
    6800       233.68   -0.1571844     143591.6    -44860.65    3300.2808   -48160.931    26.741912   0.98728147 
    6900    235.51929     250.7217    143739.81   -44843.123    3326.2574   -48169.381    27.018915   0.98626352 
    7000    236.01235    132.72889    143857.53    -44781.37    3333.2209    -48114.59    27.285618   0.98545647 
    7100     235.6808    205.40138    143678.45   -44797.289    3328.5384   -48125.828    27.728588   0.98668472 
    7200    234.40414   -295.13305    143575.55   -44796.702     3310.508    -48107.21    28.105731   0.98739184 
    7300    233.04874   -125.60494    143403.85   -44901.396    3291.3655   -48192.762    28.514085   0.98857409 
    7400    227.95412      20.7952    143442.54   -44884.899    3219.4138   -48104.313    28.858189   0.98830744 
    7500    233.57444    192.86769    143587.66    -44868.71      3298.79     -48167.5    29.483753    0.9873086 
    7600    233.12821   -185.33232    143642.96   -44966.581    3292.4879   -48259.069    29.804694   0.98692852 
    7700    232.19302    79.511735    143565.68   -44895.981    3279.2801   -48175.261    30.131083   0.98745976 
    7800    232.10112   -235.17033    143421.65   -44844.226    3277.9822   -48122.208    30.530409   0.98845139 
    7900    234.22099   -244.99823     143310.1   -44938.054    3307.9213   -48245.975    31.124735   0.98922079 
    8000    233.48882    150.87758    143235.19   -44938.793    3297.5808   -48236.374    31.378092   0.98973814 
    8100    227.79221    32.350174    143329.96   -44965.604    3217.1272   -48182.731    31.963395    0.9890837 
    8200    234.73464    18.456864    143452.17   -44956.794    3315.1756   -48271.969    32.378266   0.98824113 
    8300     231.8051    178.31687    143336.09   -44992.365    3273.8015   -48266.166    32.694832   0.98904139 
    8400    231.34351    356.24834    143372.81     -44940.7    3267.2824   -48207.983    33.066726   0.98878815 
    8500    236.16804    221.90052    143524.01   -44897.114    3335.4197   -48232.534    33.616151   0.98774646 
    8600    232.58425   -91.544714    143625.82   -44895.382    3284.8055   -48180.188    34.141569    0.9870463 
    8700    233.01716   -36.908032    143693.48   -44877.035    3290.9195   -48167.954    34.670229   0.98658148 
    8800    233.88116    41.333885    143683.92   -44888.635    3303.1219   -48191.757    34.875504   0.98664719 
    8900    232.11564     110.6953    143547.07   -44952.244    3278.1872   -48230.431    35.272742   0.98758774 
    9000    236.79662    245.70659    143669.24   -44932.673    3344.2971    -48276.97    35.622299     0.986748 
    9100    233.90192    173.30504    143797.27   -44992.669    3303.4151   -48296.084    35.905331    0.9858694 
    9200    232.51762   -262.94435    143798.84   -44916.852    3283.8645   -48200.716    36.422512   0.98585864 
    9300    232.06078    194.14762    143813.09   -44899.254    3277.4125   -48176.667    36.780083   0.98576097 
    9400    234.91573    337.60218     143931.9   -44909.105    3317.7332   -48226.839    37.066306   0.98494727 
    9500      233.222    46.854961    144003.48   -44877.482    3293.8126   -48171.295    37.333605   0.98445769 
    9600      234.821    125.41603    144068.52   -44894.134    3316.3953   -48210.529    37.835715   0.98401326 
    9700    235.80844     2.691498    144183.08   -44836.442    3330.3411   -48166.783    38.114642   0.98323139 
    9800    233.11609   -134.73189    144061.13   -44849.925    3292.3167   -48142.242    38.273401   0.98406374 
    9900    232.55638   -229.45529    143880.82   -44911.546    3284.4119   -48195.958    38.487885   0.98529691 
   10000    232.70196   -41.836315    143718.43   -44946.256     3286.468   -48232.724    38.590846   0.98641023 
   10100    231.77722     187.7409    143723.75   -44933.557    3273.4078   -48206.965    38.996025    0.9863737 
   10200    229.30902   -28.651539    143557.15   -44946.568    3238.5492   -48185.117    39.442464   0.98751846 
   10300    229.25831      42.1264    143611.93   -45002.664     3237.833   -48240.497    39.870625   0.98714176 
   10400    231.42609   -63.646787    143626.38   -44914.532    3268.4487   -48182.981    40.247579   0.98704242 
   10500    236.60166    4.3570937    143606.33   -44845.085    3341.5437   -48186.629    40.431599   0.98718023 
   10600     233.9076    123.05588    143771.34   -44796.245    3303.4953   -48099.741    40.808191   0.98604721 
   10700      238.683   -1.6488368    143880.76   -44777.926    3370.9386   -48148.864    41.370397   0.98529736 
   10800    235.58654   -106.84213     143944.3   -44824.628     3327.207   -48151.835    41.629564   0.98486241 
   10900    233.63556    65.530069    143963.89   -44805.762    3299.6533   -48105.416    41.924612   0.98472836 
   11000     236.7807    282.93777    143971.27   -44851.019    3344.0724   -48195.091    42.260546   0.98467789 
   11100     233.9771    161.36515    144118.91   -44833.364    3304.4769    -48137.84    42.421293   0.98366921 
   11200    238.39039   -54.910134    144038.57   -44870.098     3366.806   -48236.904    42.638577   0.98421786 
   11300    235.47974   -121.99556    144013.55   -44827.856    3325.6988   -48153.555    43.059878   0.98438886 
   11400    235.63245   -103.22854    143932.95   -44843.816    3327.8555   -48171.672    43.524108   0.98494008 
   11500    234.31834    117.88788       143841   -44865.371    3309.2962   -48174.667    44.092434   0.98556969 
   11600    237.47199    69.577068    143877.44   -44847.984    3353.8355    -48201.82    44.295351   0.98532009 
   11700    236.52747   -122.16613    143750.05   -44804.714    3340.4959    -48145.21    44.752959   0.98619326 
   11800    234.36384   -208.13847    143758.76   -44832.054    3309.9387   -48141.993    45.292939   0.98613353 
   11900    235.72453    41.194978    143768.46   -44830.249    3329.1559   -48159.404    45.638786   0.98606697 
   12000    233.94344    63.919906    143809.79   -44838.942    3304.0014   -48142.943    46.057055   0.98578362 
   12100    238.70167    326.84585    143738.32   -44803.716    3371.2023   -48174.919    46.540516   0.98627373 
   12200    232.64195    14.417814    143801.42   -44775.192    3285.6204   -48060.813     47.28376   0.98584098 
   12300    239.65551  -0.67317349    143804.12   -44784.858    3384.6735   -48169.531     47.63804   0.98582243 
   12400    235.01938    7.1932678    143729.76   -44828.787    3319.1971   -48147.984    47.802642   0.98633246 
   12500    236.79634   -189.73865    143675.73   -44911.956    3344.2931   -48256.249    48.023604   0.98670336 
   12600    232.61853    -58.73605    143578.75     -44827.8    3285.2897    -48113.09    48.434621   0.98736988 
   12700    234.73628    94.465348     143613.4   -44799.657    3315.1987   -48114.856    48.735142   0.98713163 
   12800    239.36627    168.44297    143538.74   -44763.356    3380.5885   -48143.944    49.201902   0.98764509 
   12900    235.37503   -38.110133     143594.2   -44825.258    3324.2199   -48149.478    49.541885   0.98726365 
   13000    236.74176    68.189766    143564.17   -44787.267    3343.5223   -48130.789    49.989371   0.98747011 
   13100    235.68961   -54.983762    143394.07   -44760.162    3328.6628   -48088.824    50.221705    0.9886415 
   13200    241.65012    111.18621    143385.17   -44703.528    3412.8435   -48116.371    50.424753   0.98870286 
   13300    239.77297   -91.756511     143400.8   -44695.444    3386.3323   -48081.776    50.991833   0.98859512 
   13400    234.70354    11.686004    143303.48   -44817.034    3314.7365    -48131.77    51.496883   0.98926649 
   13500    231.67752   -55.404363    143253.86   -44822.085    3271.9997   -48094.084    52.004229   0.98960912 
   13600     231.9357   -117.01899    143202.85   -44862.646     3275.646   -48138.292    52.481464   0.98996165 
   13700    231.89563    165.36908    143134.86   -44806.728    3275.0801   -48081.808    52.872861    0.9904319 
   13800    234.59613    49.945472    143165.72   -44783.244    3313.2194   -48096.463    53.308913   0.99021837 
   13900    236.41535    175.46356     143349.5   -44815.827    3338.9124   -48154.739    53.905965   0.98894893 
   14000    237.81441    340.57253    143515.41   -44793.855    3358.6714   -48152.526    54.025928   0.98780566 
   14100    240.07507   -35.990087    143604.63   -44752.979     3390.599   -48143.578    54.677998    0.9871919 
   14200    236.50107   -56.593995    143712.63   -44829.323    3340.1231   -48169.446    54.794332   0.98645005 
   14300    236.51606    97.350558    143758.19    -44924.81    3340.3348   -48265.145    55.279985   0.98613739 
   14400     235.1983   -76.094206    143868.31   -44897.835    3321.7239   -48219.559    55.750411   0.98538258 
   14500    237.18686    145.83406    143950.53   -44838.802    3349.8085   -48188.611    56.240581   0.98481982 
   14600    233.92754   -58.207993     144164.3   -44856.627    3303.7769   -48160.404    56.543497   0.98335946 
   14700    235.64408    244.45948    144105.43   -44890.365    3328.0197   -48218.385    56.644817   0.98376121 
   14800    232.57342   -119.11706    144194.84   -44975.474    3284.6526   -48260.127    57.218642   0.98315121 
   14900    228.40044   -74.852556    144250.31    -45027.66    3225.7172   -48253.377    57.649541   0.98277312 
   15000    231.54105      126.341    144180.81   -45018.315    3270.0724   -48288.388    57.963156    0.9832469 
   15100    227.66116    209.48744    144237.06   -45058.678    3215.2763   -48273.954    58.331093   0.98286343 
   15200     230.4268    20.926163    144378.73    -45024.05    3254.3356   -48278.386    58.332143   0.98189898 
   15300    231.36243    112.02306    144396.03   -45014.087    3267.5496   -48281.637    58.940897   0.98178136 
   15400    233.57095    34.836839    144466.95   -45021.258    3298.7408   -48319.999    59.217568   0.98129942 
   15500    231.56272   -56.503495    144465.42   -44997.269    3270.3784   -48267.647    59.607126   0.98130976 
   15600    232.09869    213.96195    144398.03   -44963.576    3277.9479   -48241.524    59.850588   0.98176774 
   15700    236.00822   -125.23252    144481.66   -45003.098    3333.1624   -48336.261    60.355197   0.98119946 
   15800    234.82782    65.227603    144269.38   -45004.702    3316.4917   -48321.194    60.592413   0.98264325 
   15900     229.5576   -235.41156    144142.45   -45050.544    3242.0599   -48292.604    60.737718   0.98350855 
   16000    232.35135   -308.99338    143901.72   -45017.671    3281.5162   -48299.188    60.988431   0.98515386 
   16100    235.49873    22.312612    143961.72   -44913.841     3325.967   -48239.808    61.224027   0.98474322 
   16200    230.17604    42.130175     143928.2   -44957.434    3250.7942   -48208.228    61.370221   0.98497258 
   16300    231.38053   -59.871481    143813.08   -44938.835    3267.8052    -48206.64    61.339411   0.98576104 
   16400    236.15823    118.06958    143909.59   -44881.136    3335.2811   -48216.417    61.864221   0.98509999 
   16500    236.78468    51.891862    144066.14   -44851.396    3344.1285   -48195.524    62.541571   0.98402951 
   16600    235.24213    48.331591    144105.83   -44836.243     3322.343   -48158.586    63.147611   0.98375844 
   16700    236.85297   -42.005886    144104.74   -44849.979     3345.093   -48195.072    63.653901   0.98376591 
   16800    235.54136    206.67802    144102.17   -44892.748     3326.569   -48219.317    64.075128   0.98378342 
   16900    232.55842   -126.96458    143996.36   -44801.103    3284.4408   -48085.543    64.286098   0.98450637 
   17000    235.35778    138.17199    143951.74   -44843.834    3323.9762   -48167.811    64.653266   0.98481152 
   17100    236.24439    90.740858     143971.6   -44773.453    3336.4979   -48109.951    65.250357   0.98467569 
   17200    241.37041   -65.813575       143947   -44783.807    3408.8931   -48192.701    65.535983   0.98484394 
   17300    231.42121   -205.84153    143887.31   -44886.663    3268.3798   -48155.042    65.742801   0.98525247 
   17400    237.03479   -117.72175    143888.47   -44885.923    3347.6608   -48233.584     65.96667   0.98524457 
   17500    237.46865   -129.52101    143831.45   -44886.345    3353.7883   -48240.134    66.343195   0.98563511 
   17600    240.65149   -11.124001    143893.56   -44875.622    3398.7398   -48274.362    66.571784   0.98520967 
   17700    234.84631    120.83042    143949.65    -44870.94    3316.7528   -48187.692    66.969989   0.98482578 
   17800    234.54328   -26.758489     144012.2   -44857.165     3312.473   -48169.638    67.363956   0.98439804 
   17900    235.35367    157.50875    144154.85   -44863.242    3323.9182   -48187.161    67.977889   0.98342397 
   18000    236.83896    119.08468    144121.25   -44776.549    3344.8951   -48121.444    68.287182   0.98365324 
   18100    233.46215   -291.64416    144132.92   -44869.386    3297.2042    -48166.59    68.698231   0.98357353 
   18200     239.0272    288.34682    144134.18    -44874.37    3375.7998    -48250.17     69.31069     0.983565 
   18300    241.54437   -61.573559    144206.88   -44823.342    3411.3499   -48234.692    69.812344   0.98306909 
   18400    234.10893     74.11466    144454.02   -44857.399    3306.3387   -48163.738    70.245261   0.98138726 
   18500    234.55615    178.03011    144496.88   -44869.013    3312.6548   -48181.668    70.526481   0.98109616 
   18600    238.81376   -133.47364    144493.71   -44874.086    3372.7854   -48246.871    70.914386   0.98111767 
   18700    239.02396    183.15878    144341.44   -44891.306    3375.7541    -48267.06    71.557282    0.9821527 
   18800     234.2327    47.547148    144455.99   -44873.534    3308.0868    -48181.62    71.943833   0.98137382 
   18900    239.22633   -28.475818    144413.72   -44888.877    3378.6121   -48267.489    71.926321   0.98166107 
   19000    234.82921    24.620524    144471.65    -44892.67    3316.5112   -48209.182    72.352202   0.98126746 
   19100    232.31027    100.92335    144474.13   -44920.419     3280.936   -48201.355    72.700982   0.98125064 
   19200     239.4725    233.91767    144531.38   -44925.184    3382.0888   -48307.273     72.86993   0.98086192 
   19300    237.57929    220.63252    144584.35   -44845.937    3355.3509   -48201.288    73.474132   0.98050257 
   19400    236.03608   -317.66513    144639.32   -44835.502     3333.556   -48169.058    74.241936   0.98012998 
   19500     239.4755    65.951325    144504.94   -44845.326    3382.1312   -48227.457    74.357503    0.9810414 
   19600     234.6051   -126.54087       144397   -44896.931    3313.3461   -48210.278    74.913361   0.98177476 
   19700    231.83224    11.777051    144280.59   -44970.269    3274.1849   -48244.454    75.418486   0.98256685 
   19800    235.19316    145.23209     144420.7   -44937.967    3321.6513   -48259.618    75.760311   0.98161363 
   19900    238.91346    95.734046    144553.91    -44970.83    3374.1934   -48345.023    76.132578   0.98070907 
   20000     232.3971   -205.49596    144565.76   -44992.493    3282.1624   -48274.656    76.318752   0.98062867 
   20100    236.22374    17.633909    144642.48   -44969.236    3336.2063   -48305.443    76.478238   0.98010857 
   20200    233.76653   -216.65317    144799.76   -45037.371     3301.503   -48338.874    76.834435   0.97904395 
   20300    232.50319    36.258601    144705.71   -45059.082    3283.6606   -48342.742     76.91366   0.97968025 
   20400     233.3253    56.521467    144691.23   -45042.341    3295.2714   -48337.612    77.189609   0.97977831 
   20500    235.95106   -264.28536     144616.8   -45061.188    3332.3552   -48393.543    77.596518   0.98028257 
   20600    234.16434   -12.961769    144479.92   -45079.587    3307.1212   -48386.708    78.124232   0.98121128 
   20700    234.56298   -1.4505459    144424.32   -45055.297    3312.7513   -48368.049    78.619565   0.98158902 
   20800    238.26378    554.24127    144494.07   -44995.241     3365.018   -48360.259    79.212311   0.98111524 
   20900    233.25885    206.38652    144553.32   -45074.816     3294.333   -48369.149    79.600063   0.98071308 
   21000    234.10754    30.552207     144550.2   -45160.732     3306.319   -48467.051     79.79821   0.98073425 
   21100     233.1084    99.044508    144533.44   -45207.391    3292.2081   -48499.599    79.802099   0.98084795 
   21200    230.65777    65.831233    144660.91   -45156.173    3257.5977   -48413.771    80.093009   0.97998367 
   21300    227.24435   -45.485215     144544.7   -45119.105    3209.3897   -48328.495    80.131761   0.98077159 
   21400    232.79514   -141.88728    144471.23    -45067.72    3287.7839   -48355.503     80.35012   0.98127033 
   21500    234.49582    32.002654    144664.64   -45069.749    3311.8028   -48381.551    80.645402   0.97995841 
   21600    235.73131   -229.78587    144577.05   -45026.404    3329.2517   -48355.656    81.078029   0.98055211 
   21700    234.18179    57.299743       144696   -44984.069    3307.3677   -48291.436    81.377381   0.97974604 
   21800    237.65685   -5.9984754    144729.21   -44984.705    3356.4463   -48341.151    81.790323   0.97952119 
   21900    233.57001    84.490907    144948.58   -45000.033    3298.7275   -48298.761    82.386425    0.9780388 
   22000    236.25299   -65.797394    145097.75   -45001.864    3336.6194   -48338.484    82.969557   0.97703326 
   22100     234.8082    -57.69077    145050.36   -44934.358    3316.2145   -48250.572    83.177808   0.97735248 
   22200    236.75823   -72.458051    144923.61   -44977.194    3343.7549   -48320.949    83.224703   0.97820731 
   22300    238.16243    80.571947    144894.18   -44976.538    3363.5865   -48340.124     83.61176   0.97840597 
   22400    239.59639    63.491843    144762.23   -44913.712    3383.8385    -48297.55    83.925951   0.97929778 
   22500    233.42458   -156.53579     144613.3   -44953.705    3296.6735   -48250.379    84.127368   0.98030631 
   22600    236.55278    168.95136     144730.9   -44845.151    3340.8534   -48186.004    84.700892   0.97950975 
   22700    241.34078    196.65758    144785.13   -44868.755    3408.4747   -48277.229    84.871993   0.97914291 
   22800    235.59123    72.994033    144784.99   -44917.411    3327.2734   -48244.684    85.254702   0.97914382 
   22900    234.54307     115.9981    144851.41   -44917.258      3312.47   -48229.728    85.798285   0.97869483 
   23000    234.62532   -4.1492204    144817.97   -44884.725    3313.6317   -48198.357    85.933327   0.97892082 
   23100    234.74031    41.519253    144818.38   -44998.948    3315.2557   -48314.204    86.112013   0.97891805 
   23200    232.95884    -170.6234    144901.47     -44970.3    3290.0958   -48260.396    86.454706   0.97835677 
   23300    230.57892    135.24705    144713.03   -44994.706    3256.4841    -48251.19    86.855313   0.97963069 
   23400    238.26092    81.610997    144971.63   -44951.986    3364.9776   -48316.964    87.054011   0.97788325 
   23500    236.98328   -197.97394    144889.38   -44953.397    3346.9333    -48300.33    87.329509   0.97843835 
   23600    234.38942   -143.35603    144868.27   -44945.386       3310.3   -48255.686    87.715461   0.97858094 
   23700    238.77104   -123.18097    144950.53   -44974.772     3372.182   -48346.954     88.28379   0.97802562 
   23800    233.67485    -99.27647    145005.95   -45036.247    3300.2082   -48336.455    88.831938   0.97765184 
   23900    229.97814    19.667855    144808.52   -45014.425    3247.9992   -48262.424    88.822872   0.97898471 
   24000    234.41251   -337.26423    144717.04   -44987.891    3310.6261   -48298.517    88.964799   0.97960356 
   24100     236.5516   -198.02731    144602.64   -44998.514    3340.8366   -48339.351    89.174356   0.98037859 
   24200    234.04526    25.540251    144515.54   -45014.922    3305.4394   -48320.362    89.490189   0.98096948 
   24300    233.25626  -0.84106829    144441.17   -45029.961    3294.2964   -48324.258    89.834714   0.98147456 
   24400    230.55837    40.613254     144479.7   -45022.104    3256.1939   -48278.298    90.418012   0.98121278 
   24500    226.68454    11.693207    144548.38   -45025.171    3201.4834   -48226.655    90.421447   0.98074656 
   24600    233.09577    218.14785    144621.41   -44996.937    3292.0297   -48288.966    91.067093   0.98025136 
   24700    232.77562   -84.549454    144563.67   -44964.955    3287.5082   -48252.463    91.617399   0.98064286 
   24800    228.43151    366.25461     144513.6   -44954.285     3226.156   -48180.441    92.415234   0.98098263 
   24900    237.51368   -221.05655    144503.82     -44926.2    3354.4243   -48280.624    92.880413   0.98104901 
   25000    237.86831   -28.633619    144531.84   -44897.851    3359.4328   -48257.283    93.154642   0.98085882 
   25100    235.37651    26.250661     144621.7   -44894.467    3324.2408   -48218.708    93.616394   0.98024935 
   25200    234.72854    110.48787    144550.19     -44906.2    3315.0895    -48221.29    93.622174   0.98073431 
   25300    236.45759    135.61962    144567.74   -44912.024     3339.509   -48251.533    93.808264   0.98061528 
   25400     231.4093   -58.362393    144456.95   -44914.993    3268.2116   -48183.205    93.999787   0.98136733 
   25500    236.98344   -64.690585    144289.72   -44858.532    3346.9357   -48205.468    94.187138   0.98250471 
   25600    232.85009    114.37926    144197.89   -44875.574      3288.56   -48164.134    94.606427    0.9831304 
   25700    227.61453   -148.63476    144199.61    -44931.45    3214.6178   -48146.068     95.13663   0.98311865 
   25800    236.12596   -1.8103076    144214.25   -44894.234    3334.8254   -48229.059    95.231532   0.98301886 
   25900    233.95718   -21.071759    144116.59   -44854.566    3304.1955   -48158.762    95.774607   0.98368501 
   26000    239.76279     -3.29429    143987.24   -44810.025    3386.1886   -48196.213    96.033245   0.98456872 
   26100    234.13367   -17.366859    144141.62   -44878.503    3306.6881   -48185.191     96.57552   0.98351423 
   26200     233.8024    -51.17199    143919.23   -44897.129    3302.0096   -48199.139    97.180453   0.98503399 
   26300    241.24347    185.49368    143855.62   -44848.433    3407.1003   -48255.533    97.299432   0.98546956 
   26400    237.83032    43.915015    143856.32    -44838.19    3358.8962   -48197.087    98.017825   0.98546472 
   26500    235.81292   -13.133421    143950.29   -44909.647    3330.4043   -48240.051    98.396205   0.98482143 
   26600    233.03605   -202.10681    143967.01   -44950.765    3291.1864   -48241.951    98.710017   0.98470706 
   26700    232.90501    12.086032    144134.75   -44974.748    3289.3357   -48264.084    99.504038   0.98356106 
   26800    236.15961   -103.36493    144146.05   -44863.699    3335.3006       -48199    99.888646   0.98348399 
   26900    235.93089   -24.711719    143976.41   -44876.696    3332.0704   -48208.766    100.31573   0.98464274 
   27000    235.60206   -204.87522     143897.2   -44918.823    3327.4263    -48246.25    100.37846   0.98518478 
   27100     235.6389    91.899854    143916.34   -44931.001    3327.9466   -48258.947    100.78141   0.98505375 
   27200    235.74176    86.717194    143965.05   -44962.203    3329.3993   -48291.602    101.18331   0.98472047 
   27300    235.15161      90.3772    143898.32   -44974.288    3321.0646   -48295.353    101.52363   0.98517708 
   27400    232.68739     75.85758    143949.15   -44951.921    3286.2622   -48238.183    101.67024   0.98482924 
   27500     236.7677    204.35302    144019.58   -44874.529    3343.8888   -48218.418    102.08806   0.98434761 
   27600    231.61105    451.23032     144192.5   -44938.803     3271.061   -48209.864    102.31907   0.98316714 
   27700    237.32973    62.603929       144244   -44937.422    3351.8263   -48289.248    103.15738   0.98281615 
   27800    238.60615    27.058635    144209.26   -44858.705    3369.8533   -48228.558    103.56111   0.98305288 
   27900     237.0932   -355.37824    144166.89   -44864.344    3348.4858    -48212.83    103.79029   0.98334179 
   28000    233.16297   -76.269044    144043.87    -44924.11    3292.9788   -48217.089    103.89628   0.98418165 
   28100    234.28763   -13.074228    144106.81   -44828.019    3308.8624   -48136.881     104.6013    0.9837518 
   28200    234.09797    4.7799337    143884.29   -44886.502     3306.184   -48192.686     104.9492    0.9852732 
   28300    233.90747    58.617689     144056.7   -44886.198    3303.4934   -48189.691    105.28961   0.98409398 
   28400    234.08933    251.36239     144012.7   -44926.818    3306.0619    -48232.88    105.74954   0.98439464 
   28500    231.48996    81.904966    144127.06   -44958.707    3269.3507   -48228.058    106.07524   0.98361355 
   28600    232.27156    173.79381    144080.62   -44922.679    3280.3894   -48203.069    106.91253    0.9839306 
   28700    236.96443    4.8199752    144114.72   -44883.678    3346.6671   -48230.345    106.98686   0.98369776 
   28800    237.01793     4.527683    144027.13   -44872.626    3347.4227   -48220.049    107.54121     0.984296 
   28900    236.97695    264.05475     143980.8   -44827.481     3346.844   -48174.325    107.86253   0.98461273 
   29000    234.79384   -89.668168     144043.2   -44896.451    3316.0117   -48212.463    108.44083    0.9841862 
   29100    234.12687    48.662766    143975.38   -44860.441     3306.592   -48167.033    108.94892   0.98464981 
   29200    236.37347    214.15916    144018.55   -44797.037    3338.3209   -48135.358    109.49971   0.98435467 
   29300    234.47099   -54.805402    144051.63   -44864.138    3311.4521    -48175.59    109.80686   0.98412862 
   29400    233.36767   -72.520723    144116.16   -44915.458    3295.8698   -48211.328    110.33772   0.98368794 
   29500    232.60514   -147.36361    144013.88   -44972.599    3285.1005     -48257.7    110.55303   0.98438656 
   29600    233.17752    51.392725    143965.59   -44864.098    3293.1843   -48157.283    111.02558   0.98471676 
   29700    234.70912   -146.96659    143872.03   -44882.979    3314.8152   -48197.794     111.5055   0.98535715 
   29800    234.21396    224.73914    143875.37   -44908.064    3307.8221   -48215.886    112.06466   0.98533426 
   29900    234.39773    5.7990109     143777.1   -44918.074    3310.4175   -48228.492      112.589   0.98600773 
   30000    231.83137    191.26905     143768.8   -44897.267    3274.1726    -48171.44     113.2301   0.98606464 
   30100    229.35314  -0.21820908    143927.14   -44888.191    3239.1722   -48127.363    113.66191   0.98497982 
   30200    235.45246    90.141645    143946.32   -44859.993    3325.3134   -48185.306    114.20875   0.98484857 
   30300    240.18191    66.029824    144090.88   -44871.629    3392.1078   -48263.737    114.76253   0.98386057 
   30400    238.98131    18.015153    144097.07   -44826.981    3375.1516   -48202.132     114.7688   0.98381828 
   30500     240.5152    122.10936    144048.09   -44881.609    3396.8149   -48278.424    114.74845    0.9841528 
   30600    237.52925    38.468745    143913.41   -44865.669    3354.6442   -48220.314    115.31916   0.98507377 
   30700    235.78821    19.044497    144027.05   -44902.704    3330.0552   -48232.759    115.66212   0.98429658 
   30800    237.09042    187.29589    144132.39   -44867.989    3348.4465   -48216.435    115.93787    0.9835772 
   30900    230.64484   -27.609204     144110.7   -44945.517    3257.4151   -48202.932    116.25645   0.98372526 
   31000    235.26004   -179.03968    144221.11   -44953.676    3322.5959   -48276.272    116.43317   0.98297213 
   31100    230.66673   -109.32916    144113.84   -44995.442    3257.7242   -48253.167     116.5897   0.98370376 
   31200    232.50566   -183.01359    144052.87   -44982.545    3283.6956    -48266.24     116.6586   0.98412015 
   31300    231.42124    42.459715    144022.79   -44972.129    3268.3802    -48240.51    116.85816    0.9843257 
   31400    234.24724   -135.55308    144014.32   -44837.726    3308.2921   -48146.018    117.14776   0.98438359 
   31500    235.86359      11.5063    144072.03    -44896.43    3331.1199    -48227.55    117.54309   0.98398923 
   31600    233.85585    30.071639    144129.83   -44854.935    3302.7644     -48157.7      117.702   0.98359466 
   31700    236.65306   -186.46916     144017.8   -44887.629    3342.2696   -48229.899    117.75613   0.98435979 
   31800    235.19084    116.00564    143856.44   -44859.912    3321.6186   -48181.531    118.29651   0.98546394 
   31900    238.36104    37.163327    143763.76   -44809.984    3366.3916   -48176.376    118.45992   0.98609922 
   32000    238.26283    133.01649    143816.75   -44813.487    3365.0046   -48178.491     118.8688   0.98573586 
   32100    238.55037   -225.53126    143923.04   -44827.013    3369.0654   -48196.078    119.61911   0.98500788 
   32200    238.51285   -99.284596    143920.49   -44831.057    3368.5357   -48199.593    120.25451   0.98502537 
   32300    237.46631    134.63367    143894.63   -44789.883    3353.7552   -48143.639    120.74489   0.98520237 
   32400    234.05436    174.22604    143919.35   -44806.297     3305.568   -48111.865    121.28313   0.98503316 
   32500    232.62665    93.927588    144023.91   -44860.152    3285.4043   -48145.556    121.78018   0.98431801 
   32600    236.56604    71.742252    143966.76   -44756.414    3341.0407   -48097.454    122.44551   0.98470878 
   32700     232.1193   -80.156068    143914.85   -44801.182     3278.239   -48079.421    122.69664   0.98506395 
   32800    237.99878   -353.08957    143911.97   -44832.172    3361.2754   -48193.447     122.7639   0.98508369 
   32900    236.09243     27.12658    143958.07    -44898.72    3334.3519   -48233.072    122.92973   0.98476821 
   33000    236.36931   -150.66278    143841.52   -44934.726    3338.2622   -48272.988    123.15771   0.98556614 
   33100    236.74237   -103.02817    143649.71    -44882.52     3343.531   -48226.051    123.34753   0.98688214 
   33200    235.26053    5.7434099    143541.21   -44885.085    3322.6028   -48207.688    123.50139   0.98762808 
   33300    229.97409    127.64486    143586.24   -44859.317     3247.942   -48107.259    124.00808   0.98731837 
   33400     232.6177    55.601146    143633.91   -44934.214    3285.2779   -48219.492    124.24446    0.9869907 
   33500     231.3983    218.80628    143815.11   -44924.336    3268.0562   -48192.392    124.58469   0.98574713 
   33600    236.59526     54.78631    143701.45   -44887.292    3341.4532   -48228.745    124.57623   0.98652677 
   33700    236.87395   -17.718049    143658.17   -44832.999    3345.3892   -48178.388    124.68729     0.986824 
   33800    233.68343    34.382653    143668.93   -44858.304    3300.3294   -48158.633    125.37011    0.9867501 
   33900    234.45708   -75.774267    143804.23   -44884.033    3311.2557   -48195.289    125.43066    0.9858217 
   34000    237.22024   -26.660241    143817.12   -44880.837      3350.28   -48231.116    126.12177   0.98573335 
   34100    232.12745   -128.33966    143880.91   -44874.532     3278.354   -48152.886    126.95528    0.9852963 
   34200    236.97569   -227.76356    143803.19   -44845.241    3346.8261   -48192.067    127.50148   0.98582883 
   34300    233.65188   -161.50226    143579.08   -44921.542    3299.8837   -48221.426     127.6974   0.98736761 
   34400    237.83801     165.0999    143534.52    -44821.47    3359.0048   -48180.474    127.99731   0.98767413 
   34500    233.37944   -117.62279    143385.42   -44842.077     3296.036   -48138.113    128.61251   0.98870117 
   34600    234.10065   -50.558674     143503.1   -44847.215    3306.2217   -48153.437    129.04746   0.98789038 
   34700    233.22455    103.95952    143531.87   -44871.604    3293.8485   -48165.453    129.75593   0.98769236 
   34800    232.32185   -178.73277    143503.26   -44897.754    3281.0996   -48178.854    130.15324   0.98788928 
   34900    231.91494    27.914071     143501.9   -44928.241    3275.3528   -48203.594    130.79621   0.98789863 
   35000    233.23648      197.436    143651.78   -44982.745    3294.0171   -48276.762    131.24877   0.98686791 
   35100    233.71319   -122.32447    143742.09     -44951.1    3300.7495    -48251.85    131.68597   0.98624787 
   35200    233.60939    21.204175    143710.45   -44923.471    3299.2837   -48222.754    132.57729   0.98646501 
   35300    231.88003   -45.732243    143763.48    -44913.91    3274.8598    -48188.77    133.10007   0.98610115 
   35400    235.38849    345.85881    143953.23   -44918.736    3324.4101   -48243.146    133.74653   0.98480128 
   35500    234.24253     46.48004    144055.51   -44900.329    3308.2256   -48208.555    134.20488   0.98410212 
   35600    241.74514    60.157721     143926.2   -44943.773    3414.1854   -48357.958     134.6232   0.98498628 
   35700    233.65416   -93.007246     143938.8   -44931.588     3299.916   -48231.504    134.91462   0.98490005 
   35800    232.96182    133.71051    144039.61   -44951.111     3290.138   -48241.249     135.4397   0.98421072 
   35900    238.27801   -141.44539    144115.79   -44894.856     3365.219   -48260.075    135.81674   0.98369049 
   36000    240.94664    130.46894    144129.24   -44806.602    3402.9082    -48209.51    136.54508    0.9835987 
   36100    236.45371    79.723434    144043.61   -44905.058    3339.4542   -48244.512    136.99288   0.98418344 
   36200    238.22621    120.40261    144181.62   -44940.542    3364.4874   -48305.029    137.15018   0.98324138 
   36300    235.25387    195.70804    144163.25   -44983.562    3322.5088   -48306.071    137.26607   0.98336664 
   36400    235.33616    270.78926     144268.1    -45005.15    3323.6709   -48328.821    137.45504   0.98265196 
   36500    234.83331    338.70369    144502.58   -44917.118    3316.5692   -48233.688    137.96092   0.98105745 
   36600    230.37051   -80.428287    144412.16   -45024.314    3253.5407   -48277.854    138.05008   0.98167172 
   36700    235.28211    221.62632    144511.91   -45000.029    3322.9075   -48322.937    138.07298   0.98099407 
   36800    234.11433    110.65812    144440.92   -44946.835    3306.4149    -48253.25    138.21644   0.98147621 
   36900    232.98041    15.756892    144509.19   -44964.784    3290.4005   -48255.184    138.79046   0.98101255 
   37000    233.26476    225.36212    144636.89    -44894.21    3294.4165   -48188.627    139.08874    0.9801464 
   37100    234.60271   -60.146972    144616.62   -44877.135    3313.3124   -48190.448    139.64351    0.9802838 
   37200    235.67419   -202.47708    144577.53   -44898.014    3328.4449   -48226.459    140.02147   0.98054883 
   37300    233.19256   -39.096651    144503.69   -44938.677    3293.3968   -48232.074    140.40066   0.98104988 
   37400    235.04334    6.6649662    144373.28   -45007.811    3319.5354   -48327.347    140.73193   0.98193606 
   37500    228.17799   -77.512271    144259.47    -45019.89    3222.5755   -48242.466    141.22633   0.98271073 
   37600    234.81847    42.874134    144238.56   -44942.883    3316.3596   -48259.243    141.39475   0.98285318 
   37700    235.11613    3.4056461    144301.47    -44939.84    3320.5634   -48260.404    141.69582    0.9824247 
   37800    229.13473    90.932367     144355.6   -45079.399    3236.0877   -48315.487    142.23279    0.9820563 
   37900     229.7602   -196.70014    144240.54   -45052.508    3244.9213   -48297.429    142.39193   0.98283973 
   38000    233.49412   -11.521812    144166.92   -45009.688    3297.6557   -48307.344    143.00574    0.9833416 
   38100      235.903    -77.02749    144231.84   -44945.006    3331.6764   -48276.683    143.10122   0.98289899 
   38200    239.16391    270.38765     144265.1   -44940.986    3377.7305   -48318.716      143.683   0.98267241 
   38300    229.54779   -152.37697    144439.42   -44913.529    3241.9213    -48155.45    144.19893   0.98148645 
   38400    233.59532    28.040733    144392.98   -44952.086    3299.0849    -48251.17    144.20426   0.98180209 
   38500    235.04744   -57.532444    144276.22   -44941.102    3319.5933   -48260.696    144.36244   0.98259668 
   38600    237.30016     277.6488    144431.82   -44925.891    3351.4087     -48277.3    144.69325   0.98153807 
   38700    232.04834   -100.44889    144434.94    -44948.51    3277.2368   -48225.747    145.35789   0.98151686 
   38800    234.04812      70.9998    144485.21   -44978.178    3305.4798   -48283.658    145.46284   0.98117539 
   38900    236.43471    75.849547    144468.25   -44941.583    3339.1859   -48280.769    145.81722   0.98129054 
   39000    233.17857   -109.72476    144533.56   -45021.474    3293.1991   -48314.673    145.99267   0.98084713 
   39100    236.19212   -23.446906    144536.77   -44947.507    3335.7598   -48283.266    146.00986   0.98082538 
   39200    230.04892   -36.724025    144561.61   -45006.636    3248.9988   -48255.634    146.20004    0.9806568 
   39300    232.55008    31.333581    144492.56   -44972.146    3284.3229   -48256.469    146.43186   0.98112546 
   39400    235.11551   -127.14172    144558.96    -44928.14    3320.5547   -48248.694    147.00673   0.98067478 
   39500    235.68254     104.9419    144558.59   -44919.717    3328.5628    -48248.28    147.80841   0.98067731 
   39600      238.684    -159.6409    144539.83   -44919.177    3370.9527    -48290.13    148.07187   0.98080459 
   39700    235.21764   -140.04383     144573.3   -44892.084    3321.9971   -48214.081    148.73836   0.98057751 
   39800    232.24494   -31.092801    144327.55   -44925.211    3280.0134   -48205.224    148.92396   0.98224719 
   39900    233.62091    26.914537    144271.94   -44972.524    3299.4463    -48271.97    149.75829    0.9826258 
   40000    236.33615   -21.597207    144297.06   -44938.073    3337.7939   -48275.867    150.39905   0.98245476 
   40100    234.17239   -197.11859    144193.51    -44916.28    3307.2349   -48223.515    150.46953    0.9831603 
   40200    240.84935    -40.30316    144179.54   -44918.633    3401.5342   -48320.167    150.61649   0.98325552 
   40300    231.92688   -92.442131    144154.64   -44946.034    3275.5214   -48221.556    151.20725   0.98342536 
   40400    235.59436    14.993061    144096.23   -44828.676    3327.3175   -48155.993    151.74647   0.98382402 
   40500    238.29503     -376.846    144163.68   -44734.584    3365.4593   -48100.043    152.20372   0.98336374 
   40600    234.47894   -368.34531    144051.34   -44816.978    3311.5644   -48128.542    152.74287    0.9841306 
   40700    231.75381   -65.822005    143977.32   -44878.218    3273.0771   -48151.295    152.85897   0.98463657 
   40800    229.88252   -48.454937    144002.53   -44888.566    3246.6488   -48135.214     152.9805   0.98446416 
   40900    230.05234    38.754035    144006.97    -44953.93    3249.0472   -48202.977    153.31692   0.98443378 
   41000    239.89264   -3.6050355    144050.74   -44848.098    3388.0224   -48236.121    153.32599   0.98413471 
   41100    236.16588   -241.53937    143943.17   -44838.612    3335.3892   -48174.002    154.00291   0.98487017 
   41200    237.71497   -83.286383    143789.59   -44821.104    3357.2671   -48178.372    155.01734   0.98592206 
   41300    229.30567   -373.84365    143594.76   -45000.217    3238.5018   -48238.719    155.26548   0.98725978 
   41400    234.71572    391.75846       143395   -44970.264    3314.9084   -48285.173    155.74292   0.98863511 
   41500    230.69117    149.07238    143369.03   -44926.111    3258.0695    -48184.18    156.23429   0.98881418 
   41600    233.13205    95.171693    143476.87   -44868.459    3292.5421   -48161.001    156.73353   0.98807098 
   41700    235.12326    -146.4121    143506.16   -44844.832    3320.6642   -48165.497    156.98693   0.98786931 
   41800    232.12757    23.279002    143501.59   -44899.253    3278.3558   -48177.609     157.4935   0.98790075 
   41900    234.61623   -97.737786    143566.95   -44844.286    3313.5034    -48157.79    158.20555     0.987451 
   42000    236.00831     160.2434    143691.12   -44821.718    3333.1638   -48154.882    159.37486   0.98659773 
   42100    238.82667   -44.058148    143818.39   -44806.498    3372.9677   -48179.466    159.85378   0.98572466 
   42200    237.52368   -242.35205    143795.88   -44800.621    3354.5654   -48155.186    160.57209   0.98587892 
   42300    238.84574    19.379186    143798.26    -44761.81    3373.2371   -48135.047    160.59137   0.98586259 
   42400    236.19538   -54.812655    143732.54   -44798.941    3335.8058   -48134.747    160.82106   0.98631343 
   42500    234.93246    190.77082    143602.76   -44839.022    3317.9694   -48156.991     161.0554   0.98720479 
   42600    238.71331   -63.656883    143600.43   -44770.337    3371.3666   -48141.704      160.913   0.98722081 
   42700    234.44283   -126.88388    143608.56   -44835.755    3311.0544   -48146.809    161.69134   0.98716487 
   42800    236.95633    -167.4971    143592.35   -44769.918    3346.5528   -48116.471    162.39341   0.98727637 
   42900    233.43707   -64.211545     143318.2   -44817.598    3296.8499   -48114.448    162.30066   0.98916487 
   43000    233.44964    179.20079    143580.28   -44876.464    3297.0275   -48173.491    162.58994   0.98735936 
   43100    230.99856    214.10023     143633.1   -44850.011    3262.4107   -48112.422    163.01846   0.98699627 
   43200    237.36453    274.42725    143604.27   -44823.078    3352.3178   -48175.395    163.38053   0.98719441 
   43300    238.07974   -91.317814    143586.33   -44822.384    3362.4187   -48184.803     163.8519   0.98731771 
   43400    239.04453    -32.45996    143396.59   -44758.783    3376.0446   -48134.828    164.13845   0.98862413 
   43500    236.44986     97.10652     143487.5    -44745.21    3339.3998    -48084.61    164.55506   0.98799776 
   43600    240.47683   -15.441258    143639.66   -44683.969    3396.2731   -48080.242    164.75643   0.98695115 
   43700    241.74303   -90.615839    143649.49   -44700.828    3414.1557   -48114.983     165.0151    0.9868836 
   43800    245.88942   -10.429356    143575.05    -44667.47    3472.7155   -48140.186    165.29903    0.9873953 
   43900    234.99264    37.252051     143727.2   -44765.579    3318.8194   -48084.398    165.46727   0.98635005 
   44000    235.87188    288.26857    143697.18   -44731.168     3331.237   -48062.405    166.04141    0.9865561 
   44100    232.19371   -12.609468    143774.37   -44826.803    3279.2899   -48106.093    167.16715   0.98602646 
   44200    231.84126    197.77261    143789.36   -44834.256    3274.3121   -48108.568    167.99838   0.98592364 
   44300    233.24486    153.23335    143773.62   -44869.317    3294.1354   -48163.452    168.70844   0.98603155 
   44400     234.0598   -93.980356    143788.85   -44798.733    3305.6449   -48104.378    169.32415   0.98592716 
   44500    235.89699   -78.587871    143693.67   -44856.192    3331.5917   -48187.784    169.72304   0.98658022 
   44600    234.35745   -57.109476    143657.73   -44904.722    3309.8485    -48214.57    170.54952   0.98682703 
   44700    236.27524    191.36774    143575.18   -44938.404    3336.9336   -48275.337     170.8823   0.98739443 
   44800    236.74884   -56.856518    143667.71   -44884.395    3343.6223   -48228.018    171.38517   0.98675848 
   44900    236.28139    79.416388    143704.19   -44836.477    3337.0205   -48173.498    171.59669   0.98650798 
   45000    235.52526    352.03543    143796.65   -44848.538    3326.3416    -48174.88    171.80953   0.98587364 
   45100    236.88055   -44.239482       143861     -44775.4    3345.4825   -48120.883    172.59667   0.98543266 
   45200    241.27663    36.800227     143863.1    -44800.65    3407.5686   -48208.218    173.10072    0.9854183 
   45300    233.92179   -230.41506    143732.37   -44836.735    3303.6957   -48140.431    173.85451   0.98631454 
   45400    233.95851    177.71735    143485.83   -44877.095    3304.2142   -48181.309    173.64814   0.98800925 
   45500    233.57159   -114.89636    143442.28   -44879.465    3298.7497   -48178.215    174.41307   0.98830923 
   45600     233.2534   -23.996204    143547.59   -44903.228     3294.256   -48197.484    174.52815   0.98758422 
   45700    237.40086    189.32101    143564.09   -44872.199    3352.8308    -48225.03    175.43371   0.98747069 
   45800    231.98506     51.90797    143604.22   -44853.053    3276.3431   -48129.396    175.09633   0.98719476 
   45900    240.55223   -270.80232    143481.02   -44733.846    3397.3379   -48131.184    174.80777   0.98804238 
   46000    238.60061    136.04798    143520.46   -44686.715    3369.7751    -48056.49    175.22714   0.98777086 
   46100    241.42953    180.19889    143575.05   -44681.984    3409.7281   -48091.713     176.0162   0.98739531 
   46200     240.6804   -89.116677    143649.14   -44699.909     3399.148   -48099.057    176.75061   0.98688605 
   46300    238.08086   -39.867883    143620.78   -44668.407    3362.4345   -48030.842    177.18508    0.9870809 
   46400    235.19463     54.90847    143719.59   -44723.249    3321.6721   -48044.921    177.38274   0.98640229 
   46500    237.58796   -211.02297    143867.03   -44748.062    3355.4733   -48103.535    177.69632   0.98539135 
   46600    238.53653    125.69469    143856.97    -44732.97      3368.87    -48101.84    178.01184   0.98546025 
   46700    235.64353   -74.033095    143866.14   -44774.163     3328.012   -48102.175    178.37895   0.98539744 
   46800    230.80587   -35.567872    143806.79   -44864.418    3259.6893   -48124.108     178.6744   0.98580415 
   46900    233.04114   -92.424835    143832.74    -44793.54    3291.2582   -48084.798    179.51643   0.98562628 
   47000    238.10415   -77.633455    143805.08   -44747.023    3362.7635   -48109.786    180.51395    0.9858159 
   47100    240.92688   -134.04563       143787   -44727.266    3402.6291   -48129.895    181.18283   0.98593985 
   47200      232.725   -22.967817    143605.47   -44837.727    3286.7933    -48124.52    181.53468   0.98718613 
   47300    237.11656    351.89737     143573.7   -44812.508    3348.8157   -48161.324    182.16901   0.98740462 
   47400    236.95172   -394.32516    143669.11     -44790.8    3346.4876   -48137.287    182.13566   0.98674886 
   47500    235.60442     -122.374    143691.55   -44715.607    3327.4596   -48043.066    182.59348   0.98659476 
   47600    236.72884   -35.429203    143717.96   -44651.483    3343.3399   -47994.823     183.0272   0.98641348 
   47700    233.75705   -215.54938    143651.98   -44666.815    3301.3691   -47968.184    183.19689   0.98686652 
   47800    234.94599    9.1682129    143658.62   -44724.199    3318.1605   -48042.359    183.14205   0.98682089 
   47900    237.98357     96.04762    143587.16   -44758.202    3361.0605   -48119.263     183.5431   0.98731206 
   48000    232.52892   -184.86492    143573.86   -44830.248     3284.024   -48114.272     183.7789   0.98740346 
   48100    236.05523    112.23139    143647.96   -44788.087    3333.8264   -48121.913    184.63428   0.98689414 
   48200    234.61842    46.054098    143686.87   -44852.154    3313.5342   -48165.689    184.89552   0.98662691 
   48300    238.18126   -65.209371    143759.68   -44814.166    3363.8525   -48178.019    185.32505   0.98612717 
   48400    235.52407   -7.0490328    143859.57   -44779.258    3326.3248   -48105.583    185.86341   0.98544246 
   48500    233.83252    137.17824    143899.31    -44827.78    3302.4349   -48130.215      186.525   0.98517033 
   48600     233.6458   -73.712817    143966.91   -44827.788    3299.7979   -48127.586    187.16712   0.98470777 
   48700    234.80423   -148.21984    144054.98   -44826.116    3316.1585   -48142.274     187.6555   0.98410573 
   48800    234.63499   -93.577511    143985.26   -44811.394    3313.7683   -48125.162    187.90378   0.98458227 
   48900     236.6922   -85.979863    144127.22   -44773.222    3342.8224   -48116.044    188.30259   0.98361247 
   49000    232.85191   -334.50796    144113.32   -44863.899    3288.5857   -48152.485    188.38347   0.98370731 
   49100     234.1087   -153.97269    143862.66   -44830.059    3306.3355   -48136.394    188.03234   0.98542133 
   49200    233.72508   -19.667566    143854.09   -44840.865    3300.9175   -48141.782    188.14721      0.98548 
   49300    242.17059    115.61624    143862.38   -44816.264    3420.1942   -48236.458    188.51478    0.9854232 
   49400    236.95238   -216.40186    143866.92    -44830.12     3346.497   -48176.617    188.86173   0.98539212 
   49500    237.15122    70.136986    143851.93   -44858.079    3349.3052   -48207.384    189.00444   0.98549478 
   49600    240.19178    -21.36533    143802.86   -44856.381    3392.2472   -48248.629    189.50466   0.98583109 
   49700    234.44151   -170.64916     144068.2   -44913.432    3311.0357   -48224.467    190.47936   0.98401541 
   49800    236.45566    126.28655    144070.79    -44936.65    3339.4818   -48276.132    191.03487    0.9839977 
   49900    237.62955     72.99875    144021.27   -44870.269    3356.0606   -48226.329    191.28168   0.98433606 
   50000    234.55341   -63.559935    144046.18   -44893.418    3312.6161   -48206.034    191.81129   0.98416583 
   50100    234.34362   -25.117457    144080.66   -44897.459    3309.6532   -48207.112    192.31922   0.98393031 
   50200    234.82749   -53.495126     144045.6    -44949.87    3316.4869   -48266.357    192.38425    0.9841698 
   50300     234.1363   -189.27671    144016.64   -44916.259    3306.7252   -48222.984    193.01741   0.98436768 
   50400    237.52615    69.885308    143887.51   -44911.181    3354.6004   -48265.781    193.94293    0.9852511 
   50500    234.70987    343.09985     143783.2   -44971.459    3314.8259   -48286.285     194.7529   0.98596588 
   50600    234.82917    41.664824    143794.72   -44956.531    3316.5107   -48273.042    195.78548   0.98588689 
   50700    235.93369     229.5982    143865.37   -45014.123    3332.1099   -48346.233     196.6512   0.98540274 
   50800    235.01936    246.87367    143982.83   -45006.789    3319.1968   -48325.985    197.71754   0.98459888 
   50900    233.55154   -142.07194    144147.73   -44947.609    3298.4666   -48246.075    198.20976   0.98347252 
   51000    233.27376    138.04535     144292.9   -45010.015    3294.5436   -48304.558    198.20648   0.98248304 
   51100    234.85306    -166.7932    144286.91    -45017.15    3316.8481   -48333.998    198.61129   0.98252382 
   51200    235.32019    17.959119    144319.21   -44996.586    3323.4454   -48320.031     198.7633   0.98230399 
   51300    228.87453   -68.113177    144417.41   -45110.537    3232.4128    -48342.95    199.51278     0.981636 
   51400    232.89358   -79.420968    144387.32   -45136.454    3289.1743   -48425.629    199.71903   0.98184057 
   51500    231.03674    169.86882    144291.66   -45125.849    3262.9499   -48388.799    199.85978   0.98249152 
   51600    233.36735   -159.84342    144198.67   -45054.666    3295.8653   -48350.532    199.96711   0.98312509 
   51700    235.91805     133.9154    144254.71   -45042.359     3331.889   -48374.248    200.33482   0.98274319 
   51800    233.23277     166.3116    144556.48   -45131.046    3293.9646   -48425.011    200.98017   0.98069162 
   51900    231.00779     17.26138    144659.58   -45157.792     3262.541   -48420.333    201.81707   0.97999269 
   52000    228.55951   -73.360752    144676.39     -45179.5    3227.9639   -48407.464    202.36624   0.97987884 
   52100    234.30709   -20.214704    144538.23    -45116.77    3309.1373   -48425.907     202.5226   0.98081544 
   52200    234.06262    41.800755    144528.66     -45150.9    3305.6847   -48456.584    202.96577   0.98088041 
   52300    229.78774    59.793139    144602.41   -45104.827    3245.3102   -48350.137    203.33757   0.98038014 
   52400    239.19945    53.886844    144628.26   -45020.295    3378.2325   -48398.527    203.89748   0.98020488 
   52500    234.92638    122.07035    144441.54   -45044.285    3317.8837   -48362.168    204.14631     0.981472 
   52600    233.92484    102.74212    144464.17   -45038.252    3303.7388    -48341.99    203.67291   0.98131828 
   52700    232.49317    174.91516    144588.84    -45034.83    3283.5191    -48318.35    204.60825   0.98047214 
   52800    235.99761    145.73435    144472.89   -45032.624    3333.0127   -48365.637    204.45766   0.98125907 
   52900    234.76791    186.67011    144634.15   -45005.557    3315.6455   -48321.203    204.88791   0.98016501 
   53000    236.88659   -76.201179    144589.35   -44981.704    3345.5678   -48327.272    205.28772   0.98046866 
   53100    237.66551   -152.13163    144592.26   -45000.395    3356.5686   -48356.963    205.21563   0.98044895 
   53200    233.46135      3.49019    144546.04   -45032.657    3297.1929    -48329.85    204.97493   0.98076246 
   53300    235.09552    110.02597    144524.11   -44985.831    3320.2723   -48306.103     205.1118   0.98091132 
   53400    234.70417   -147.26724    144565.99   -45106.422    3314.7454   -48421.168    205.24341   0.98062715 
   53500    232.63512   -28.176776    144527.56   -45151.732    3285.5239   -48437.256    205.55517   0.98088785 
   53600    232.47466     70.98532    144672.66   -45160.968    3283.2578   -48444.226    206.01623   0.97990405 
   53700    231.52285   -126.28902    144612.73   -45167.265    3269.8152   -48437.081     206.4487    0.9803102 
   53800    236.36498   -183.63675    144562.69   -45037.456    3338.2011   -48375.657    206.75629   0.98064952 
   53900    233.55272   -2.0720475    144582.78   -45107.433    3298.4832   -48405.917    207.30152   0.98051327 
   54000    234.49154   -147.94698    144629.37   -45096.527    3311.7423    -48408.27    207.27093   0.98019741 
   54100    235.75709    79.698971    144672.35   -45086.373    3329.6158   -48415.988    207.39559   0.97990619 
   54200    234.90023   -70.832084    144730.29   -45065.989    3317.5143   -48383.503    207.81145    0.9795139 
   54300    235.39021   -45.497077    144630.34   -45038.495    3324.4344   -48362.929    208.18802   0.98019082 
   54400    233.47439    -78.72609    144609.43   -45060.899     3297.377   -48358.276    208.54126   0.98033257 
   54500    233.59234   -92.407158    144698.57   -45041.184    3299.0429   -48340.227    209.39802   0.97972862 
   54600    234.16053    48.640072    144699.55   -44944.022    3307.0674    -48251.09    210.09746   0.97972199 
   54700    236.96201   -346.83527    144704.31   -44881.729     3346.633   -48228.362    209.93224   0.97968978 
   54800    231.33681   -195.84928     144578.2   -45002.355    3267.1879   -48269.543    209.62526   0.98054433 
   54900    233.72914   -64.402177    144542.97   -45035.215    3300.9748    -48336.19    209.58749    0.9807833 
   55000    233.14842    118.50911    144508.58   -45065.197    3292.7733    -48357.97     210.2891   0.98101669 
   55100    231.20341    5.6580322    144391.88   -45062.342    3265.3038   -48327.645    210.99904   0.98180957 
   55200    231.16715     16.20978    144363.68   -45060.799    3264.7917   -48325.591    211.38529   0.98200134 
   55300    239.20289    86.197764    144261.46   -45005.065    3378.2811   -48383.346     211.6048   0.98269716 
   55400    231.15966   -62.771945    144221.93   -45022.253    3264.6859   -48286.939    212.19077   0.98296652 
   55500    240.18169      85.4283    144232.62   -44955.275    3392.1048    -48347.38    212.56859   0.98289369 
   55600    234.80662    -73.09561    144235.72   -44951.834    3316.1922   -48268.026    212.88138   0.98287256 
   55700    234.47022    128.07322    144358.65   -44979.533    3311.4412   -48290.974    213.14959   0.98203559 
   55800    234.38454    132.86918    144422.24   -44983.095    3310.2311   -48293.326    213.84298   0.98160315 
   55900    238.19852   -78.926982    144396.55   -44945.063    3364.0963   -48309.159    214.45484   0.98177779 
   56000    236.29528    166.14787    144451.96   -44937.251    3337.2166   -48274.468    215.25634   0.98140125 
   56100    237.38049    145.04165    144462.57   -44907.663    3352.5432   -48260.207    215.36504   0.98132914 
   56200    239.17764    51.736791    144513.72   -44893.267    3377.9245   -48271.191    215.16041   0.98098183 
   56300    231.87776   -126.44552    144369.31    -44886.45    3274.8277   -48161.277     215.5182   0.98196304 
   56400    239.46173   -22.163706     144185.8   -44854.544    3381.9367   -48236.481    215.60073   0.98321285 
   56500    234.59458    81.162984    144178.98   -44927.336    3313.1976   -48240.533    216.18971   0.98325938 
   56600    228.50814   -124.53813    144149.31   -44928.131    3227.2382   -48155.369    216.72194   0.98346174 
   56700    232.44395   -169.34652    143955.86   -44944.442    3282.8241   -48227.266    217.31814   0.98478334 
   56800    231.20716    -183.4167    143729.53   -44939.252    3265.3568   -48204.608    217.52447   0.98633402 
   56900     234.4291   -87.181073    143711.94   -44850.871    3310.8604   -48161.732    217.80694   0.98645477 
   57000    236.27759    249.75772    143678.26   -44839.371    3336.9669   -48176.338    218.63313   0.98668604 
   57100    234.28947    122.80172    143774.74   -44905.115    3308.8884   -48214.003    219.21138   0.98602393 
   57200    229.52656   -25.615779    143694.37   -44951.054    3241.6215   -48192.676    219.74351   0.98657542 
   57300    234.23352   -0.4093024    143586.41   -44971.235    3308.0983   -48279.333    220.11088   0.98731717 
   57400    233.97184    36.079693    143537.28    -44971.01    3304.4025   -48275.412    220.34818   0.98765515 
   57500    230.97941   -112.81636    143562.15   -45020.796    3262.1403   -48282.936    220.55708   0.98748406 
   57600    235.89198   -59.304616     143521.2   -44972.571    3331.5209   -48304.092    220.62332   0.98776579 
   57700    233.04101    96.356467    143508.99   -45015.692    3291.2564   -48306.949    220.37009   0.98784981 
   57800    229.48315   -54.325581    143451.43   -45085.494    3241.0085   -48326.503    220.76782   0.98824621 
   57900    230.44677   -194.39771    143374.77   -45061.912    3254.6177    -48316.53    221.22249    0.9887746 
   58000    230.54745   -29.390441    143112.61   -45030.823    3256.0396   -48286.862    221.57149   0.99058588 
   58100    232.65364   -67.211655    143155.17   -45001.608    3285.7856   -48287.394    221.68922   0.99029139 
   58200    237.36622   -95.812548    143253.22   -44894.243    3352.3416   -48246.584    222.04147    0.9896136 
   58300    238.64532    250.09082    143385.96    -44810.35    3370.4065   -48180.756    222.42358   0.98869743 
   58400    238.99406   -262.87245    143549.26   -44795.877    3375.3318   -48171.209    222.66241   0.98757267 
   58500    236.77758   -191.87115    143506.91   -44798.373    3344.0282   -48142.401    222.66455   0.98786411 
   58600    237.24441    121.34317    143794.44   -44701.303    3350.6213   -48051.924    222.51482   0.98588881 
   58700    240.63142    193.49438    143955.29   -44755.151    3398.4563   -48153.608    222.83762    0.9847872 
   58800    233.83709    108.97478    143889.56   -44778.769    3302.4995   -48081.269    222.82633   0.98523706 
   58900    235.97482   -104.49547    143908.35   -44801.158    3332.6909   -48133.849    223.15021   0.98510844 
   59000    236.65334    199.82375    143753.28   -44835.142    3342.2736   -48177.416     223.5302   0.98617113 
   59100    231.90378    177.88383    143708.67   -44919.832    3275.1951   -48195.028    223.73919   0.98647725 
   59200    237.42391 -0.050258885    143842.42   -44915.669    3353.1564   -48268.825    224.82445   0.98555994 
   59300    236.95566   -92.976792    143791.63    -44918.41    3346.5433   -48264.954    225.01737   0.98590805 
   59400    233.60493    14.652047    143752.82   -44950.009    3299.2206   -48249.229    225.31012   0.98617426 
   59500    235.93694   -158.27298    143643.49   -44907.106    3332.1557   -48239.262    225.84679   0.98692487 
   59600    237.91647    26.131717    143794.21   -44896.542    3360.1129   -48256.655    226.21405    0.9858904 
   59700    236.02778   -2.3441472    143825.89   -44926.077    3333.4388   -48259.516    226.28613   0.98567321 
   59800    233.87875   -48.793171    143899.65   -44956.376    3303.0878   -48259.464    226.93501   0.98516803 
   59900    234.35799   -65.970151    143980.49   -44964.513    3309.8562   -48274.369    227.01453   0.98461486 
   60000    236.54921   -168.83652    143982.09   -44968.276    3340.8029   -48309.079    227.03182   0.98460394 
   60100    236.78088   -121.70355    143916.39   -44911.376    3344.0749   -48255.451    227.11783   0.98505343 
   60200    236.05457   -6.0075818    143861.59   -44922.134    3333.8171   -48255.951    227.00502   0.98542861 
   60300    235.67927    -6.854744    143839.97   -44848.027    3328.5168   -48176.544    226.50305   0.98557677 
   60400    237.13411    158.12748    143881.91   -44814.036    3349.0636     -48163.1    226.71986   0.98528946 
   60500    234.89018    251.80789    143862.46   -44808.141    3317.3723   -48125.513    227.49888   0.98542271 
   60600    237.83454    62.821148    143907.59   -44881.494    3358.9558    -48240.45    227.71936   0.98511363 
   60700    233.95888   -176.31093    143895.36   -44911.757    3304.2195   -48215.977    227.72624   0.98519735 
   60800    236.09117   -29.163306    143925.28    -44909.93     3334.334   -48244.264    228.31087   0.98499254 
   60900    235.37573   -101.17958    143841.29    -44821.17    3324.2298     -48145.4    227.92366    0.9855677 
   61000    236.92316    283.78196    143789.66   -44910.523    3346.0843   -48256.607    228.03466   0.98592158 
   61100    234.48523    11.269714     143901.6   -44965.346    3311.6532       -48277    229.02089   0.98515467 
   61200     233.1987   -74.148506    144111.51   -44952.245    3293.4834   -48245.728     229.7802   0.98371968 
   61300    232.52592    -170.4615    144141.16   -44911.742    3283.9817   -48195.724    230.35489   0.98351733 
   61400    233.50351   -136.71461    144200.65   -44913.283    3297.7883   -48211.071    230.83389    0.9831116 
   61500    234.49803   -474.35812    144089.92   -44941.275     3311.834   -48253.109    230.97673   0.98386711 
   61600    233.57033    79.881126    143969.84   -44843.129    3298.7319   -48141.861      231.127   0.98468768 
   61700    235.03661   -6.7103439    144033.12   -44970.541    3319.4404   -48289.981    231.87654    0.9842551 
   61800    231.17038    219.13245    144063.26   -45032.037    3264.8373   -48296.875    232.39518   0.98404914 
   61900    233.74256    147.89199    144141.81   -44982.778    3301.1643   -48283.942    232.83861   0.98351288 
   62000    234.72711   -44.444265     144255.7   -44981.955    3315.0693   -48297.024    233.15641   0.98273642 
   62100    232.00958    102.28841    144223.51   -44978.851    3276.6894    -48255.54    233.18659    0.9829558 
   62200    232.22891    79.406007    144062.29   -44991.247    3279.7871   -48271.034    232.99056   0.98405578 
   62300    234.17216   -50.943671    144120.63    -44967.68    3307.2317   -48274.912    233.68247   0.98365745 
   62400    236.11583    221.27349    143961.02   -44927.654    3334.6823   -48262.336    233.68008   0.98474805 
   62500    237.43755    51.630749     144035.4   -44946.588    3353.3491   -48299.937    233.23258   0.98423948 
   62600    235.57898    104.00187    144062.17   -44950.898    3327.1003   -48277.998    233.16926   0.98405662 
   62700    234.90659   -18.037531    144089.23   -44903.898    3317.6042   -48221.502    233.44232   0.98387178 
   62800    236.96615    35.060656    143952.08   -44870.374    3346.6915   -48217.066    233.45035   0.98480919 
   62900    237.95661    23.702765    143677.69   -44800.057    3360.6797   -48160.736    233.24256   0.98668995 
   63000    235.80769   -103.94986    143654.75   -44819.775    3330.3304   -48150.105    233.42278   0.98684752 
   63100    236.44219    267.09386    143793.43   -44752.415    3339.2915   -48091.707    234.35471   0.98589575 
   63200    236.20352   -36.900633    143762.95    -44804.69    3335.9208   -48140.611    234.31828   0.98610474 
   63300    235.84273    122.61877    143958.25   -44866.983    3330.8253   -48197.809    234.68176   0.98476701 
   63400    239.77795    39.210569    143980.03   -44762.169    3386.4027   -48148.572    235.61005   0.98461802 
   63500    235.70894    206.27199    144012.53   -44872.135    3328.9357   -48201.071    235.56131   0.98439583 
   63600    234.19492    96.557009    144093.93   -44905.553    3307.5531   -48213.107    236.42028   0.98383968 
   63700    237.18318    69.826102    144109.28   -44892.766    3349.7565   -48242.522    236.59031   0.98373494 
   63800    230.27222    274.01252    144005.88   -45046.976    3252.1525   -48299.128    236.25335   0.98444126 
   63900    232.96748    40.757899     143855.6   -45021.727    3290.2178   -48311.945    236.26814   0.98546967 
   64000    229.20776   -144.91818    143905.24    -44999.56    3237.1191   -48236.679    236.38912   0.98512972 
   64100    230.77368    72.700856     143754.1   -44918.833    3259.2346   -48178.068    236.70374   0.98616545 
   64200    234.49517    339.96364    143773.56   -44902.881    3311.7935   -48214.674    237.48612   0.98603203 
   64300    238.19022    209.16174    143878.88   -44865.959    3363.9791   -48229.938    238.29925   0.98531019 
   64400    235.28333    27.970063    144001.78   -44779.268    3322.9248   -48102.193    238.49997   0.98446929 
   64500    237.41811   -154.83746    143932.41   -44805.116    3353.0745    -48158.19    239.21951   0.98494374 
   64600    237.65955    -54.77636    143898.42   -44797.651    3356.4843   -48154.136    239.77954   0.98517639 
   64700    234.34946    18.759724    143837.28    -44863.32    3309.7358   -48173.056    239.76694   0.98559519 
   64800     233.8442     59.84331    143673.43   -44910.172    3302.5998   -48212.771     240.2601   0.98671918 
   64900    238.00642    251.50184    143721.22   -44835.407    3361.3832    -48196.79    240.83643   0.98639112 
   65000    236.70248   -220.12262    143914.45   -44788.189    3342.9676   -48131.157    241.76702    0.9850667 
   65100    239.13176   -42.476434    143935.26   -44782.994    3377.2765    -48160.27    242.14846   0.98492429 
   65200     240.0251    -163.2347    144025.66    -44824.72    3389.8932   -48214.613     242.4073   0.98430608 
   65300    235.94985    55.671097     144079.4   -44846.417    3332.3382   -48178.756     242.7491   0.98393891 
   65400    240.88067    25.000355     143975.6   -44804.033    3401.9764   -48206.009    242.97565   0.98464832 
   65500    238.77111    266.83469    144123.74   -44866.808     3372.183   -48238.991    243.14413   0.98363621 
   65600    231.30365    90.773822    144168.73   -44883.129    3266.7195   -48149.848    243.87804   0.98332928 
   65700    237.67227    68.468043    144275.42   -44959.409    3356.6641   -48316.073    244.06115   0.98260213 
   65800    231.64192    79.667264    144181.94   -44962.112    3271.4969   -48233.609    244.06229   0.98323914 
   65900    232.99997    52.151642    144141.75   -44950.495    3290.6768   -48241.172    243.89245   0.98351332 
   66000    240.19676    174.52158    144394.57   -44802.029    3392.3175   -48194.347    244.62073   0.98179128 
   66100    243.95647    58.888457    144475.67    -44758.09    3445.4163   -48203.506     245.2697    0.9812402 
   66200    242.01505   -117.66274    144581.17   -44770.689    3417.9974   -48188.686    245.92373   0.98052416 
   66300    236.02008   -153.19898    144478.83   -44812.344    3333.3301   -48145.674    246.72029   0.98121873 
   66400    234.81469   -114.21033    144340.74   -44836.771    3316.3061   -48153.077    246.74275   0.98215745 
   66500    237.88415   -10.237773    144206.54   -44840.557    3359.6563   -48200.213    246.88555   0.98307144 
   66600    233.55798   -91.219312    144184.41   -44880.302    3298.5576    -48178.86    246.84001   0.98322232 
   66700    231.72007   -255.69035    144098.45   -44934.089    3272.6006    -48206.69    247.72627   0.98380883 
[...]
   84500    231.00732    17.379256    143993.27   -44945.346    3262.5344   -48207.881    316.04183   0.98452747 
   84600    230.81861    96.094309    143921.75   -44994.502    3259.8692   -48254.371    316.18919   0.98501672 
   84700    233.98148     223.4336    143899.66    -44991.26    3304.5387   -48295.799    316.38644   0.98516793 
   84800    235.62391    22.528693    144073.66   -44972.902    3327.7348   -48300.636    316.90815   0.98397811 
   84900    230.50815    87.961656    144160.82   -44960.074    3255.4846   -48215.559    317.59385   0.98338323 
   85000    233.72435   -206.40548    144107.91   -44913.892    3300.9072   -48214.799    318.17292   0.98374427 
   85100    235.79437    -234.4217    144083.86   -44857.068    3330.1423    -48187.21    318.15353   0.98390846 
   85200    235.44537   -92.746667    144093.54   -44875.619    3325.2133   -48200.832    318.36477   0.98384239 
   85300    236.19899   -11.201314     144102.8   -44864.308    3335.8568   -48200.165    319.45235   0.98377913 
   85400    236.06138   -195.73431    143992.93   -44887.114    3333.9133   -48221.027    319.87482   0.98452979 
   85500    233.56661   -91.803479    143919.43   -44865.651    3298.6794   -48164.331    320.47892   0.98503261 
   85600     237.3708   -115.72237    143730.54   -44853.912    3352.4063   -48206.319     320.4952   0.98632712 
   85700    234.76417   -40.553724    143640.64   -44896.644    3315.5927   -48212.236    319.86974   0.98694445 
   85800    231.83765    176.63162    143709.17   -44881.553    3274.2611   -48155.814    320.67638   0.98647382 
   85900    236.43452    13.321087    143876.11   -44748.753    3339.1832   -48087.936    320.76711    0.9853292 
   86000    238.69338   -166.99806     143771.6   -44785.655    3371.0852    -48156.74    321.09316   0.98604545 
   86100    239.88628    286.74657    143730.74   -44769.114    3387.9327   -48157.047    321.62782   0.98632574 
   86200    238.39005    29.904555    143751.16   -44752.896    3366.8013   -48119.697    322.01543   0.98618567 
   86300    236.95046   -35.639443    143759.64   -44819.418    3346.4698   -48165.888    322.09693   0.98612749 
   86400    238.89769   -25.967874    143826.76   -44845.999    3373.9707    -48219.97    322.95816   0.98566724 
   86500    233.17191   -113.07047    143933.18   -44824.123    3293.1051   -48117.228    323.09935    0.9849385 
   86600       235.74    50.078804    144073.66   -44771.632    3329.3744   -48101.007    323.72521   0.98397812 
   86700     234.1498    -95.46702    143888.67   -44729.172    3306.9159   -48036.088    324.21804   0.98524317 
   86800    239.01681   -139.52035    143794.93    -44772.76     3375.653   -48148.413    324.49469   0.98588546 
   86900    236.22186   -88.840367    143733.33   -44796.761    3336.1797   -48132.941    324.92571   0.98630797 
   87000    240.84382   -107.98832    143592.83   -44774.456     3401.456   -48175.912    325.16524   0.98727303 
   87100    237.30928    16.199076    143607.34   -44817.455    3351.5375   -48168.992     325.6821    0.9871733 
   87200    228.82393   -204.57871    143592.07   -44836.839    3231.6982   -48068.537    326.34107   0.98727828 
   87300    233.14882     249.9179    143612.82   -44815.868     3292.779   -48108.647    326.54867   0.98713563 
   87400    236.89911   -93.732352    143659.52   -44857.754    3345.7447   -48203.498     327.0071   0.98681474 
   87500    235.24973   -248.75458    143579.87   -44846.533    3322.4503   -48168.983    326.76325   0.98736213 
   87600    238.03253   -100.13535    143487.35   -44857.619     3361.752   -48219.371    327.25195    0.9879988 
   87700    235.51112    59.595101    143346.33   -44892.679    3326.1419   -48218.821    327.73421   0.98897078 
   87800    233.05232    105.23463    143434.95   -44854.406    3291.4162   -48145.822    328.25987   0.98835972 
   87900    232.83236    304.66002    143503.19   -44837.818    3288.3096   -48126.127    328.81548   0.98788975 
   88000    232.94055     133.9572    143634.49   -44879.466    3289.8376   -48169.303    329.23402   0.98698671 
   88100    235.27165    92.245607     143542.4   -44820.135    3322.7598   -48142.895    329.01762   0.98761993 
   88200    233.19127    253.19012    143676.69   -44828.818    3293.3786   -48122.197    329.06299   0.98669678 
   88300    235.55374   -98.402058    143734.51   -44813.483    3326.7439   -48140.227    329.65241   0.98629989 
   88400    228.36593   -6.9955217    143831.78   -44910.626    3225.2298   -48135.856     329.6778    0.9856329 
   88500    234.48932    12.416772    143744.34   -44878.617     3311.711   -48190.328    330.54304   0.98623246 
   88600     236.6642    63.328494    143740.62   -44780.127     3342.427   -48122.554    330.65039   0.98625797 
   88700    235.38844   -146.77856    143548.63   -44817.503    3324.4094   -48141.912    331.36427   0.98757702 
   88800    240.33383    397.75795    143410.76   -44710.565    3394.2534   -48104.819    331.61118   0.98852646 
   88900    234.29106    99.501262    143504.97   -44774.469    3308.9109    -48083.38    332.54145   0.98787748 
   89000    237.80411    266.14189    143689.43   -44718.761     3358.526   -48077.287    333.37205   0.98660929 
   89100    234.23753   -178.23889    143686.05   -44811.747    3308.1549   -48119.902    333.66418   0.98663252 
   89200    230.83874   -268.92544    143427.77   -44866.488    3260.1535   -48126.642    333.93533   0.98840923 
   89300    231.75385   -145.02251    143418.89   -44918.483    3273.0777    -48191.56    334.31074   0.98847042 
   89400    234.47124   -114.54268    143538.95   -44932.441    3311.4556   -48243.896    335.90067   0.98764363 
   89500    234.22392    17.236222    143448.23   -44961.481    3307.9627   -48269.444    336.29226   0.98826824 
   89600    231.94234    177.00429    143497.15   -45046.758    3275.7397   -48322.498    337.48744    0.9879313 
   89700    231.12484   -28.555239     143618.3   -45015.218    3264.1941   -48279.412    337.92318   0.98709795 
   89800    229.41507   -11.219039    143673.17    -44976.46    3240.0469   -48216.507    338.62841   0.98672095 
   89900    232.97083    119.05061    143900.76   -45010.173    3290.2653   -48300.438    340.18484   0.98516038 
   90000    235.39718    151.61183    143972.28   -44971.027    3324.5327    -48295.56    340.26541   0.98467101 
   90100    233.37386   -223.96646    144069.15   -44960.332    3295.9572   -48256.289    341.04764   0.98400896 
   90200    231.76144   -304.89204    143924.03   -44974.856    3273.1849   -48248.041    340.91643   0.98500114 
   90300    232.44561   -181.40604    143797.65    -45029.87    3282.8475   -48312.718    341.35973   0.98586681 
   90400    231.50108    343.15946    143843.17   -44955.398    3269.5079   -48224.906    341.82797   0.98555485 
   90500     233.4576     75.58514     143959.6   -44939.722    3297.1399   -48236.862    342.24955   0.98475772 
   90600    232.92763    -10.26013    144014.16   -44855.901    3289.6551   -48145.556     342.5456   0.98438463 
   90700    238.28729    28.296131    144086.06   -44840.822    3365.3499   -48206.172    342.86586   0.98389344 
   90800    232.19677   -67.382548    144103.74   -44879.531    3279.3331   -48158.864     343.0492   0.98377275 
   90900    235.55106     120.2044    143876.18   -44932.821    3326.7059   -48259.526    342.74414   0.98532871 
   91000     235.5669   -28.140798     143865.1   -45000.405    3326.9298   -48327.335    342.82631   0.98540459 
   91100     232.8949    289.72625     143845.9   -45037.403    3289.1928   -48326.596    343.65752    0.9855361 
   91200    232.14546    92.415418    144048.41   -44982.069    3278.6084   -48260.678    344.36221   0.98415063 
   91300    235.09424     -66.7832    144090.85   -44918.577    3320.2542   -48238.831    345.13176   0.98386071 
   91400    241.72115    46.118671    144189.26   -44892.202    3413.8467   -48306.049    345.42522   0.98318927 
   91500    235.41194    126.96766    144353.68   -44869.242    3324.7412   -48193.983    345.50581   0.98206942 
   91600    237.63529   -77.340096    144226.66   -44944.673    3356.1417   -48300.815    345.55074    0.9829343 
   91700    235.84648   -5.3569967    144344.96   -44964.711    3330.8783   -48295.589     346.0688   0.98212869 
   91800    233.32402    41.938193    144427.41   -44983.575    3295.2533   -48278.829    346.58973   0.98156805 
   91900    234.48392   -122.86239    144421.53   -44962.246    3311.6347   -48273.881     347.0795   0.98160803 
   92000     232.5948   -168.67293    144321.92   -45003.769    3284.9545   -48288.723    347.16849   0.98228552 
   92100    231.54792   -255.90149    144298.84   -45004.698    3270.1694   -48274.867    347.98102   0.98244264 
   92200    232.35435   -196.42523    144229.28   -45010.303    3281.5586   -48291.861    347.46935   0.98291647 
   92300    231.98152    412.66767    144288.38   -44871.363    3276.2932   -48147.656    347.71252   0.98251382 
   92400    233.81013   -90.059862    144493.52   -44818.178    3302.1187   -48120.297    348.68534   0.98111896 
   92500    236.47769    3.2093323    144562.56   -44885.957    3339.7928    -48225.75    348.91993   0.98065042 
   92600    235.66954    170.72745    144549.26   -44868.778    3328.3792   -48197.157     349.1153   0.98074063 
   92700    238.84736   -191.26459    144580.48   -44864.484    3373.2599   -48237.744    349.60227   0.98052883 
   92800    234.41841   -45.213926    144476.75   -44912.733    3310.7095   -48223.442    349.87509   0.98123284 
   92900    236.09497    78.122308    144327.62   -44893.808    3334.3877   -48228.196    350.65614    0.9822467 
   93000    236.94635   -161.89188    144273.76   -44913.092    3346.4119   -48259.504    350.85884    0.9826134 
   93100    237.11708    128.00449    144130.03   -44828.438    3348.8231   -48177.261    350.95904   0.98359329 
   93200     234.0584    -183.6673    144024.22   -44885.095     3305.625    -48190.72    350.85972   0.98431588 
   93300    235.51217   -303.82273    143954.52   -44876.192    3326.1567   -48202.348    350.42685   0.98479249 
   93400    234.88131   -241.93614    143907.47   -44899.518     3317.247   -48216.765    350.84396   0.98511448 
   93500    232.95745    125.44849    143830.25   -44926.413    3290.0763   -48216.489    350.78429   0.98564336 
   93600    231.70874   -184.22915    143737.83    -45010.54    3272.4406    -48282.98    351.07487    0.9862771 
   93700    235.07792   -222.26928     143698.5   -44965.501    3320.0238   -48285.525    351.26713   0.98654701 
   93800     234.5474     58.71588    143529.71   -44924.024    3312.5313   -48236.555    351.50102   0.98770723 
   93900    235.95012    22.078356    143595.21   -44870.079     3332.342   -48202.421    351.61166   0.98725667 
   94000    235.36912    73.079004    143841.13   -44920.153    3324.1365    -48244.29    352.55437   0.98556877 
   94100    234.48757    112.13426    143884.44   -44896.201    3311.6862   -48207.887    353.30339   0.98527215 
   94200    235.02403   -140.37612    143763.71   -44915.352    3319.2628   -48234.614     353.4489   0.98609958 
   94300    238.81442   -178.97845    143721.52   -44877.999    3372.7947   -48250.794    353.67004   0.98638906 
   94400    233.82282    116.94033    143743.78   -44826.252    3302.2979    -48128.55    353.96303   0.98623628 
   94500    237.15393    66.113282    143793.88   -44770.485    3349.3434   -48119.828    354.51999   0.98589263 
   94600    233.92061    175.39869    143797.03   -44813.878     3303.679   -48117.557    354.54779   0.98587104 
   94700    236.03359    17.197808    143765.72   -44804.343    3333.5208   -48137.864    354.65661   0.98608579 
   94800    240.48416    143.97157    143775.14   -44842.227    3396.3766   -48238.603    355.75633   0.98602117 
   94900    236.38965    164.62176    143936.78   -44770.601    3338.5494    -48109.15    356.47913   0.98491384 
   95000    234.96939    148.43068     144082.7   -44825.401     3318.491   -48143.892    357.50254   0.98391638 
   95100    238.66101    18.654758    144184.35   -44831.121    3370.6281   -48201.749    358.09519   0.98322273 
   95200     236.5409   -281.09161    144249.28   -44854.026    3340.6856   -48194.711    358.09482   0.98278014 
   95300    241.81456    12.001867    144199.57   -44793.336    3415.1659   -48208.502    358.61046   0.98311896 
   95400    238.18455    33.516864    144269.76    -44813.06     3363.899   -48176.959     359.5812   0.98264062 
   95500    236.31624   -103.38183    144324.67    -44796.41    3337.5127   -48133.923    359.76666   0.98226682 
   95600    235.55205   -113.45383    144262.25   -44872.638      3326.72   -48199.358     359.7427   0.98269182 
   95700    234.94978    117.09908    144467.09   -44903.346    3318.2141    -48221.56    360.41372   0.98129847 
   95800    230.71407   -70.422071    144526.54   -44938.223    3258.3928   -48196.616     360.9558   0.98089479 
   95900     236.6983   -74.183609    144474.78    -44925.43    3342.9086   -48268.339    361.16683   0.98124619 
   96000    231.80791    -266.8796    144252.62   -44976.385    3273.8412   -48250.226    361.04385   0.98275737 
   96100    237.10049    99.945155     144269.1    -44979.12    3348.5887   -48327.709    361.37115   0.98264513 
   96200    234.14374    36.732031    144295.41   -45014.352    3306.8303   -48321.182     362.1263   0.98246599 
   96300    230.68642   -122.44236    144438.69   -45011.502    3258.0023   -48269.504    362.87042   0.98149141 
   96400    235.63426   -52.208055    144508.99   -44936.819     3327.881     -48264.7    363.26452   0.98101391 
   96500    231.57935   -124.90346    144329.93    -44979.57    3270.6132   -48250.184    363.10342   0.98223098 
   96600    232.83748     223.5793     144333.7   -44971.083    3288.3819   -48259.465    363.47296   0.98220534 
   96700    235.75912   -57.141879    144270.48    -45025.73    3329.6444   -48355.375    363.16701   0.98263575 
   96800    231.54485    182.84885    144182.16   -45122.871     3270.126   -48392.997    363.45716   0.98323767 
   96900    231.16506    160.09363    144256.34   -45051.021    3264.7622   -48315.784    364.04524   0.98273204 
   97000    234.32253   -11.904952     144234.9   -45036.836    3309.3554   -48346.191    365.04628   0.98287813 
   97100    230.92893    98.824132    144318.25   -44979.748    3261.4273   -48241.175    365.51238   0.98231049 
   97200     231.1984   -126.69654     144337.4   -45019.139     3265.233   -48284.372    366.14702   0.98218018 
   97300    226.68666    101.39109    144299.73   -45008.891    3201.5134   -48210.404    366.20032   0.98243658 
   97400    232.83651    112.49047     144417.4    -44998.98    3288.3682   -48287.348    367.14433   0.98163609 
   97500    234.08109    135.33698    144419.57   -44892.778    3305.9456   -48198.724    367.23832   0.98162132 
   97600    233.52248   -173.34457    144473.72   -44897.179    3298.0562   -48195.236    367.59761   0.98125339 
   97700    236.43226    -82.05475    144456.29   -44904.488    3339.1512   -48243.639    367.61192   0.98137181 
   97800     238.6843    -68.70584    144455.08   -44813.471    3370.9571   -48184.428    368.14362   0.98138002 
   97900    237.61747    45.542141     144435.4   -44786.131    3355.8901   -48142.021    368.25809   0.98151377 
   98000    236.04497    23.382969    144403.07   -44823.888    3333.6816    -48157.57    369.02203   0.98173348 
   98100    234.23384   -113.22463    144278.33    -44919.33    3308.1028   -48227.433     369.4159   0.98258225 
   98200    236.15771   -172.97211     144120.3   -44899.506    3335.2738    -48234.78    369.17797   0.98365971 
   98300      231.401     181.4912    144220.49   -44894.968    3268.0944   -48163.063    369.96006   0.98297633 
   98400    235.36467    264.78942    144207.17   -44883.911    3324.0737   -48207.985    370.25884   0.98306716 
   98500    233.47759    55.900278    144300.53   -44923.102    3297.4222   -48220.524    370.81026   0.98243108 
   98600    236.22813    24.239376    144349.83   -44980.249    3336.2683   -48316.517    371.29211   0.98209559 
   98700    231.18978   -20.343608    144269.58   -45052.745    3265.1113   -48317.856    371.14056   0.98264187 
   98800    233.30906    3.1217847    144258.05   -45030.069    3295.0421   -48325.111    371.07632   0.98272044 
   98900    232.35605   -81.013412    144191.59   -45042.451    3281.5827   -48324.033    371.63729   0.98317339 
   99000    229.85691    75.816783    144178.06   -45021.972     3246.287   -48268.259    371.49548   0.98326566 
   99100    229.93349    72.893032    144195.25   -44963.238    3247.3686   -48210.607    372.09829   0.98314838 
   99200    230.41667    65.042616    144035.09   -44905.009    3254.1926   -48159.201    372.26288   0.98424163 
   99300    235.50221   -33.991238    144046.39   -44904.632    3326.0161   -48230.649    373.09663   0.98416442 
   99400    231.89796   -152.04794    143982.01   -44892.837     3275.113    -48167.95    373.17358   0.98460447 
   99500    238.49724   -220.48935    143843.59   -44713.044    3368.3152    -48081.36    372.84344   0.98555192 
   99600    238.31524   -148.31015    143744.54   -44750.294    3365.7448   -48116.038    373.17659   0.98623106 
   99700    237.22826   -191.26263    143673.16   -44741.329    3350.3932   -48091.722    373.31251   0.98672105 
   99800    238.68862    89.225082    143586.85   -44712.514     3371.018   -48083.532    373.81229   0.98731417 
   99900    233.80769    9.9555546    143641.68   -44768.807    3302.0842   -48070.891    374.39372   0.98693727 
  100000    237.82007    261.32971    143805.81   -44821.501    3358.7514   -48180.252    375.48036   0.98581086 
  100100    237.42883    126.16006    143890.15   -44776.649    3353.2259   -48129.875    375.81907   0.98523301 
  100200     237.5399   -42.644597    143877.42   -44769.293    3354.7945   -48124.088    376.35503    0.9853202 
  100300    235.18838   -116.10933    143813.02   -44730.052    3321.5839   -48051.636    377.14799   0.98576142 
  100400    237.92775    276.79344    143893.94   -44734.593    3360.2722   -48094.865    377.16169   0.98520708 
  100500    239.43185   -128.44138    143991.55   -44713.658    3381.5147   -48095.173    378.07003   0.98453921 
  100600    239.54443    38.947959    144209.04   -44781.619    3383.1047   -48164.724    378.21387   0.98305441 
  100650    235.16664    -125.4942    144192.19   -44779.537    3321.2768   -48100.814    378.39515    0.9831693 
Loop time of 104.634 on 12 procs for 100000 steps with 4739 atoms

Performance: 412.866 ns/day, 0.058 hours/ns, 955.709 timesteps/s
97.3% CPU use with 12 MPI tasks x no OpenMP threads

MPI task timing breakdown:
Section |  min time  |  avg time  |  max time  |%varavg| %total
---------------------------------------------------------------
Pair    | 67.292     | 68.647     | 70.161     |  11.1 | 65.61
Neigh   | 4.0791     | 4.1505     | 4.2389     |   2.0 |  3.97
Comm    | 21.134     | 22.848     | 24.287     |  19.8 | 21.84
Output  | 0.27933    | 0.28735    | 0.333      |   2.6 |  0.27
Modify  | 7.0325     | 7.2494     | 7.5158     |   5.0 |  6.93
Other   |            | 1.453      |            |       |  1.39

Nlocal:        394.917 ave         407 max         386 min
Histogram: 2 1 3 1 0 1 1 2 0 1
Nghost:        1006.00 ave        1025 max         998 min
Histogram: 3 2 3 1 1 1 0 0 0 1
Neighs:        0.00000 ave           0 max           0 min
Histogram: 12 0 0 0 0 0 0 0 0 0
FullNghs:      11267.7 ave       11739 max       10958 min
Histogram: 2 2 2 1 0 1 2 1 0 1

Total # of neighbors = 135212
Ave neighs/atom = 28.531758
Neighbor list builds = 5995
Dangerous builds = 0

undump              1
unfix               2
unfix               3
unfix               4


write_data		data.${NAME}
write_data		data.liquid_ML
System init for write_data ...
Total wall time: 0:01:45
