
# read in water data
read_data data.liquid_ML group water extra/atom/types 1
Reading data file ...
  orthogonal box = (0.0000000 0.0000000 0.14966194) to (49.220000 49.019636 59.912338)
  2 by 2 by 3 MPI processor grid
  reading atoms ...
  4739 atoms
  reading velocities ...
  4739 velocities
  read_data CPU = 0.018 seconds

# remove area for graphite
region substrate block 0 ${XDIM} 0 ${YDIM} ${Z_LO} ${Z_HI}
region substrate block 0 49.22 0 ${YDIM} ${Z_LO} ${Z_HI}
region substrate block 0 49.22 0 49.019635930410494 ${Z_LO} ${Z_HI}
region substrate block 0 49.22 0 49.019635930410494 25 ${Z_HI}
region substrate block 0 49.22 0 49.019635930410494 25 35.062
delete_atoms region substrate
Deleted 801 atoms, new total = 3938

# Insert substrate
read_data data.graphite_test add append shift 0.0 0.0 ${Z_LO} group graphite offset 1 0 0 0 0
read_data data.graphite_test add append shift 0.0 0.0 25 group graphite offset 1 0 0 0 0
Reading data file ...
  orthogonal box = (0.0000000 0.0000000 0.14966194) to (49.220000 49.019636 59.912338)
  2 by 2 by 3 MPI processor grid
  reading atoms ...
  2760 atoms
  reading velocities ...
  2760 velocities
  read_data CPU = 0.006 seconds


# Define potential
# CHECK ON THIS %%%%%%%%%%%%
#
pair_style sw
pair_coeff * * MLC.sw mW C
Reading sw potential file MLC.sw with DATE: 2019-02-27


# Delete water and ice atoms that are overlapping
#
delete_atoms overlap 2.5 water graphite
System init for delete_atoms ...
Neighbor list info ...
  update every 1 steps, delay 10 steps, check yes
  max neighbors/atom: 2000, page size: 100000
  master list distance cutoff = 7.76
  ghost atom cutoff = 7.76
  binsize = 3.88, bins = 13 13 16
  2 neighbor lists, perpetual/occasional/extra = 1 1 0
  (1) command delete_atoms, occasional, copy from (2)
      attributes: full, newton on
      pair build: copy
      stencil: none
      bin: none
  (2) pair sw, perpetual
      attributes: full, newton on
      pair build: full/bin/atomonly
      stencil: full/bin/3d
      bin: standard
Deleted 109 atoms, new total = 6589

# set timestep
#
timestep 10.0

# Define output
#
compute 1 all msd
thermo 50
thermo_style custom step temp press vol etotal ke pe c_1[4]

# Neighbor lists
#
neigh_modify delay 0 every 1 check yes


# Fix graphite atoms in place
# CHECK ON THIS %%%%%%%%%%%%%%%%%%%%
#
fix 1 graphite setforce 0.0 0.0 0.0
velocity graphite set 0.0 0.0 0.0

# Set fixes
#
fix 2 water momentum 10 linear 1 1 1 rescale
fix 3 all nph z ${PRES} ${PRES} ${PCOUPL}
fix 3 all nph z 1 ${PRES} ${PCOUPL}
fix 3 all nph z 1 1 ${PCOUPL}
fix 3 all nph z 1 1 10000.0
fix 4 all temp/csvr ${TEMP} ${TEMP} ${TCOUPL} 837492
fix 4 all temp/csvr 235 ${TEMP} ${TCOUPL} 837492
fix 4 all temp/csvr 235 235 ${TCOUPL} 837492
fix 4 all temp/csvr 235 235 5000.0 837492


# Run 0.5 ns equilibration of water
#
dump 1 all atom 1000 eq.all.${NAME}.dump
dump 1 all atom 1000 eq.all.graphite_ML.dump
run 50000
Neighbor list info ...
  update every 1 steps, delay 0 steps, check yes
  max neighbors/atom: 2000, page size: 100000
  master list distance cutoff = 7.76
  ghost atom cutoff = 7.76
  binsize = 3.88, bins = 13 13 16
  1 neighbor lists, perpetual/occasional/extra = 1 0 0
  (1) pair sw, perpetual
      attributes: full, newton on
      pair build: full/bin/atomonly
      stencil: full/bin/3d
      bin: standard
Per MPI rank memory allocation (min/avg/max) = 4.560 | 4.691 | 4.955 Mbytes
Step Temp Press Volume TotEng KinEng PotEng c_1[4] 
       0    137.53943   -603.21882    144192.19   -35563.007     2700.941   -38263.948            0 
      50    146.02684   -1469.2911    143997.87   -35397.995    2867.6132   -38265.608   0.61880496 
     100    153.24616   -1430.1318    143210.92    -35229.76    3009.3832   -38239.143    1.0952799 
     150     156.4116   -896.57662       142100    -35059.69    3071.5448   -38131.235    1.5647106 
     200    159.63118   -197.90689    141261.88   -34963.356    3134.7696   -38098.126    2.0371354 
     250    164.00827   -753.86681    140727.53   -34814.059     3220.725   -38034.784    2.6960895 
     300    166.03393   -426.26453    140265.54   -34632.264     3260.504   -37892.768    3.3026624 
     350    166.76042   -54.023807    139909.54   -34533.273    3274.7705   -37808.044    3.8106802 
     400    166.88583   -404.52042    139614.32   -34415.244    3277.2332   -37692.477    4.3519588 
     450    170.49944   -433.74901    139281.53   -34257.048    3348.1959   -37605.244    5.0359468 
     500    170.19716   -473.49068    138941.31   -34161.591    3342.2598   -37503.851    5.7309968 
     550    173.87084    -179.8402    138655.06   -34059.123    3414.4019   -37473.524     6.331486 
     600    179.46744   -218.08936    138385.63   -33954.041    3524.3057   -37478.347    7.0806671 
     650    175.50231   -71.966176    138169.98   -33833.647      3446.44   -37280.087    7.7510388 
     700    177.22472   -488.28603     138002.7   -33725.718     3480.264   -37205.982    8.4406156 
     750    179.26156   -229.71213    137831.93   -33631.575    3520.2627   -37151.838    9.1322668 
     800    184.92676   -379.09492    137666.06   -33520.694    3631.5135   -37152.208    9.9582648 
     850    186.45987   -242.71187    137521.66   -33401.324      3661.62   -37062.944    10.807194 
     900     187.2306   -38.841775    137399.77    -33294.67    3676.7552   -36971.425     11.75168 
     950    194.04547    -120.6619    137335.04     -33206.2    3810.5827   -37016.783    12.760386 
    1000    190.64837   -308.15233    137337.28   -33117.982    3743.8719   -36861.854     13.66605 
    1050    190.12813    87.884063    137357.19   -33041.981    3733.6558   -36775.637    14.626272 
    1100     190.6063   -100.85656    137396.14   -32978.927    3743.0459   -36721.973    15.571455 
    1150    194.32489   -188.90286    137431.83   -32903.686    3816.0698   -36719.755    16.537316 
    1200    197.62701   -223.65947    137542.11   -32846.601    3880.9156   -36727.516    17.547285 
    1250    196.56688   -199.24315    137703.16   -32778.332    3860.0972   -36638.429    18.606693 
    1300    197.65466   -371.70778    137889.02   -32720.551    3881.4584    -36602.01    19.714705 
    1350    201.14021    104.45248    138038.18   -32663.682    3949.9064   -36613.589    20.769429 
    1400    200.86465   -256.43673    138193.73   -32578.955     3944.495    -36523.45    22.021293 
    1450    201.32369   -207.83313    138355.79   -32504.461    3953.5095   -36457.971       23.133 
    1500    202.37403    107.33975     138528.5    -32454.78    3974.1356   -36428.915     24.07892 
    1550    202.58445   -117.21683    138754.53   -32401.231    3978.2676   -36379.499    25.241169 
    1600    199.23544   -324.76338    138955.74   -32334.976    3912.5012   -36247.477     26.60411 
    1650    202.79295   -641.16102    139045.74   -32285.095     3982.362   -36267.457    28.046468 
    1700    206.26187    -198.2379    139058.56   -32211.907    4050.4832    -36262.39    29.474617 
    1750     207.2914   -499.69833    139045.77   -32170.753    4070.7008   -36241.454    30.579509 
    1800    208.50269   -228.63982    139043.76   -32105.057    4094.4875   -36199.544     31.93469 
    1850    208.92729   -6.2241735    139045.99   -32039.902    4102.8257   -36142.728    33.413077 
    1900    208.06727    93.264894    139036.17   -31973.452    4085.9369   -36059.389    34.810652 
    1950    213.12986    5.3943229    139081.25   -31922.803     4185.354   -36108.157    36.115756 
    2000    215.55834   -136.53079    139167.25   -31859.765    4233.0434   -36092.808     37.55214 
    2050    216.40241     25.98888    139283.46   -31847.022    4249.6189   -36096.641    39.055649 
    2100    212.42998   -123.65074    139394.78   -31819.546    4171.6101   -35991.156     40.87547 
    2150    213.13684    78.048084    139476.27   -31775.594    4185.4911   -35961.085    42.396615 
    2200    218.89625    202.75581    139537.51   -31723.238    4298.5918    -36021.83    43.696551 
    2250    214.13476     -217.408     139556.6   -31691.618    4205.0878   -35896.705    44.816392 
    2300    220.16873   -160.20036    139524.92    -31621.39    4323.5802    -35944.97    46.273239 
    2350    220.91227   -187.90377    139539.33   -31556.844    4338.1816   -35895.026    48.096251 
    2400    222.83057   -70.515949    139534.95   -31530.953    4375.8523   -35906.805    49.719291 
    2450    223.02868    57.747201     139578.8   -31494.249    4379.7427   -35873.992    51.163881 
    2500     222.2317    217.19142    139678.58    -31433.09    4364.0919   -35797.182    52.966814 
    2550    220.65386   -145.63275    139794.13    -31405.07    4333.1071   -35738.177    54.511486 
    2600    222.98383   -190.24073    139918.03   -31389.491     4378.862   -35768.353    56.399295 
    2650    223.34936   -1.1725258    140060.89   -31324.391    4386.0402   -35710.431    58.054205 
    2700    224.76576   -102.09801    140168.43   -31296.927    4413.8549   -35710.782    60.045507 
    2750    225.14533    202.07201    140229.78   -31302.975    4421.3087   -35724.283    61.886728 
    2800    225.90666   -373.96058     140295.5   -31287.621    4436.2593   -35723.881    63.673246 
    2850    224.93679   -192.69093    140359.69   -31283.564    4417.2135   -35700.778    65.172548 
    2900    223.71263   -161.32154    140463.28   -31281.571    4393.1739   -35674.745    66.568183 
    2950    224.91813   -90.002777    140551.14   -31269.587     4416.847   -35686.434    67.986352 
    3000    223.37219   -92.205464    140608.38   -31228.531    4386.4885   -35615.019    69.906019 
    3050    225.89721   -635.18315    140734.02    -31223.83    4436.0738   -35659.903     71.65665 
    3100    225.63792   -436.79992     140895.1   -31201.591    4430.9819   -35632.573     72.96575 
    3150    227.42342   -646.80585     140975.6   -31199.446    4466.0449   -35665.491    74.263985 
    3200    229.22261   -609.78104    140993.16   -31166.005    4501.3766   -35667.381     75.98177 
    3250    228.71752   -128.40554    140885.22   -31138.996    4491.4579   -35630.454    77.466276 
    3300    226.71469    201.84586    140755.43   -31104.176    4452.1272   -35556.303    79.242909 
    3350    230.80019    102.85107    140579.34   -31023.716    4532.3565   -35556.073    80.657493 
    3400    228.18326   -36.099402    140452.93   -31054.451    4480.9662   -35535.417    82.473467 
    3450    232.82686   -318.89929    140366.12   -31068.009    4572.1553   -35640.165    84.428035 
    3500    228.51199   -17.308885    140344.51   -31051.836    4487.4217   -35539.258    86.047059 
    3550    231.32883   -236.87139    140362.64   -31022.766    4542.7377   -35565.503    87.397005 
    3600    229.04109   -245.21716    140393.47   -31020.471    4497.8119   -35518.282    89.054563 
    3650    231.52374   -271.40156     140407.2   -31030.285    4546.5651    -35576.85    90.416029 
    3700    229.85983   -66.002189    140453.81   -31019.867    4513.8901   -35533.758    92.276726 
    3750    227.24314   -514.56014    140504.86   -31016.663    4462.5045   -35479.167    93.949718 
    3800    229.99331   -191.85239    140499.16   -31017.079    4516.5112    -35533.59    95.483358 
    3850    230.39974   -68.751559    140446.07   -31001.543    4524.4926   -35526.035    96.545376 
    3900    230.12647    369.79208    140430.69   -31008.278    4519.1262   -35527.405    98.117419 
    3950    229.23321   -121.74327    140523.68   -30976.478    4501.5847   -35478.063    99.981734 
    4000    227.28536    -257.8587    140653.69   -30985.719    4463.3336   -35449.052    101.81131 
    4050    228.59748    -32.09026    140786.75   -30966.179    4489.1005   -35455.279    103.40254 
    4100    229.18005   -579.63819    140872.39    -30945.61    4500.5408   -35446.151    105.11289 
    4150    232.39014    286.78895    140894.96   -30920.967    4563.5792   -35484.546    106.69809 
    4200    228.86948   -188.17827    141023.74   -30920.278    4494.4419    -35414.72    108.45489 
    4250    235.09257   -214.57106    141170.81   -30892.034    4616.6484   -35508.682    110.04516 
    4300    230.13467   -76.005197    141305.59   -30904.781    4519.2873   -35424.068    112.10313 
    4350    229.33971   -338.69153    141452.54    -30906.63    4503.6762   -35410.306    113.75755 
    4400    233.03026    45.986149    141540.75   -30901.148    4576.1495   -35477.297    116.06507 
    4450    231.97323    18.646363    141624.36   -30846.865     4555.392   -35402.257    118.02363 
    4500    231.80553   -548.03245    141648.17   -30798.872    4552.0989   -35350.971    119.88626 
    4550    235.13725   -181.99984    141595.61   -30767.542    4617.5258   -35385.068    122.43452 
    4600    237.23649   -119.21739    141523.42   -30762.391    4658.7497   -35421.141    123.55959 
    4650    237.22598   -325.50814    141447.06   -30722.976    4658.5434   -35381.519    125.35788 
    4700    237.33952   -115.15078    141367.41   -30703.981     4660.773   -35364.754    127.05649 
    4750    237.44687   -348.03286    141311.57   -30715.013    4662.8811   -35377.894    128.85945 
    4800    238.53284   -130.20937    141252.52   -30709.348    4684.2069   -35393.555    130.59879 
    4850    237.96407    140.74377    141262.21    -30713.57    4673.0376   -35386.608    132.05182 
    4900    237.96825   -199.64283    141368.24   -30717.029    4673.1198   -35390.149    133.68354 
    4950    234.03891    71.656529     141475.3   -30709.267     4595.957   -35305.224    135.29326 
    5000    234.67298   -104.62652    141610.76   -30723.675    4608.4086   -35332.084    137.04648 
    5050    235.22509   -714.46915    141724.82   -30739.834    4619.2506   -35359.084    138.72212 
    5100    237.29359   -392.65977    141749.86   -30735.466    4659.8711   -35395.337    140.51164 
    5150    235.83188    -43.58575    141729.33   -30755.176    4631.1667   -35386.343    142.42794 
    5200    230.38919   -34.114038    141648.69   -30749.388    4524.2853   -35273.673    144.40106 
    5250    234.95931   -434.81221    141541.75    -30728.51    4614.0314   -35342.542    146.12528 
    5300    234.12874   -89.058842    141500.83   -30718.086    4597.7211   -35315.807    148.01591 
    5350    234.39221   -474.78778    141564.42   -30699.636     4602.895   -35302.531    149.64932 
    5400    233.95917   -206.90364    141589.89   -30725.936    4594.3912   -35320.327    151.33651 
    5450    229.75513   -5.8860533    141591.74   -30710.851     4511.834   -35222.685    153.10635 
    5500    231.97603   -178.46825    141577.91   -30703.482    4555.4471   -35258.929    154.41455 
    5550    232.52603   -377.44054    141529.87   -30735.002    4566.2477    -35301.25    156.17964 
    5600     234.2881   -486.33701    141459.55   -30760.994    4600.8505   -35361.844    157.73321 
    5650    231.45354   -487.55689    141382.74   -30829.585    4545.1866   -35374.772      159.356 
    5700     228.8376   -238.23549    141269.61   -30815.761    4493.8158   -35309.577    160.91452 
    5750    229.94004    57.509846     141190.2   -30792.284    4515.4651   -35307.749    162.40338 
    5800     232.7256   -97.843697    141086.53   -30786.639    4570.1667   -35356.806    163.31475 
    5850    237.07168    34.109015    140965.64   -30746.653    4655.5132   -35402.167    164.58758 
    5900     233.1887   -69.639218    140879.27   -30763.703     4579.261   -35342.964    166.21249 
    5950    237.00137   -363.11679    140850.92   -30781.202    4654.1326   -35435.335    167.53379 
    6000    236.63612   -38.849987    140859.53   -30778.075    4646.9599   -35425.035    169.75786 
    6050    236.29407   -384.31755    140948.26   -30734.852     4640.243   -35375.094    171.77061 
    6100    233.65849    36.468214     141054.1   -30746.451    4588.4864   -35334.938     174.1544 
    6150    233.17133    14.506287    141124.03   -30732.819    4578.9199   -35311.739    175.69307 
    6200    235.13814    482.11394     141180.2   -30747.109    4617.5432   -35364.652    177.40807 
    6250    237.05433    72.133579    141266.94   -30746.716    4655.1726   -35401.888     178.9824 
    6300    238.04069   -102.25579    141356.74   -30716.959    4674.5422   -35391.501    181.03774 
    6350    232.35892   -194.91664    141483.23   -30681.939     4562.966   -35244.905    182.83642 
    6400    233.75677    48.925659    141576.26   -30729.458    4590.4165   -35319.874    184.81483 
    6450    236.71533   -107.82984    141684.66   -30738.344    4648.5155   -35386.859    186.63674 
    6500     232.3408    -495.7517    141770.41   -30702.683    4562.6103   -35265.294    188.02565 
    6550    234.83373   -440.39901    141792.23   -30677.404    4611.5653    -35288.97    189.74781 
    6600    236.36221   -573.16644    141803.27   -30689.746     4641.581   -35331.327    191.92517 
    6650    235.46421   -118.65026    141780.69    -30710.99    4623.9464   -35334.936    193.94424 
    6700    235.75762   -15.166455    141750.72   -30729.907    4629.7083   -35359.616    195.57486 
    6750    235.58091   -39.744034    141764.91    -30734.84    4626.2381   -35361.078    196.35862 
    6800    234.73051   -373.94778     141770.2   -30723.019    4609.5383   -35332.557      197.966 
    6850    234.47144   -232.12794    141685.02   -30710.896    4604.4509   -35315.347      199.998 
    6900    236.26917   -169.52583     141523.1   -30690.198    4639.7539   -35329.952     201.7044 
    6950    236.93075   -1.1666131    141320.82   -30698.069    4652.7458   -35350.815     203.7416 
    7000     239.0231    130.92074    141166.65   -30667.883    4693.8344   -35361.718    205.43811 
    7050    240.09236   -71.681598    141089.02   -30674.825    4714.8322   -35389.657    206.79956 
    7100    237.55721   -163.74017    141079.26   -30665.751     4665.048   -35330.799    208.25439 
    7150    239.37784   -556.00831     141088.6   -30708.012    4700.8008   -35408.813    210.38688 
    7200    235.99297    111.72367    141090.26   -30735.305      4634.33   -35369.635    212.35001 
    7250    234.31475   -255.04704    141133.33   -30711.416    4601.3738    -35312.79     214.5786 
    7300     236.2122    187.50662    141158.28   -30689.369    4638.6352   -35328.005    216.02863 
    7350    235.91565   -524.56388    141209.34   -30673.204    4632.8116   -35306.016    218.08707 
    7400    237.44962   -440.73321    141211.28   -30658.249    4662.9352   -35321.185    220.22511 
    7450    236.85029    468.18923    141177.67   -30643.973    4651.1657   -35295.139    221.98811 
    7500    237.27496    64.220267    141201.29   -30706.714    4659.5053   -35366.219    224.23852 
    7550    238.45777   -211.77395    141226.53   -30711.811    4682.7326   -35394.543    226.29812 
    7600    240.49857    145.44844    141214.13   -30689.374     4722.809   -35412.183    228.35077 
    7650     237.9085   -186.85702     141308.6   -30682.326    4671.9465   -35354.272    230.00568 
    7700    234.88961   -178.10133    141447.88   -30686.879    4612.6628   -35299.542    232.22637 
    7750    237.76021   -222.53535    141589.07   -30668.406    4669.0344    -35337.44    233.74816 
    7800    232.58242    62.684593    141694.82   -30705.633     4567.355   -35272.988    235.84117 
    7850    235.39047   -213.10405    141822.35   -30682.694    4622.4984   -35305.192    238.14208 
    7900    236.12783    -155.2418    141910.06   -30699.915    4636.9783   -35336.893    239.93998 
    7950    233.02073   -116.13964    142008.19   -30735.197    4575.9625    -35311.16    241.61253 
    8000    233.96624   -372.63239    142011.42   -30736.932      4594.53   -35331.462    243.78693 
    8050     234.7877   -54.494724    141969.02   -30705.502    4610.6615   -35316.164    245.92582 
    8100    229.69931    -547.4124    141918.73   -30735.276    4510.7378   -35246.014    247.77552 
    8150    227.72001   -17.893758    141810.49   -30699.475    4471.8691   -35171.344    249.22202 
    8200    235.61834    21.421567    141732.43   -30709.223    4626.9733   -35336.196    250.83991 
    8250    230.09047   -152.17252    141636.71   -30697.717    4518.4192   -35216.136     252.7302 
    8300    236.06136   -52.001169    141521.19   -30692.839    4635.6731   -35328.512    254.43856 
    8350     233.1713   -160.29196    141444.41   -30718.532    4578.9193   -35297.451    256.40692 
    8400    234.01251   -583.59078    141371.67   -30727.582    4595.4386   -35323.021    257.94057 
    8450     233.8221   -153.94563    141180.69   -30743.127    4591.6995   -35334.827    259.04922 
    8500    238.27263    276.79402    140967.37   -30723.686    4679.0971   -35402.783    260.84273 
    8550     236.4502    92.817536    140838.74   -30743.147     4643.309   -35386.456    262.04148 
    8600     239.6466   -307.04775    140758.56   -30738.428    4706.0784   -35444.507    263.88391 
    8650     239.1426   -115.13149    140668.89   -30743.345    4696.1812   -35439.526     265.6517 
    8700      237.094     272.8913    140599.39   -30748.221    4655.9516   -35404.172    268.32294 
    8750      240.911    506.59109    140637.84   -30724.168    4730.9083   -35455.076     270.6377 
    8800    237.92876   -270.72242    140780.63   -30747.117    4672.3443   -35419.462    272.92943 
    8850    233.81598   -106.05788    140980.81   -30767.444    4591.5792   -35359.024    274.93483 
    8900     234.3405   -462.33972    141188.99    -30777.02    4601.8795     -35378.9    277.73084 
    8950    236.02529   -298.53472    141364.65   -30765.888    4634.9647   -35400.853    280.00825 
    9000    233.98466   -80.493564    141486.78   -30760.553    4594.8916   -35355.445    281.74854 
    9050    231.57632    170.27754    141560.17   -30765.097    4547.5976   -35312.695    283.65698 
    9100    232.74996   -293.54954    141652.89   -30794.887    4570.6451   -35365.532    286.31076 
    9150    231.31397   -219.53812    141710.98   -30772.559    4542.4458   -35315.005    288.22432 
    9200    237.16438   -357.92093    141728.28   -30776.149    4657.3336   -35433.483    290.65414 
    9250    236.45253   -274.66128    141730.09   -30790.468    4643.3548   -35433.823     292.3512 
    9300    233.81756   -166.09871    141681.62   -30830.504    4591.6103   -35422.114    294.81567 
    9350    233.62973   -346.77628    141570.85   -30823.055    4587.9217   -35410.976      296.818 
    9400    232.36589   -451.41471    141440.16   -30811.522    4563.1031   -35374.626    298.89969 
    9450    234.16548   -91.235263    141308.47   -30781.384    4598.4426   -35379.826     300.4065 
    9500    231.72746   -148.75323    141167.11   -30806.304    4550.5658   -35356.869     300.8829 
    9550    234.45658    138.66473    140999.77   -30792.616     4604.159   -35396.775    303.01533 
    9600    235.89147   -103.58892    140852.24   -30778.307    4632.3367   -35410.644    304.55434 
    9650    238.33725   -228.57734    140751.92   -30800.198    4680.3661   -35480.564    306.06003 
    9700    232.62457    67.739506     140712.3   -30801.441    4568.1827   -35369.624    308.35555 
    9750    234.48214   -197.51956    140739.43   -30792.523     4604.661   -35397.184    310.71761 
    9800     233.4052    -300.3897    140802.14   -30807.721    4583.5126   -35391.234    313.08866 
    9850    232.62088   -177.43476    140871.82   -30803.483    4568.1103   -35371.594    315.45017 
    9900    233.90114    313.65071    140900.77    -30801.52    4593.2515   -35394.771    317.18652 
    9950    231.42892   -239.36693    140971.45   -30794.531    4544.7031   -35339.234    318.74648 
   10000    232.07908   -519.62416    141095.43   -30780.742    4557.4708   -35338.213    320.84061 
   10050    236.35053   -347.57356    141269.07       -30794    4641.3516   -35435.351    322.58984 
   10100    233.66464    13.030045    141461.37   -30770.248    4588.6073   -35358.855    323.61216 
   10150    235.60453   -581.00739    141639.73   -30749.377     4626.702   -35376.079    325.12487 
   10200    234.40122   -274.49432    141729.41   -30738.115    4603.0719   -35341.187    326.99354 
   10250    236.48803   -412.79596    141749.87   -30742.278    4644.0518    -35386.33    329.02833 
   10300    233.31796   -352.02632    141644.33    -30732.94    4581.7992   -35314.739    331.54604 
   10350    234.94316   -348.53849    141492.57   -30725.699    4613.7143   -35339.413    333.36056 
   10400     234.2218    8.7005594    141289.99     -30762.1    4599.5485   -35361.649    334.89225 
   10450    232.90042    162.26003    141097.46   -30754.417    4573.5997   -35328.017    336.88928 
   10500    234.70589   -462.37568    140990.86   -30745.792    4609.0548   -35354.847    338.94122 
   10550    236.73002   -28.060143     140917.9   -30741.916     4648.804    -35390.72    341.35589 
   10600    229.90626    158.66485    140902.85   -30732.135    4514.8018   -35246.937    342.62977 
   10650    236.45267   -82.882191    140931.98   -30729.744    4643.3574   -35373.101     345.0204 
   10700    232.60926   -242.82721    140944.27    -30742.55    4567.8822   -35310.432    346.89552 
   10750    234.43722   -46.869496    140956.42   -30730.964    4603.7788   -35334.743    348.39392 
   10800    232.93033   -73.203078    140994.85   -30743.207    4574.1871   -35317.394    350.51417 
   10850    234.36037   -359.19685    141071.87   -30712.635    4602.2697   -35314.905    352.35066 
   10900    233.97186   -224.70216    141141.83   -30702.513    4594.6404   -35297.154    353.64269 
   10950    235.98479   -130.10059    141166.35   -30706.458    4634.1694   -35340.627    355.17452 
   11000    237.04946   -587.54525    141224.79   -30745.429    4655.0769   -35400.506    357.20896 
   11050     234.3948   -180.27572    141320.36   -30763.249    4602.9458   -35366.195    359.93252 
   11100    232.07142    139.10894    141461.93    -30746.28    4557.3203     -35303.6    362.74471 
   11150    233.01551   -326.21904    141667.94   -30764.211      4575.86   -35340.071    365.15736 
   11200    231.50713   -209.35322       141811   -30750.722     4546.239   -35296.961    367.35509 
   11250    229.19529   -742.07523    141858.75   -30761.408    4500.8401   -35262.248    369.51557 
   11300    238.38478   -93.629781    141870.88   -30763.007    4681.2994   -35444.306    371.07281 
   11350    229.76485   -523.66503    141908.93   -30765.425    4512.0248    -35277.45    373.06605 
   11400    232.40649   -222.47188    141868.49   -30777.927    4563.9002   -35341.827    375.20201 
   11450    226.73795   -348.18621    141708.67   -30818.575    4452.5839   -35271.158    376.71763 
   11500    233.88594   -150.16325    141461.12   -30814.857     4592.953    -35407.81    378.43835 
   11550    230.09167   -337.24473    141230.13   -30821.147    4518.4428    -35339.59    380.24609 
   11600    234.51475    101.89468    141019.14   -30814.607    4605.3014   -35419.908     382.1581 
   11650    230.94683    54.995682    140919.93   -30798.208    4535.2361   -35333.444    383.79841 
   11700    234.32579    193.37825    140903.17   -30784.632    4601.5907   -35386.222    384.54103 
   11750    236.32849  -0.09353911     140965.4   -30777.087    4640.9188   -35418.006    386.21323 
   11800    232.37346   -3.6942299    141070.78   -30804.477    4563.2517   -35367.729    387.93302 
   11850    236.82079   -33.525077    141195.87   -30761.376    4650.5865   -35411.962     390.2716 
   11900    233.11128   -420.60043    141349.07   -30800.873    4577.7407   -35378.614    391.99068 
   11950     232.5987    22.966383    141425.23   -30804.302    4567.6747   -35371.977    393.42472 
   12000    233.72926   -30.713993    141416.78   -30803.407    4589.8763   -35393.283    394.74373 
   12050    233.41033   -336.60761    141387.95   -30799.361    4583.6132   -35382.974    396.15021 
   12100    234.17242   -393.13891    141326.26   -30786.664    4598.5788   -35385.243    398.20485 
   12150    235.08691    154.92065    141250.15   -30776.669    4616.5371   -35393.206    400.70198 
   12200    232.68228   -54.876789    141237.45   -30769.032     4569.316   -35338.348    401.43267 
   12250    238.12296    11.791102    141231.16   -30743.374    4676.1579   -35419.531    403.74358 
   12300    231.52606   -382.11573    141264.56   -30731.319    4546.6107    -35277.93    405.84509 
   12350    235.34369   -269.48169    141325.65   -30756.145    4621.5798   -35377.725     407.1954 
   12400    229.71078    -36.77527    141335.81   -30800.022    4510.9631   -35310.985    408.66457 
   12450    235.85758   -32.625569    141325.24    -30769.31    4631.6712   -35400.981    410.50813 
   12500    235.15747     -223.317    141284.37    -30761.31    4617.9229   -35379.233    412.27703 
   12550     234.6587   -54.561892    141214.17   -30786.519    4608.1282   -35394.647    414.07967 
   12600    232.74256    51.171234    141193.11   -30757.189    4570.4999   -35327.689    416.66765 
   12650    232.69815   -522.31793    141243.64   -30758.611    4569.6277   -35328.239    419.90732 
   12700    240.68715   -379.06407    141275.47   -30731.381    4726.5124   -35457.894    421.29197 
   12750    232.46998   -391.94574    141266.08   -30775.058    4565.1471   -35340.205    423.20077 
   12800    234.07712   -120.25351    141221.61   -30787.881    4596.7073   -35384.588    424.88464 
   12850    233.64623   -183.95431    141200.79   -30783.452    4588.2457   -35371.698     426.2719 
   12900    231.56549   -425.64743    141232.82   -30778.124     4547.385   -35325.509    427.52155 
   12950    234.13174   -375.88329    141225.11   -30766.287      4597.78   -35364.067    428.58703 
   13000    233.02665   -298.39097    141150.26   -30764.359    4576.0788   -35340.438    430.32029 
   13050    232.01547    183.43473     141091.4   -30746.812    4556.2215   -35303.033    432.57445 
   13100    232.48178   -37.260198    141096.35   -30730.109    4565.3787   -35295.487    434.47161 
   13150    235.00628    134.86136    141144.82    -30749.64    4614.9538   -35364.594    436.12568 
   13200    232.46034    226.20138    141220.29   -30755.613    4564.9578   -35320.571    437.37676 
   13250    232.64501    328.65131    141331.86   -30791.312    4568.5842   -35359.897    439.09101 
   13300    233.25148   -213.13044    141458.64    -30797.34    4580.4938   -35377.834    440.86541 
   13350    235.88404   -168.58314    141573.15   -30778.215    4632.1908   -35410.405    442.71071 
   13400    234.67408   -587.64748    141681.17   -30783.104    4608.4303   -35391.534    444.46234 
   13450     232.6936   -97.556983    141762.27   -30810.362    4569.5384     -35379.9    446.84829 
   13500    231.64826   -306.10163    141853.19   -30781.241    4549.0105   -35330.252     448.3379 
   13550    234.35399   -167.27238    141880.99   -30835.378    4602.1445   -35437.523    450.47374 
   13600    232.75999    -38.51614    141867.03   -30843.163    4570.8422   -35414.005    451.71703 
   13650    234.68396   -169.02375     141820.7    -30831.54    4608.6243   -35440.164    454.02457 
   13700    226.22156   -224.83729    141733.09   -30833.508    4442.4433   -35275.951    455.70438 
   13750    231.13045   -73.185142    141578.52   -30841.029    4538.8419   -35379.871    456.49162 
   13800    227.90132   -178.66592    141433.38   -30835.438    4475.4296   -35310.867    457.35829 
   13850    232.34567   -122.76429    141229.12   -30846.433    4562.7058   -35409.139    458.31339 
   13900    231.58422   -113.96853    141028.19   -30825.527    4547.7529    -35373.28    459.79413 
   13950    235.07891    171.51069    140865.08   -30841.503      4616.38   -35457.883    461.34498 
   14000     236.5752    353.59877    140809.06   -30831.498    4645.7635   -35477.262    462.49387 
   14050    233.03327    15.580138    140837.12   -30811.405    4576.2088   -35387.614    464.53879 
   14100    240.06727    46.954797    140888.99   -30817.178    4714.3394   -35531.518    465.94605 
   14150    235.97031   -245.06501    140967.82   -30773.402    4633.8851   -35407.288    468.32881 
   14200    234.76606   -51.463326    141070.91   -30784.799    4610.2365   -35395.035     470.4652 
   14250    234.80335    37.895791    141226.53   -30745.837    4610.9687   -35356.806    472.11021 
   14300    232.41763   -194.72036    141439.47    -30743.74    4564.1191   -35307.859     473.2698 
   14350    237.22621   -81.342976    141651.33   -30757.491    4658.5479   -35416.039    475.93927 
   14400    231.31295   -299.44836     141906.8   -30708.546    4542.4258   -35250.972    479.08796 
   14450    231.77405   -217.27162    142088.92   -30755.922    4551.4806   -35307.402    482.64391 
   14500    231.98981   -319.35131    142160.94   -30748.795    4555.7177   -35304.513    483.42526 
   14550    234.63463   -390.26916    142148.47   -30784.221    4607.6555   -35391.876    483.87862 
   14600    232.49524   -827.71211    142062.44   -30796.586    4565.6431   -35362.229    485.38013 
   14650    233.17289    3.3102522    141943.09   -30782.689    4578.9504   -35361.639    487.42996 
   14700    231.74318   -408.33768     141805.5   -30788.848    4550.8744   -35339.723    488.69962 
   14750    233.68582   -313.65912    141598.27    -30777.36    4589.0231   -35366.383    490.49275 
   14800    234.08555   -165.12871     141397.2   -30823.412     4596.873   -35420.285    492.30324 
   14850    234.01488    -281.8637       141239   -30826.227    4595.4851   -35421.712    494.41751 
   14900    235.12526    134.49989     141099.3   -30846.535    4617.2903   -35463.825    496.01629 
   14950    227.59084   -244.15814     141008.8   -30865.939    4469.3326   -35335.271    497.61517 
   15000    227.00754    13.694286    140908.87   -30878.183    4457.8779    -35336.06    499.62379 
   15050    228.17627   -96.896456    140812.46   -30885.652     4480.829   -35366.481    501.86453 
   15100    234.76561   -101.58845     140753.9   -30863.762    4610.2276    -35473.99    503.87128 
   15150    234.91908   -92.264573    140730.54   -30879.983    4613.2415   -35493.224    505.93474 
   15200    233.15874    346.73555    140697.75    -30877.35    4578.6727   -35456.022    507.66396 
   15250    231.16812   -45.351611    140723.55   -30891.589    4539.5816    -35431.17    509.84812 
   15300    231.70012    246.12867    140760.64   -30857.507    4550.0289   -35407.536    511.05661 
   15350    230.43019   -300.46341    140844.93   -30836.866    4525.0905   -35361.956    513.39094 
   15400    232.79631   -646.40183    140913.18   -30822.796    4571.5553   -35394.351    515.78431 
   15450    234.77578   -161.65031     140953.9   -30837.584    4610.4274   -35448.012    517.62946 
   15500    232.44697     8.536656    141049.33   -30814.008    4564.6952   -35378.703    519.75361 
   15550    231.84578   -143.73259    141156.46   -30828.326    4552.8893   -35381.215    521.57626 
   15600      231.696   -243.80826    141278.58   -30817.254     4549.948   -35367.202    523.84266 
   15650    229.27245   -124.65668    141341.43   -30839.537    4502.3553   -35341.892    525.00556 
   15700     233.1109   -436.52679    141330.68    -30825.82    4577.7331   -35403.553    526.82328 
   15750    231.61385   -367.37325    141290.96   -30801.459    4548.3348   -35349.794    528.33204 
   15800    231.89549   -170.35481    141215.58   -30800.703    4553.8655   -35354.569    528.99343 
   15850    230.78401    56.807777    141161.99   -30794.755    4532.0386   -35326.794    529.94564 
   15900    234.93101   -379.20943    141134.13   -30811.267    4613.4758   -35424.742    531.73654 
   15950    236.88975   -253.95992    141112.43   -30797.318    4651.9406   -35449.259    532.64588 
   16000     236.4879   -131.18254     141097.9   -30778.154    4644.0493   -35422.203    533.60772 
   16050    232.21569   -225.13651    141100.34   -30748.418    4560.1534   -35308.571    535.99204 
   16100    237.20809     333.8302    141128.51     -30723.7    4658.1921   -35381.892    538.41616 
   16150    233.72183    139.79512    141211.19   -30725.705    4589.7303   -35315.436    539.93242 
   16200    236.52552   -82.037534    141359.57   -30693.231    4644.7881   -35338.019    542.05695 
   16250    238.70915   -183.68655    141520.04   -30682.644    4687.6693   -35370.313    543.68792 
   16300    239.20075    160.55391    141697.07   -30699.334     4697.323   -35396.657    545.52288 
   16350    235.50622   -364.64801    141871.87   -30705.191    4624.7715   -35329.963    547.30923 
   16400    235.19263   -37.465281     142023.6   -30699.293    4618.6132   -35317.906    549.28068 
   16450    234.78723   -700.80976    142185.78   -30722.955    4610.6522   -35333.607    551.84244 
   16500    234.93625    -819.9263    142259.87   -30707.731    4613.5786    -35321.31     554.0236 
   16550    237.93463   -625.77333    142180.81   -30677.693    4672.4595   -35350.152    555.66477 
   16600    237.80735    258.41387    142054.19    -30661.94    4669.9601     -35331.9    557.37936 
   16650    235.01846   -142.85633    141927.09   -30629.373     4615.193   -35244.566    559.21058 
   16700    240.70899   -108.27326    141809.22   -30672.785    4726.9412   -35399.726    561.11858 
   16750     234.8365   -39.613128    141697.11   -30676.585    4611.6198   -35288.205    561.57551 
   16800    238.82788    219.90862     141625.6    -30696.32    4690.0007   -35386.321    563.11939 
   16850    231.59937    101.05412    141651.08   -30732.617    4548.0503   -35280.667    563.46197 
   16900     231.9913    70.094997    141720.98   -30713.384    4555.7469   -35269.131    564.81698 
   16950    236.50755   -419.30145    141784.12   -30703.826    4644.4351   -35348.261    567.39856 
   17000    236.14999    223.40614    141786.78   -30718.661    4637.4135   -35356.074    568.54333 
   17050    236.97317   -275.01088    141788.53   -30690.344    4653.5789   -35343.923    570.57454 
   17100    233.73491    101.61048     141739.1   -30698.805    4589.9872   -35288.792    572.03096 
   17150    236.17731   -315.68637    141702.05   -30667.138      4637.95   -35305.088    573.54768 
   17200    239.94881     -384.244    141683.76   -30619.381    4712.0131   -35331.394    575.37404 
   17250    241.96054   -283.14668    141674.17   -30626.334    4751.5186   -35377.852    576.17343 
   17300    235.36737   -408.93542    141619.85    -30595.85    4622.0447   -35217.895    577.88764 
   17350    240.80508    -94.80861    141582.38   -30603.242    4728.8283    -35332.07    580.18895 
   17400    238.92982   -361.58844    141591.06   -30627.662    4692.0026   -35319.664    581.76464 
   17450    241.99094   -292.97252    141579.14   -30605.402    4752.1155   -35357.517    583.86989 
   17500    237.04981    382.80571    141525.73   -30621.769    4655.0838   -35276.853    586.99108 
   17550    240.76744    59.192154    141464.01   -30669.827     4728.089   -35397.916    589.23948 
   17600    236.05661     322.5106    141408.41   -30671.585    4635.5798   -35307.165     589.9861 
   17650    235.76525    229.29434    141449.52   -30643.576    4629.8582   -35273.434    591.74221 
   17700    239.46856   -103.46597    141503.88   -30614.377    4702.5822   -35316.959     593.1376 
   17750    239.01143   -147.80434    141572.98   -30599.025    4693.6052    -35292.63    594.25234 
   17800    236.84579   -377.21156    141654.59   -30606.074    4651.0773   -35257.151     595.2035 
   17850    240.73746   -185.69374    141694.25   -30625.536    4727.5004   -35353.037    597.83547 
   17900    238.72383   -202.77412    141724.06   -30645.739    4687.9575   -35333.697    599.66789 
   17950    238.23207    530.57681    141785.66   -30640.319    4678.3006   -35318.619    602.00932 
   18000     235.7627    180.38817    141862.93   -30689.727    4629.8082   -35319.535    603.31457 
   18050    235.03504      -186.45    141932.35   -30715.962    4615.5186    -35331.48    604.55414 
   18100    229.52645   -376.67451    141989.07   -30751.757    4507.3433   -35259.101    605.62396 
   18150    229.69367   -314.06777     141977.1   -30761.425    4510.6271   -35272.052    607.01655 
   18200    231.55387   -378.48581    141948.87    -30740.35    4547.1569   -35287.507    608.59615 
   18250    233.35063    116.73856    141912.18   -30679.953    4582.4409   -35262.394    610.13633 
   18300    236.25961     103.1012    141822.73   -30686.695    4639.5662   -35326.261    611.47175 
   18350    236.59004   -312.64269    141700.05   -30669.783    4646.0551   -35315.838    614.02096 
   18400    240.09815   -139.91206    141549.76   -30673.259    4714.9458   -35388.205    614.94608 
   18450     240.2152    183.91914    141374.49    -30693.02    4717.2444   -35410.264    616.93778 
   18500    239.32055   -97.273513    141244.66   -30677.297    4699.6756   -35376.972    617.45819 
   18550    237.41096   -60.217929    141159.76   -30650.921    4662.1759   -35313.097    618.34255 
   18600    241.11296    82.400255    141146.27   -30641.991    4734.8743   -35376.866    618.58173 
   18650    240.26054    116.96528    141210.92   -30660.461    4718.1349   -35378.595    619.82493 
   18700    233.69759   -253.43632    141310.88   -30678.193    4589.2544   -35267.447    621.96462 
   18750    237.74314   -444.28057    141364.62   -30665.446    4668.6992   -35334.146    624.17947 
   18800    235.51554   -2.8414594    141417.27   -30636.887    4624.9545   -35261.841    625.73118 
   18850    236.31799   -197.91465    141499.39   -30661.265    4640.7126   -35301.977    626.81324 
   18900    235.30594   -336.75892    141555.73   -30666.264    4620.8384   -35287.102    627.68093 
   18950    238.29574   -206.69537    141564.54   -30699.682    4679.5509   -35379.232    629.10991 
   19000    240.16671   -478.78472    141556.87   -30686.734    4716.2923   -35403.026    630.56364 
   19050    239.62408    104.44481    141482.68   -30672.458    4705.6363   -35378.095    631.23753 
   19100    237.07656   -243.23305    141393.58   -30680.653    4655.6092   -35336.262    632.51806 
   19150    232.32929    406.04155    141307.86   -30684.243    4562.3842   -35246.628     632.8083 
   19200    236.49824   -663.83856    141306.32   -30677.833    4644.2523   -35322.085    634.78721 
   19250    234.43051    21.203169    141306.08   -30661.773    4603.6472   -35265.421    637.44822 
   19300    238.00345   -204.36941    141361.66   -30688.278    4673.8109   -35362.088    638.58783 
   19350    231.26486   -247.18164    141450.64   -30692.583    4541.4815   -35234.064    639.24446 
   19400    232.59679   -550.94079    141475.55   -30718.512    4567.6373   -35286.149    640.01837 
   19450    237.68458    283.42844    141483.94   -30716.734    4667.5492   -35384.283    641.56326 
   19500    231.31685   -299.98561    141488.67   -30760.449    4542.5025   -35302.952    642.93742 
   19550    238.78902     -421.162    141490.25   -30717.616    4689.2377   -35406.853    644.03412 
   19600    241.79642   -278.22846    141531.99   -30719.235    4748.2956   -35467.531    645.52747 
   19650    233.57747   -245.33845    141590.87   -30686.589    4586.8955   -35273.484    646.45035 
   19700    234.32495   -87.356976    141654.67   -30661.902    4601.5742   -35263.476     648.8144 
   19750    237.34377   -403.67486    141687.75   -30660.641    4660.8565   -35321.497    650.49064 
   19800    234.11836   -200.87738    141645.83   -30677.312    4597.5173   -35274.829    651.49676 
   19850    235.92554   -308.05155    141596.83   -30663.312    4633.0059   -35296.318    652.48755 
   19900    237.28981   -120.42807    141531.74   -30632.777    4659.7969   -35292.574    652.98468 
   19950    240.21797    62.558868    141445.35   -30618.475    4717.2987   -35335.774    653.86833 
   20000    235.64266    -465.7381    141396.22   -30618.134    4627.4508   -35245.585    656.31141 
   20050    237.32144    44.470436    141336.42   -30624.362    4660.4179    -35284.78    658.14591 
   20100     234.8872   -335.79734    141320.31   -30645.964    4612.6154    -35258.58    660.29902 
   20150     235.8073   -45.157972    141364.28    -30666.81     4630.684   -35297.493    663.34407 
   20200    237.48665   -253.72082    141437.35    -30666.53    4663.6623   -35330.192    665.12032 
   20250    237.92746   -726.68385    141483.08   -30685.136    4672.3188   -35357.455    667.57681 
   20300    235.80031   -125.17576    141423.44   -30675.338    4630.5467   -35305.885    668.49445 
   20350    237.67823   -94.674327    141362.76   -30662.799    4667.4245   -35330.223    669.89031 
   20400    237.24746     91.01039    141325.67   -30641.021    4658.9653   -35299.986     672.0285 
   20450    238.15261   -117.56939    141275.03    -30622.92    4676.7401    -35299.66    673.89006 
   20500    237.48455   -330.03198    141286.98   -30610.881     4663.621   -35274.502    676.16815 
   20550    234.52309    45.129219    141376.16   -30602.412    4605.4652   -35207.877    677.95953 
   20600    234.61786    -145.6229     141518.1   -30606.824    4607.3262   -35214.151    680.40852 
   20650    241.00514   -55.530113    141712.51   -30578.924    4732.7569   -35311.681    682.21745 
   20700    240.99912   -418.46887    141929.64   -30608.161    4732.6387     -35340.8    683.31372 
   20750     238.8798   -202.01327    142132.75     -30609.8    4691.0203    -35300.82    685.51617 
   20800    236.08192   -299.54401    142287.84   -30601.619    4636.0768   -35237.696    686.62775 
   20850    236.22317    67.464103    142448.21    -30603.22    4638.8506   -35242.071    688.43199 
   20900    237.94907   -168.23353     142548.8   -30544.094    4672.7432   -35216.837     690.7096 
   20950    237.63457   -460.48422    142544.96   -30563.968    4666.5672   -35230.536    692.63774 
   21000    239.99861   -375.76049    142395.01   -30584.618     4712.991   -35297.609    693.88915 
   21050    234.39423   -47.275581     142145.5   -30566.265    4602.9346     -35169.2    693.97871 
   21100    238.21808   -525.95053    141915.67   -30561.427    4678.0257   -35239.453     695.4819 
   21150    238.75464   -102.34433    141718.63   -30563.871    4688.5625   -35252.434     697.2235 
   21200    239.08578    119.30778    141576.37   -30592.068    4695.0652   -35287.133     699.4422 
   21250    240.43227   -30.530532    141503.55   -30616.089    4721.5071   -35337.596    701.06058 
   21300    234.39389    145.44011     141470.8   -30602.571    4602.9281   -35205.499    701.84857 
   21350    236.87105    146.12881    141489.37   -30645.788    4651.5733   -35297.362    704.19796 
   21400    239.07564   -409.04149    141558.84   -30662.893    4694.8663    -35357.76    705.52055 
   21450    237.06456   -641.56605    141681.97   -30649.361    4655.3734   -35304.735    706.73768 
   21500    236.72733   -139.09722    141857.19   -30644.571    4648.7511   -35293.322    709.01357 
   21550    232.08811   -83.025225    142030.03   -30649.947    4557.6481   -35207.595    711.55197 
   21600    237.83316   -372.23539    142115.25   -30668.097    4670.4669   -35338.564    713.63497 
   21650    238.31109   -42.069883    142121.92   -30670.748    4679.8523     -35350.6     715.4743 
   21700    234.18909   -380.54307    142066.41   -30657.207    4598.9062   -35256.114    718.35439 
   21750    233.47893    176.69738    142001.22   -30668.937    4584.9604   -35253.898    720.79741 
   21800     236.6515   -292.93946    141945.47   -30667.471     4647.262   -35314.733    723.26933 
   21850    234.95451    -263.7855    141873.45   -30664.728    4613.9372   -35278.666     722.8189 
   21900    236.23624   -426.28011    141819.77   -30668.121    4639.1072   -35307.228    724.15343 
   21950    237.32356   -109.69088    141683.07   -30641.496    4660.4596   -35301.955    724.85038 
   22000    237.67044     77.18966    141575.13   -30655.694    4667.2715   -35322.966     726.7351 
   22050    238.72389    -282.5632    141540.96   -30663.401    4687.9587    -35351.36    729.84487 
   22100    235.51344   -270.56821     141536.4   -30645.615    4624.9132   -35270.528    732.58175 
   22150    236.50473   -89.826048    141514.14   -30640.985    4644.3798   -35285.364     734.8681 
   22200    238.23297   -81.704377    141503.18   -30628.633    4678.3182   -35306.951    736.03079 
   22250    239.97576   -188.19572    141515.41   -30637.521    4712.5424   -35350.064    737.44647 
   22300    236.48484   -568.70262    141509.92   -30633.623    4643.9892   -35277.612    740.08175 
   22350    235.33229   -373.27374    141418.98   -30664.641    4621.3559   -35285.997    740.59548 
   22400     234.6726   -379.31081    141302.09    -30677.07    4608.4011   -35285.471    741.53374 
   22450    232.86512   -40.101109    141118.51   -30666.831    4572.9066   -35239.737    742.46938 
   22500    239.52386   -257.79439    140972.89   -30609.558    4703.6681   -35313.226     744.6473 
   22550    234.82763   -82.184814    140865.76   -30628.952    4611.4456   -35240.397    746.19759 
   22600    235.32647    447.89879    140880.61   -30656.411    4621.2415   -35277.653    749.14375 
   22650    236.42861    326.32989    141038.22   -30643.305     4642.885    -35286.19    752.05481 
   22700    239.81729   -322.98633    141272.78   -30633.947    4709.4305   -35343.377    754.66991 
   22750    232.48508   -378.71458    141524.68   -30628.239    4565.4437   -35193.682    756.69625 
   22800    235.77757   -99.659932     141735.4   -30628.682    4630.1002   -35258.782    758.79806 
   22850    239.22615   -540.50102    141977.94   -30633.415    4697.8219   -35331.236    760.27769 
   22900    235.95032   -383.61191    142200.48   -30588.858    4633.4925   -35222.351    761.44856 
   22950    239.09755   -396.13203    142351.83   -30591.668    4695.2965   -35286.964    763.52774 
   23000    235.15259   -101.25195    142380.07   -30650.592     4617.827   -35268.419       765.36 
   23050    233.56242    -648.0673    142373.18    -30608.78    4586.5999    -35195.38    767.04586 
   23100    235.58757   -8.9791094    142293.88   -30647.909    4626.3689   -35274.278    767.69936 
   23150     237.0949    -425.6743    142267.43   -30657.084    4655.9692   -35313.053    769.30517 
   23200    232.78414   -257.14195    142253.18   -30633.111    4571.3165   -35204.428    770.08368 
   23250    233.94831     -586.651    142225.67   -30621.244     4594.178   -35215.422    770.42828 
   23300    235.11231   -482.14591    142099.08   -30627.975     4617.036   -35245.011     770.4281 
   23350    234.69726   -66.446348    141937.79   -30630.775    4608.8854    -35239.66     771.2004 
   23400    238.62325   -137.56281    141768.47   -30618.979    4685.9824   -35304.962    772.49113 
   23450    237.10197   -366.72901     141636.4   -30634.946    4656.1081   -35291.054    773.88697 
   23500    234.23824   -194.29683    141506.83   -30638.766    4599.8715   -35238.637    775.63819 
   23550    236.64163   -106.98441    141404.15   -30649.209    4647.0681   -35296.277    777.23003 
   23600    232.88307   -431.40928    141329.54   -30660.548    4573.2591   -35233.807    777.96345 
   23650    236.42731   -51.279193     141200.5    -30695.98    4642.8595    -35338.84    778.73043 
   23700    231.92962   -357.87031    141089.17   -30698.509    4554.5356   -35253.044    780.54631 
   23750    235.90429    164.44673    141075.77   -30694.681    4632.5887    -35327.27     782.2019 
   23800    237.91115   -159.48298    141162.23   -30687.213    4671.9984   -35359.212    784.29928 
   23850    244.44832    143.11869    141339.02   -30683.111    4800.3725   -35483.484    786.83777 
   23900    238.92379   -12.695023    141567.81   -30677.156    4691.8841    -35369.04    788.85776 
   23950    235.80907   -156.96594       141777   -30695.058    4630.7187   -35325.777     789.8517 
   24000    233.66636   -231.72867    142013.39   -30693.618     4588.641   -35282.259    792.85746 
   24050    237.16117   -328.14439    142181.91   -30669.689    4657.2707    -35326.96    793.48121 
   24100    236.86575   -473.73797    142275.52   -30685.073    4651.4693   -35336.543    795.90574 
   24150    232.88862   -333.81609    142236.01   -30661.594    4573.3681   -35234.962      797.759 
   24200    238.90133   -322.84892    142102.85   -30671.827    4691.4432    -35363.27     798.7144 
   24250    239.07894   -186.97016    141951.65   -30633.416    4694.9311   -35328.347    800.33421 
   24300    236.19893    90.486942    141794.16   -30663.289    4638.3746   -35301.663    801.47103 
   24350    234.28079   -21.900231     141612.4   -30684.935    4600.7069   -35285.642    803.40369 
   24400    238.38609   -95.649079    141432.03   -30702.082    4681.3252   -35383.407    804.86266 
   24450    233.10887   -348.95318    141237.33   -30711.123    4577.6932   -35288.816    805.94623 
   24500    234.44257   -120.56533    141018.33   -30700.406     4603.884    -35304.29    806.70613 
   24550     234.1349   -425.08967    140866.96   -30713.628    4597.8419    -35311.47    807.21405 
   24600    236.45572    112.98282    140747.16   -30719.246    4643.4173   -35362.663    808.42907 
   24650    233.83994   -496.69572    140730.14   -30747.485    4592.0497   -35339.535    810.49988 
   24700    235.06082    78.000094    140737.27   -30730.174    4616.0248   -35346.199    811.53451 
   24750    234.42419   -601.79994     140835.9   -30738.388    4603.5229   -35341.911    812.12384 
   24800    235.81133    295.52329    140934.38   -30744.913    4630.7631   -35375.676     813.6474 
   24850     234.9584    -236.9598    141025.31   -30723.862    4614.0137   -35337.876    815.50956 
   24900    233.23863   -226.91646    141121.68    -30765.26    4580.2415   -35345.501    817.34309 
   24950    233.44694   -76.699164    141168.25   -30771.308    4584.3322    -35355.64     817.7023 
   25000    231.68912   -102.46578    141253.98    -30744.25    4549.8128   -35294.063    819.84296 
   25050      236.205    -200.9256    141330.34   -30732.989    4638.4937   -35371.483    820.86248 
   25100    234.07044   -146.44879    141388.69   -30761.688    4596.5762   -35358.264    821.92995 
   25150    232.03084    601.66628    141426.35   -30733.659    4556.5235   -35290.182    823.76571 
   25200    232.31489   -86.281585    141480.52   -30706.931    4562.1014   -35269.033    824.76711 
   25250    234.63676     -126.361    141551.74   -30692.068    4607.6974   -35299.766    826.17058 
   25300    233.97774   -50.915115    141612.21   -30686.563    4594.7557   -35281.319    827.68853 
   25350    234.93087   -258.72795    141619.49    -30672.51    4613.4729   -35285.983    829.17598 
   25400    235.47737   -561.38031    141624.36   -30705.633    4624.2048   -35329.837    832.89668 
   25450    235.12331   -126.72048     141575.4   -30706.346     4617.252   -35323.598    833.78177 
   25500     235.6267   -486.15376       141487   -30702.426    4627.1374   -35329.564    833.80365 
   25550    235.35652    169.61413    141342.19   -30723.097    4621.8317   -35344.929    833.21709 
   25600    235.93273    130.04817    141242.41   -30726.227     4633.147   -35359.374    833.43203 
   25650    232.55729    49.197676    141151.58   -30712.481    4566.8616   -35279.343    835.62545 
   25700    236.37836    126.49239    141151.47   -30693.437    4641.8981   -35335.335     837.6155 
   25750    234.71423   -49.535333    141228.06   -30712.399    4609.2187   -35321.618     838.8678 
   25800    235.40455   -253.73365     141383.2   -30680.189    4622.7749   -35302.964    839.73154 
   25850    237.83448   -330.14127       141528   -30716.894    4670.4928   -35387.387    840.96115 
   25900    238.67843   -719.41756    141618.82   -30719.123    4687.0659   -35406.189    842.46908 
   25950      236.517   -17.375174    141637.09   -30721.129    4644.6208   -35365.749    843.50375 
   26000    232.81527    -613.7632     141586.5    -30766.25    4571.9277   -35338.178    845.14629 
   26050    231.61035   -9.8289176    141544.03    -30760.38    4548.2661   -35308.646    845.93704 
   26100    234.45317    -79.91736    141577.21   -30755.172    4604.0921   -35359.264    846.88608 
   26150    230.16783   -276.30706    141683.95   -30729.972    4519.9384    -35249.91    849.32403 
   26200    234.37247    77.724153    141703.48   -30716.229    4602.5073   -35318.736     851.0421 
   26250    237.01396   -194.20554    141706.81   -30702.392    4654.3798   -35356.772    851.68116 
   26300    237.42109   -494.06212    141667.79   -30715.423    4662.3748   -35377.798    853.23552 
   26350    234.49507    22.436114    141585.76   -30675.325    4604.9148    -35280.24    854.40299 
   26400    236.23883   -435.04238    141534.58    -30654.58    4639.1581   -35293.738    854.27085 
   26450    235.52044    69.523632    141517.44   -30677.827    4625.0507   -35302.877    855.19648 
   26500    238.72149   -349.55014    141569.59   -30674.522    4687.9115   -35362.434    855.34222 
   26550    236.27346    38.130636    141619.19   -30693.271    4639.8382   -35333.109    855.96702 
   26600    239.29803    -339.1407    141637.65   -30689.148    4699.2334   -35388.382     857.8456 
   26650    234.53381   -736.20579    141616.73   -30714.005    4605.6758   -35319.681     859.9711 
   26700    231.30262   -188.33331    141564.18   -30728.522    4542.2228   -35270.745    862.14333 
   26750    238.60974    -89.68968    141542.52   -30763.808     4685.717   -35449.525    862.96158 
   26800      234.989   -520.24474       141464   -30768.832    4614.6146   -35383.446     863.6752 
   26850    229.59553   -2.4688578    141322.59   -30786.312    4508.6998   -35295.012     865.2743 
   26900    232.62982   -291.94541    141235.55   -30825.722    4568.2858   -35394.008    867.31902 
   26950    228.78004   -204.40026    141147.65   -30822.521    4492.6855   -35315.207    868.82479 
   27000    233.26603   -80.534676    141011.62   -30844.496    4580.7796   -35425.275    869.02245 
   27050    235.39017   -566.38565    140940.55   -30834.513    4622.4925   -35457.006    869.86988 
   27100    228.46913    169.20355    140848.35   -30875.999    4486.5801    -35362.58    871.95201 
   27150    238.00628    80.732174    140786.62   -30814.904    4673.8666   -35488.771    872.81631 
   27200     229.2972    265.87129    140792.16   -30811.384    4502.8412   -35314.225    875.81919 
   27250    237.04994    -222.2489    140865.69   -30816.113    4655.0864     -35471.2    878.17126 
   27300    229.86972   -143.83305    141005.85   -30809.939    4514.0842   -35324.023    880.06127 
   27350    231.12176   -211.52549    141184.64   -30792.721    4538.6713   -35331.393     881.8146 
   27400    232.54941    263.41975    141422.43   -30779.224    4566.7069   -35345.931    884.22743 
   27450    232.96364    -284.6571    141668.75   -30749.881    4574.8413   -35324.722    885.44893 
   27500    230.59206    73.762539    141897.08   -30728.225    4528.2692   -35256.494    886.37591 
   27550    233.75177   -24.299633    142038.16   -30703.016    4590.3182   -35293.334    887.52033 
   27600    237.41252   -547.29446    142095.73   -30677.676    4662.2065   -35339.883    890.35996 
   27650    233.99023    -1.912539    142083.12   -30690.312     4595.001   -35285.313    892.93145 
   27700    234.91188   -582.44062    142060.38   -30712.721    4613.1001   -35325.821    894.69793 
   27750    239.43118    47.706267    141977.66   -30687.341    4701.8482   -35389.189     896.3111 
   27800    235.28227    60.907249    141921.72   -30696.226    4620.3736     -35316.6    897.82429 
   27850    232.72708    21.369695    141915.19   -30673.275    4570.1959   -35243.471    898.56728 
   27900     237.3343   -238.42232    141910.61   -30635.438    4660.6705   -35296.108    899.89198 
   27950    236.55647   -295.91831    141882.96   -30638.911    4645.3957   -35284.307    902.59197 
   28000    235.36959   -150.55123    141808.45   -30632.829    4622.0883   -35254.917    904.58737 
   28050     237.1548   -280.21728    141726.67   -30632.007    4657.1456   -35289.153    904.80898 
   28100    237.79304   -490.44961    141630.24   -30612.911    4669.6791    -35282.59    905.06587 
   28150     238.7235    23.272282    141538.06   -30653.666    4687.9511   -35341.617    906.41117 
   28200    235.56861   -28.630569    141503.42   -30681.351    4625.9966   -35307.347    909.71072 
   28250    231.80497   -194.89187     141517.5   -30645.141    4552.0879   -35197.229     912.5882 
   28300    238.78076   -497.36848     141528.6    -30645.32    4689.0755   -35334.396    916.44515 
   28350     235.4346   -94.794776    141528.01    -30666.81     4623.365   -35290.175    917.90856 
   28400    236.32839   -166.77096    141551.82   -30677.898    4640.9168   -35318.815    919.81067 
   28450    236.75714   -175.74029    141570.67   -30661.813    4649.3365   -35311.149    922.53627 
   28500    235.01327   -232.83362     141563.8   -30632.232     4615.091   -35247.323    925.44158 
   28550    238.50988    -299.2956    141573.36   -30603.844    4683.7561     -35287.6    927.99531 
   28600    235.82043     15.07807    141661.49   -30581.789    4630.9418   -35212.731    929.77644 
   28650    234.18801   -343.25466    141812.15    -30572.27     4598.885   -35171.155     932.7861 
   28700     234.3201   -2.0289625    141960.46   -30542.988     4601.479   -35144.467    935.20474 
   28750    237.91898   -924.30592    142113.75   -30563.562    4672.1521   -35235.714    937.40677 
   28800    237.33959   -503.70056    142185.58    -30599.15    4660.7744   -35259.924    938.29242 
   28850    236.89243   -942.20931    142200.06   -30634.365    4651.9932   -35286.358    940.46519 
   28900    242.08676   -861.48008    142187.98   -30611.801    4753.9973   -35365.798    942.90044 
   28950    237.43581   -299.83621    142184.99   -30625.568    4662.6639   -35288.232    945.19546 
   29000    236.62744    113.24175    142192.02   -30651.957    4646.7895   -35298.747    945.85216 
   29050    236.10736     52.65568    142191.97   -30661.071    4636.5764   -35297.648     947.6911 
   29100    234.46843    221.32542    142126.23    -30637.31    4604.3918   -35241.702    949.26428 
   29150    235.26175   -487.95147    142070.19    -30643.48    4619.9706    -35263.45    951.41089 
   29200    236.18465   -105.71371       142004   -30661.206    4638.0942     -35299.3    953.37594 
   29250    234.33992   -55.768693    141972.72       -30628    4601.8681   -35229.869    955.29122 
   29300    237.63211     251.5491    141881.85   -30638.175    4666.5188   -35304.694    956.64889 
   29350    237.05512   -184.83296    141816.29   -30679.688    4655.1882   -35334.876    960.31396 
   29400    230.08172   -193.64586    141732.06   -30685.899    4518.2473   -35204.146    961.91541 
   29450    237.12473    287.88135    141654.59   -30692.996     4656.555   -35349.552    963.48575 
   29500    239.99657   -527.64461    141645.28   -30711.554     4712.951   -35424.505    965.15056 
   29550    238.56863   -271.02791    141600.34   -30670.194    4684.9097   -35355.104    964.76833 
   29600     235.6991   -237.14762    141516.23   -30645.917    4628.5592   -35274.476     965.9767 
   29650    240.02118   -284.40855    141462.21   -30642.995    4713.4344    -35356.43    967.27471 
   29700    237.80569   -371.49599    141408.42   -30674.817    4669.9274   -35344.744    968.82563 
   29750      238.648   -319.07794    141366.41   -30676.966    4686.4685   -35363.434    969.71589 
   29800    235.81922    119.62941    141363.24   -30643.223     4630.918   -35274.141    972.17071 
   29850    236.81439   -138.25747    141350.85   -30646.608    4650.4607   -35297.069    972.14234 
   29900    236.56775   -37.993771    141315.01    -30619.57    4645.6173   -35265.187    973.28345 
   29950    238.27447   -18.061961     141254.5   -30610.488    4679.1332   -35289.622    973.75024 
   30000    235.53005    31.392929    141195.53    -30617.58    4625.2393   -35242.819    972.90628 
   30050    240.87271   -25.111165    141113.49     -30645.3    4730.1564   -35375.457    974.03836 
   30100    236.09108   -141.88463    141039.45   -30615.894    4636.2566   -35252.151    975.21808 
   30150    239.82356    154.69147    140996.74   -30608.882    4709.5536   -35318.435    975.40523 
   30200     235.8762    245.96768    141020.33   -30629.155    4632.0369   -35261.192      976.619 
   30250    236.78578    229.38173    141179.19   -30607.799     4649.899   -35257.698    979.62807 
   30300    235.23908     -192.977     141484.7   -30613.211    4619.5254   -35232.736    982.19043 
   30350    231.09711   -334.57753     141834.6   -30630.163    4538.1873    -35168.35    984.89149 
   30400    233.54212   -322.06467    142146.55   -30658.229    4586.2012    -35244.43    986.29961 
   30450    235.43581   -598.09522    142342.03   -30686.814    4623.3888   -35310.203    988.48496 
   30500    229.87293   -329.41009    142428.14   -30644.066    4514.1472   -35158.213    991.02194 
   30550    236.45039   -535.07807    142405.33    -30627.94    4643.3127   -35271.253    991.76213 
   30600    232.34989   -272.34117    142304.27   -30661.044    4562.7888   -35223.833    992.46664 
   30650    235.25136   -319.57438    142196.27   -30687.974    4619.7666    -35307.74    991.80798 
   30700    234.94636   -356.18826    142112.21   -30667.595    4613.7771   -35281.372    992.04275 
   30750    235.79889   -453.69037    141943.29   -30698.301    4630.5189    -35328.82    993.63127 
   30800    237.12707   -140.23457    141761.98   -30726.207     4656.601   -35382.808    995.85061 
   30850    230.53681   -249.16449    141623.47   -30741.772    4527.1842   -35268.957    996.66838 
   30900    234.62611    7.2670994    141431.56   -30738.898    4607.4881   -35346.386    997.58695 
   30950    235.02126    45.716431    141242.55   -30753.177    4615.2481   -35368.426    997.79332 
   31000    235.47616   -71.781716    141068.25   -30754.652    4624.1812   -35378.833    998.29137 
   31050    233.80653     57.32195    140929.24   -30743.402    4591.3936   -35334.796    999.68682 
   31100    236.84315    319.59578    140887.96   -30730.793    4651.0254   -35381.819    1001.9413 
   31150     238.1928   -602.25981    140967.94   -30723.474    4677.5294   -35401.004    1004.1894 
   31200    238.74673   -87.059882    141048.41   -30707.723    4688.4072    -35396.13    1005.7749 
   31250    239.39652   -293.25405    141103.43   -30715.251    4701.1675   -35416.418    1007.8688 
   31300    236.38328    150.93315    141133.56   -30700.982    4641.9948   -35342.977    1008.0405 
   31350    238.26854   -19.010331    141186.79   -30718.426    4679.0168   -35397.443    1008.6528 
   31400    236.28934   -336.11547    141312.14    -30741.22    4640.1499    -35381.37    1010.4594 
   31450    236.70331   -371.08264    141427.72   -30740.407    4648.2795   -35388.686    1011.8578 
   31500    236.73795    189.10745    141482.58    -30726.93    4648.9596    -35375.89    1012.8082 
   31550    231.41897   -183.70312    141576.96   -30748.857    4544.5078   -35293.365    1013.3145 
   31600    232.81382   -354.66686    141667.67   -30756.879    4571.8991   -35328.778    1014.9643 
   31650    237.86724   -423.15595    141681.95   -30725.242    4671.1362   -35396.379    1015.4459 
   31700    234.77277   -521.36974    141684.14   -30721.244    4610.3682   -35331.612    1017.0346 
   31750    232.58309    111.74564       141665   -30725.693    4567.3683   -35293.061    1015.7124 
   31800    238.69737   -704.65285    141635.01   -30720.255    4687.4379   -35407.693    1016.5064 
   31850    233.81308    398.95992    141548.92   -30756.208    4591.5223    -35347.73    1018.1559 
   31900    233.32569   -46.746802    141514.99   -30775.294    4581.9511   -35357.245    1019.4792 
   31950    234.44898   -268.19468    141439.47   -30753.667    4604.0098   -35357.677    1019.8754 
   32000    235.78217    26.030292    141355.85   -30765.176    4630.1904   -35395.366    1019.9305 
   32050     231.7641    159.69759    141310.31   -30773.333    4551.2852   -35324.618    1021.8735 
   32100    236.70534    21.096219    141323.53   -30753.737    4648.3193   -35402.057    1024.2443 
   32150     233.6944    7.8159328    141340.34   -30783.562    4589.1917   -35372.753    1025.9815 
   32200    229.15939     336.8632    141305.26   -30761.999    4500.1351   -35262.134    1028.2717 
   32250    231.35771   -452.17371    141262.86   -30761.402    4543.3047   -35304.706    1030.1064 
   32300    237.54527   -123.44846    141210.28   -30759.555    4664.8135   -35424.368    1031.4737 
   32350    234.39983    124.03118    141258.98   -30761.725    4603.0446   -35364.769    1033.0821 
   32400     230.6944   -119.17846    141386.64   -30761.146     4530.279   -35291.425    1035.1468 
   32450    228.68704   -636.24273     141549.6   -30775.838    4490.8593   -35266.697    1035.4634 
   32500    236.40309   -428.95386    141620.18    -30784.45    4642.3838   -35426.834    1036.7651 
   32550    236.10388   -337.20599    141641.68   -30771.171     4636.508   -35407.679    1038.8037 
   32600    235.05124    64.512947    141635.84   -30731.262    4615.8367   -35347.098    1040.6237 
   32650    233.61868   -165.09904    141635.79   -30752.605    4587.7048    -35340.31    1044.2175 
   32700    238.11148   -399.92226    141605.14   -30735.596    4675.9325   -35411.529    1046.1501 
   32750    233.96863   -16.230906    141540.99   -30730.585    4594.5769   -35325.162    1047.2621 
   32800    232.38671    47.206614    141511.46   -30726.592    4563.5118   -35290.103    1049.2041 
   32850    234.25419    -276.9721    141542.99    -30742.79    4600.1846   -35342.975    1051.5459 
   32900     237.8238   -129.83103    141568.84   -30751.741    4670.2831   -35422.024    1052.6397 
   32950    232.26181   -376.15197    141598.62   -30768.045    4561.0591   -35329.104    1056.3515 
   33000    231.49847   -151.06315    141650.91   -30757.688     4546.069   -35303.757    1057.0215 
   33050    236.16115   -245.60473    141683.19   -30746.311    4637.6326   -35383.944    1059.0796 
   33100    235.63391   -220.11647    141650.65   -30748.277     4627.279   -35375.556    1060.9693 
   33150    234.82919   -583.96424    141617.69   -30758.948    4611.4763   -35370.424    1062.5555 
   33200    229.60343    87.103433     141572.6   -30782.016     4508.855   -35290.871    1064.5898 
   33250     233.7847   -35.154908     141545.5   -30789.357     4590.965   -35380.322    1065.8598 
   33300    232.81626   -467.96723    141551.12   -30780.811    4571.9472   -35352.759    1066.6299 
   33350    229.17337   -305.08125    141494.29   -30817.727    4500.4097   -35318.136    1067.3866 
   33400    234.99561   -607.04197    141422.14   -30770.448    4614.7443   -35385.192    1068.2487 
   33450    235.36753   -58.326729    141328.14   -30753.963    4622.0479   -35376.011    1067.8846 
   33500    229.12342   -430.39466    141274.17    -30774.72    4499.4288   -35274.149    1069.5658 
   33550    235.79111    -557.3274    141235.09   -30765.008     4630.366   -35395.374     1070.701 
   33600    233.92468   -246.61538    141200.61   -30768.146    4593.7137   -35361.859    1071.2802 
   33650    232.59301    23.273759    141168.79   -30781.824    4567.5631   -35349.387    1072.4153 
   33700     234.3382   -68.409735    141126.59   -30759.318    4601.8344   -35361.152    1073.4315 
   33750    237.11575    14.949066     141082.1   -30749.628    4656.3788   -35406.007    1074.3032 
   33800    231.66015    456.12506    141023.02   -30740.345    4549.2439   -35289.589    1074.2888 
   33850    234.05573     177.0116    141035.56   -30737.748    4596.2873   -35334.036    1075.9773 
   33900    230.72276   -85.565469    141078.53   -30749.936    4530.8358   -35280.772    1078.5907 
   33950    231.79304   -443.05489    141122.38   -30737.653    4551.8536   -35289.506    1081.4391 
   34000     231.8589    99.295601     141183.7   -30743.795     4553.147   -35296.942    1082.2824 
   34050    237.56349   -187.19364    141295.57   -30732.695    4665.1713   -35397.866    1084.9552 
   34100    234.15503    -79.34084    141352.02   -30754.842    4598.2374   -35353.079    1086.7885 
   34150    233.51929   -592.20724    141396.81   -30765.086     4585.753   -35350.839    1089.2579 
   34200    234.11206   -199.92865    141477.11   -30777.079    4597.3935   -35374.472    1090.9677 
   34250    231.73088    179.07615    141579.94   -30776.559    4550.6328   -35327.192    1092.6831 
   34300    235.83451    -118.1345    141774.06   -30763.787    4631.2183   -35395.005    1095.5171 
   34350    236.22673   -60.868559    141966.76   -30758.845    4638.9205   -35397.766    1096.3839 
   34400    234.97341   -701.96544    142102.46   -30789.832    4614.3083    -35404.14    1098.5877 
   34450    232.61967   -522.70207    142155.95   -30763.612    4568.0866   -35331.698    1100.7304 
   34500    230.36643   -647.64477    142144.58   -30778.067    4523.8384   -35301.906    1101.9386 
   34550    232.58894   -133.47644     142044.8   -30806.116    4567.4832   -35373.599    1103.1422 
   34600     231.7713   -564.39886    141936.22   -30837.115    4551.4267   -35388.542    1105.1091 
   34650     231.3837   -369.92798    141801.28   -30811.198     4543.815   -35355.013    1106.6301 
   34700    235.83149   -318.95275    141652.93   -30797.068    4631.1589   -35428.227    1107.0441 
   34750    232.24528   -322.87546    141505.19   -30805.504    4560.7345   -35366.238    1107.4393 
   34800    234.68226   -484.08167    141322.88   -30816.468    4608.5909   -35425.058    1108.8796 
   34850    232.85607   -320.73821    141131.76    -30812.04    4572.7288   -35384.769     1110.822 
   34900      233.735   -204.19044    140943.16   -30816.846     4589.989   -35406.835    1110.2145 
   34950    234.76222    500.61092    140841.77   -30783.733    4610.1612   -35393.894    1110.1863 
   35000    233.28238   -289.76818    140882.38   -30764.142    4581.1006   -35345.243    1111.8872 
   35050    236.31454    98.094376    140956.48   -30777.268     4640.645   -35417.913    1112.1759 
   35100    233.83613   -152.05848    141051.17   -30793.898    4591.9749   -35385.873    1115.8889 
   35150      232.946   -339.13601    141130.09    -30818.81    4574.4949   -35393.305    1119.0746 
   35200    236.85583   -110.86295    141143.17   -30819.755    4651.2745    -35471.03    1120.1787 
   35250    230.13948    2.2477745    141142.47   -30788.954    4519.3816   -35308.335    1120.6165 
   35300    236.01661   -420.63428    141215.11   -30765.817    4634.7943   -35400.611    1122.2705 
   35350    232.98288    132.34841    141235.57   -30737.749    4575.2191   -35312.969    1124.0867 
   35400    234.33614   -751.75619    141241.88   -30783.329    4601.7939   -35385.123    1125.7705 
   35450    232.71648   -15.515709    141216.99   -30750.189    4569.9876   -35320.176    1127.1157 
   35500    235.62614   -119.53281    141180.45   -30728.459    4627.1263   -35355.585    1129.7992 
   35550    234.56343    46.800646    141181.79   -30752.895    4606.2573   -35359.152    1132.5529 
   35600    235.55277     71.08599    141220.23   -30722.508    4625.6856   -35348.194    1135.0671 
   35650    239.17663   -14.230155    141305.34   -30700.046    4696.8494   -35396.895    1137.1736 
   35700    234.19792   -77.127081    141367.41   -30730.667    4599.0797   -35329.747    1138.3669 
   35750    232.74681   -412.58489    141429.48   -30739.921    4570.5832   -35310.505    1138.7927 
   35800    236.78915    20.174062    141546.67   -30751.216     4649.965   -35401.181    1140.5469 
   35850    235.41463   -43.852125    141717.03   -30719.565    4622.9727   -35342.538    1142.6314 
   35900    232.51725    123.74354    141905.94   -30688.304    4566.0753    -35254.38    1145.0552 
   35950    236.31344   -196.73586    142086.35   -30707.738    4640.6232   -35348.361    1146.5546 
   36000    230.96937    6.1411507    142212.17   -30718.158    4535.6787   -35253.837    1147.6316 
   36050    233.66758   -218.49436    142269.43     -30754.7     4588.665   -35343.365    1150.6929 
   36100     231.6171   -223.99531    142213.64   -30729.836    4548.3986   -35278.234    1152.7727 
   36150    228.99434     38.23313    142149.52   -30713.244     4496.894   -35210.138    1153.1453 
   36200    239.39793   -10.065811    142048.67   -30727.777    4701.1951   -35428.972    1153.6691 
   36250    235.87577   -226.49829    141898.24   -30713.857    4632.0286   -35345.886    1153.5688 
   36300    233.52168    37.667432    141727.17   -30738.449    4585.7998   -35324.249    1154.4611 
   36350    237.38305   -110.78706    141594.01   -30717.523    4661.6279   -35379.151    1156.1365 
   36400    230.94237   -338.24429    141472.98   -30723.131    4535.1486   -35258.279    1157.8981 
   36450    234.40933   -132.21406    141386.18   -30709.109    4603.2311    -35312.34       1159.3 
   36500    234.33362   -36.831303     141298.9   -30709.051    4601.7444   -35310.795    1158.3125 
   36550    239.30023    210.73009    141277.77   -30694.243    4699.2767    -35393.52    1159.1343 
   36600    236.62631   -256.92264    141348.91   -30666.498    4646.7674   -35313.265    1159.8813 
   36650    233.16093   -398.61199    141478.98   -30672.133    4578.7155   -35250.848    1163.8987 
   36700    237.10932   -224.97776    141618.27   -30674.052    4656.2524   -35330.305    1166.4632 
   36750    233.67936   -15.371754    141711.61   -30695.859    4588.8964   -35284.755     1168.044 
   36800    234.14828    104.70349    141845.37   -30685.071    4598.1048   -35283.176    1170.0537 
   36850      235.166    7.9331793    142029.11   -30676.044    4618.0903   -35294.134    1171.7086 
   36900    236.18992   -372.82977    142183.16   -30687.902    4638.1976   -35326.099    1172.1968 
   36950    233.32108   -413.06134    142332.47     -30692.7    4581.8606   -35274.561    1174.1824 
   37000    231.68803   -396.88956    142369.98   -30727.292    4549.7915   -35277.083    1176.0587 
   37050     236.1279   -160.19323    142316.98   -30738.206    4636.9797   -35375.186     1179.755 
   37100    234.65575   -26.703899    142199.42   -30720.185    4608.0702   -35328.255     1181.517 
   37150    231.96254   -188.76429    142068.34   -30721.618    4555.1821     -35276.8    1182.0573 
   37200    233.82086    312.95522    141920.27   -30725.394     4591.675   -35317.069    1181.5767 
   37250    236.45522   -254.26831    141859.36   -30715.821    4643.4076   -35359.228     1182.639 
   37300    237.36737   -265.82898    141773.66   -30738.577    4661.3199   -35399.897    1183.5749 
   37350     232.6748   -155.68973    141663.65   -30717.536    4569.1691   -35286.705    1184.6615 
   37400     237.8038    118.71248    141538.18   -30715.522    4669.8903   -35385.412    1184.8667 
   37450    235.42016   -352.59426    141433.31    -30736.65    4623.0813   -35359.732    1186.0295 
   37500    239.67649   -97.847104    141288.54   -30735.952    4706.6654   -35442.617    1186.3615 
   37550    237.28375    27.267618    141167.15   -30715.309    4659.6779   -35374.987    1188.1749 
   37600    235.72212    67.502493    141079.67   -30729.763    4629.0112   -35358.774    1189.3743 
   37650    232.14544   -290.17022    141075.27   -30707.474    4558.7738   -35266.248    1189.5217 
   37700    235.92461    150.75358    141122.83   -30710.754    4632.9877   -35343.742    1190.6254 
   37750    233.56063   -510.79283    141282.18   -30723.711    4586.5648   -35310.276    1192.2979 
   37800    236.08019   -293.49337    141460.28   -30752.423    4636.0428   -35388.466    1193.8818 
[...]
   40850    235.21741   -72.786376    141200.63   -30782.758       4619.1   -35401.858    1274.2815 
   40900    233.61794    135.97794    141240.55   -30754.179    4587.6902   -35341.869    1275.7542 
   40950    235.89034    -197.9599    141323.92   -30716.168    4632.3146   -35348.482    1275.4161 
   41000    231.57125    264.12387    141427.23   -30708.709    4547.4982   -35256.207    1277.4412 
   41050    233.84289    129.23612    141555.85   -30723.237    4592.1077   -35315.345    1279.4471 
   41100    239.03238   -10.553321    141696.34   -30712.516    4694.0167   -35406.532    1280.5523 
   41150    235.70767    -494.2934    141824.76   -30674.344    4628.7274   -35303.071    1282.5057 
   41200     235.1849   -380.10682    141911.58   -30689.878    4618.4616    -35308.34    1284.0836 
   41250    233.54236   -294.01023     141966.4     -30685.5     4586.206   -35271.706    1284.6726 
   41300     235.5947    103.36371    141988.87    -30685.88     4626.509   -35312.389    1286.7363 
   41350    235.60816   -150.43846    141977.34   -30685.557    4626.7732    -35312.33    1287.6249 
   41400    241.07323   -517.69098    141972.17   -30685.329     4734.094   -35419.423    1287.4165 
   41450    233.01299   -305.09046    141979.26    -30711.17    4575.8104    -35286.98    1287.6554 
   41500    233.59872   -45.101117    141925.14   -30728.384    4587.3127   -35315.696    1287.1363 
   41550    233.98184   -200.36381    141856.72   -30743.605    4594.8364   -35338.441    1289.0445 
   41600    232.07409    60.371876    141779.04   -30755.779    4557.3727   -35313.152    1289.8225 
   41650     232.0328   -55.668453    141624.94   -30731.135    4556.5619   -35287.696    1289.8352 
   41700    232.47832   -237.50947    141493.83   -30746.885    4565.3107   -35312.196    1291.3722 
   41750    236.56806   -89.869082    141353.87    -30762.71    4645.6233   -35408.334    1291.8548 
   41800     235.6363    -265.1773    141271.55   -30748.308    4627.3258   -35375.634    1292.9013 
   41850    230.87491   -99.726162    141224.05   -30728.198    4533.8238   -35262.022    1293.4129 
   41900    235.70828   -493.68235    141231.33   -30745.812    4628.7393   -35374.552    1295.3884 
   41950    237.29005   -377.79275    141191.21   -30764.531    4659.8015   -35424.332     1295.699 
   42000    235.64622   -64.341794    141134.96   -30754.279    4627.5207   -35381.799    1296.8964 
   42050    235.06173    -153.9957    141148.56   -30773.468    4616.0427   -35389.511    1298.6712 
   42100    236.13921   -348.94565    141231.58   -30775.463    4637.2017   -35412.665     1298.895 
   42150    239.77823    376.06864    141343.95   -30734.229    4708.6633   -35442.893    1298.9368 
   42200    236.75712    184.74081     141480.8   -30710.828     4649.336   -35360.164     1301.591 
   42250    237.08702   -470.86198    141618.35   -30722.121    4655.8145   -35377.935    1305.0886 
   42300    234.21358   -282.69499     141724.3   -30738.889    4599.3871   -35338.276    1306.5332 
   42350    230.90857   -307.12729    141878.29   -30732.115    4534.4848     -35266.6    1308.1402 
   42400    234.35234   -342.09861    142029.17   -30734.898    4602.1119    -35337.01    1310.2217 
   42450    235.47847   -632.18264    142138.65   -30716.855    4624.2265   -35341.081    1313.8489 
   42500    236.33008   -224.64959    142188.02   -30731.884    4640.9501   -35372.834    1312.6071 
   42550    235.42373   -258.13704    142226.22   -30737.202    4623.1516   -35360.354    1313.1799 
   42600    233.57121   -7.3279893    142186.81    -30723.12    4586.7725   -35309.892    1314.6533 
   42650    234.36447    -380.8654    142111.09   -30731.525    4602.3502   -35333.875    1315.8447 
   42700    229.27719   -438.95044    142005.44   -30712.148    4502.4485   -35214.596    1317.2095 
   42750    231.85665    125.27147    141897.34   -30738.273    4553.1027   -35291.376    1318.9849 
   42800    232.42449   -133.92157    141793.63   -30752.731    4564.2538   -35316.984     1320.866 
   42850    239.55681   -186.69486     141686.4   -30747.094    4704.3153   -35451.409    1323.4929 
   42900    230.69654   -421.33619    141589.78   -30768.607    4530.3209   -35298.928    1325.9455 
   42950    230.33633   -18.789477    141460.27   -30753.332    4523.2473   -35276.579    1328.0151 
   43000    232.49489    531.87269    141315.45   -30769.749    4565.6362   -35335.385    1327.5802 
   43050    238.00651    318.91634    141264.89   -30774.656    4673.8711   -35448.527     1327.825 
   43100    233.89308   -87.413421    141294.87   -30785.336    4593.0933    -35378.43    1328.2551 
   43150    236.03567    52.283823    141316.79   -30805.472    4635.1686   -35440.641    1330.0043 
   43200    234.05884   -107.82274    141392.45   -30817.186    4596.3485   -35413.534    1331.6753 
   43250    237.14163   -312.74707    141482.77   -30796.342    4656.8869   -35453.229    1332.2236 
   43300    232.72193    81.262872     141549.6   -30823.172    4570.0947   -35393.266    1332.6932 
   43350    235.92239    213.45533    141570.41   -30788.962    4632.9439   -35421.906     1334.196 
   43400    232.07034   -168.45787    141557.73   -30787.116    4557.2991   -35344.415     1335.677 
   43450      234.666    -405.8256    141545.28   -30767.717    4608.2716   -35375.989    1337.1563 
   43500    232.82181   -139.49537    141489.14   -30791.367    4572.0562   -35363.423    1337.8347 
   43550    232.10284   -151.67764     141426.3   -30777.649    4557.9373   -35335.586    1338.2261 
   43600     234.4812   -160.06418    141354.31    -30740.89    4604.6426   -35345.532    1337.5731 
   43650    237.88061   -319.37067    141251.14   -30754.658    4671.3987   -35426.056    1339.3506 
   43700    234.65383   -163.71135    141138.33   -30747.704    4608.0325   -35355.737    1339.8804 
   43750    231.68882   -38.556821    141064.34   -30756.987    4549.8069   -35306.794    1340.6717 
   43800    233.77197   -319.97453    141061.47   -30742.729    4590.7149   -35333.444     1342.426 
   43850    234.23513   -361.14299    141068.86   -30716.231    4599.8104   -35316.041    1344.2783 
   43900    240.12711    399.29978    141073.63   -30680.527    4715.5144   -35396.041    1346.4786 
   43950    240.25589    99.896016    141135.77   -30690.992    4718.0435   -35409.036    1348.0265 
   44000    235.92271   -19.218481    141194.63   -30704.503    4632.9502   -35337.454    1349.5475 
   44050    237.07665   -190.71108    141203.74   -30680.844     4655.611   -35336.455    1350.3542 
   44100    237.42047    -214.0536    141209.26   -30678.487    4662.3626    -35340.85    1350.8311 
   44150    234.44351   -51.016737    141250.94   -30704.753    4603.9024   -35308.655    1352.7961 
   44200    239.15397   -401.69984    141249.94   -30693.081    4696.4044   -35389.486    1353.7941 
   44250    235.48305   -242.04452     141209.4   -30690.207    4624.3164   -35314.524    1355.4991 
   44300    238.48262   -40.989089    141168.77   -30687.264    4683.2208   -35370.484    1356.8489 
   44350    238.46053   -3.4219982    141168.97   -30690.875    4682.7868   -35373.661     1358.667 
   44400    239.61397   -405.88358    141248.28   -30708.771    4705.4376   -35414.208    1360.3851 
   44450    235.85252    -102.1352    141368.34    -30728.81    4631.5718   -35360.382     1362.171 
   44500    234.15201    147.90059    141502.81   -30725.597     4598.178   -35323.775    1363.6994 
   44550    234.98588    56.609782    141649.37   -30727.854    4614.5532   -35342.407    1364.4906 
   44600    232.91511    194.00194    141755.46   -30727.762    4573.8884    -35301.65    1366.7977 
   44650    231.71467    38.843927    141852.31   -30732.072    4550.3145   -35282.387    1368.2085 
   44700    233.27383    126.51777    141882.79   -30733.017    4580.9327    -35313.95    1371.1698 
   44750    234.20487   -233.79527    141855.55   -30689.105    4599.2161   -35288.321    1373.3574 
   44800    235.50407    168.20193    141800.25   -30672.682    4624.7292   -35297.411    1373.4364 
   44850     232.1155   -7.3718113    141734.04   -30657.647     4558.186   -35215.833    1374.3177 
   44900    241.60175   -70.664292    141646.06   -30653.037    4744.4729    -35397.51    1375.4156 
   44950    238.60784     122.4979    141549.67   -30657.205    4685.6797   -35342.884    1377.8761 
   45000     237.7699    226.78564    141437.75   -30662.672    4669.2246   -35331.897    1378.0635 
   45050    235.00421   -4.5430263    141363.24   -30655.245    4614.9132   -35270.158    1378.1586 
   45100     239.8364   -111.49701    141422.59   -30647.214    4709.8056    -35357.02    1378.7403 
   45150    236.26942   -159.57056     141516.9    -30656.15    4639.7588   -35295.908    1380.4779 
   45200    238.49655   -133.35021    141567.14   -30635.664    4683.4943   -35319.159    1381.6619 
   45250    236.02384   -149.86678    141613.85   -30633.843    4634.9361   -35268.779     1384.688 
   45300    235.37243   -656.88271    141601.61   -30601.607    4622.1441   -35223.751    1386.5693 
   45350    231.75165   -287.79403    141529.68   -30616.411    4551.0409   -35167.452    1387.8109 
   45400    236.21589   -214.89945    141436.21   -30597.797    4638.7076   -35236.505    1388.8557 
   45450    236.57401   -164.81527    141362.11   -30611.295    4645.7402   -35257.035     1390.935 
   45500    234.58015   -73.873613    141297.35   -30621.268    4606.5857   -35227.854    1392.2772 
   45550    238.39561   -252.20917    141237.52   -30627.047    4681.5121    -35308.56    1393.3422 
   45600    240.69511   -210.67931    141161.32   -30621.732    4726.6687   -35348.401    1393.9966 
   45650    236.70362    206.92741    141045.96   -30641.762    4648.2855   -35290.047    1394.5139 
   45700    235.38451   -173.49174    140913.31    -30687.27    4622.3814   -35309.652    1394.6896 
   45750    237.33749    48.983028    140822.22   -30702.169    4660.7331   -35362.902    1394.7937 
   45800    235.06216    463.85512    140782.28   -30681.288    4616.0511   -35297.339    1395.8649 
   45850    238.59785    22.526908    140865.89   -30669.862    4685.4837   -35355.345     1398.506 
   45900    240.06475   -197.85968     140987.7   -30667.753    4714.2899   -35382.043    1399.0742 
   45950    232.56307   -128.15329    141180.03   -30691.009    4566.9751   -35257.984    1402.3716 
   46000    237.13574   -477.52939    141431.01    -30718.96    4656.7712   -35375.732     1403.896 
   46050    234.00156    -153.6781    141629.83   -30727.631    4595.2235   -35322.854     1406.809 
   46100    236.93071    -103.4082    141821.79   -30704.686     4652.745   -35357.431    1409.5475 
   46150    239.32629   -441.90372    142006.41   -30726.776    4699.7883   -35426.564    1411.4895 
   46200    237.94663   -326.40028    142154.63   -30747.158    4672.6951   -35419.853    1413.1914 
   46250    231.84561   -449.81435    142265.73   -30756.851    4552.8859   -35309.737     1416.089 
   46300    231.35046   -416.91938    142298.22   -30772.866    4543.1624   -35316.028    1417.1307 
   46350    230.32471   -450.55106    142246.36   -30784.058    4523.0191   -35307.077    1416.2863 
   46400    232.71181    111.37092    142104.93   -30787.747     4569.896   -35357.643    1417.1425 
   46450     231.8093   -26.920848    141906.23   -30803.149    4552.1729   -35355.321    1415.7144 
   46500    232.27596    -462.7567    141687.44   -30786.549    4561.3369   -35347.886     1418.313 
   46550      229.848    46.743137    141444.14   -30778.238    4513.6576   -35291.895    1418.9845 
   46600    231.84811    189.95125    141240.17   -30822.433     4552.935   -35375.368    1419.9927 
   46650    231.03614   -62.241276     141110.1   -30796.281    4536.9899    -35333.27    1419.4603 
   46700    237.54037   -218.32518    140981.03   -30779.605    4664.7172   -35444.322    1420.6633 
   46750    236.14115   -122.78042    140877.13    -30759.86    4637.2398   -35397.099    1421.5983 
   46800     234.0098    63.283172    140845.21   -30729.863    4595.3853   -35325.248    1421.9026 
   46850    236.60173   -54.856945    140908.28   -30749.904    4646.2846   -35396.189    1423.6057 
   46900    229.37817   -239.28043       141016   -30732.258    4504.4314    -35236.69    1427.1432 
   46950    236.49557    272.28191    141123.56    -30737.09    4644.1998    -35381.29    1428.1549 
   47000    232.15901    -606.6299    141284.79   -30753.213    4559.0403   -35312.253    1432.7269 
   47050    234.22369    78.073104     141386.7   -30730.637    4599.5856   -35330.223     1436.166 
   47100    234.80835   -123.94572    141501.53   -30769.596    4611.0669   -35380.663    1439.1087 
   47150    236.64073   -312.59128     141582.2   -30739.378    4647.0505   -35386.429    1440.7154 
   47200    233.36852   -83.125251    141644.81   -30749.302    4582.7923   -35332.095     1442.325 
   47250    236.46338   -62.342148     141705.1   -30758.024    4643.5678   -35401.592    1442.8615 
   47300    237.22721    17.850016    141752.55   -30711.373    4658.5674   -35369.941    1445.4696 
   47350    232.54639   -67.641991    141816.51   -30721.205    4566.6476   -35287.853     1447.313 
   47400     236.5593    -324.0768    141940.53   -30711.945    4645.4514   -35357.396    1448.4821 
   47450    234.88138   -188.17934     142058.2    -30691.66    4612.5011   -35304.161    1450.5475 
   47500    237.49705    -470.1881    142108.09   -30687.656    4663.8666   -35351.523    1450.7242 
   47550    236.04546   -170.10908    142101.97   -30657.312    4635.3609   -35292.673    1453.5881 
   47600    235.80917   -603.23241    142056.48   -30698.775    4630.7207   -35329.496    1455.1702 
   47650    237.23411   -378.24029    141909.45   -30692.809     4658.703   -35351.512    1455.4696 
   47700    240.33529    -282.6869    141707.45   -30702.285    4719.6027   -35421.888    1455.4685 
   47750    234.23677   -216.84134    141563.68   -30702.357    4599.8425     -35302.2    1455.9716 
   47800    234.26823    9.0620692     141515.7   -30712.683    4600.4602   -35313.143    1454.9927 
   47850    236.11035   -318.63027    141541.92   -30694.223    4636.6351   -35330.858    1457.6736 
   47900    234.32672   -425.79075    141522.82   -30684.543     4601.609   -35286.152    1459.2296 
   47950    239.46819    183.56352    141434.75   -30672.741    4702.5749   -35375.316    1459.0525 
   48000    234.03792   -51.614969    141337.21   -30685.505    4595.9377   -35281.442    1458.9087 
   48050    233.14307    77.316323    141218.84   -30686.389    4578.3648   -35264.754    1460.7326 
   48100     236.0164   -99.826674    141126.58   -30662.317    4634.7902   -35297.107    1462.7922 
   48150    233.83787    52.417181    141075.48   -30633.721     4592.009    -35225.73    1463.2359 
   48200    236.26841    77.908432    141055.07    -30628.37    4639.7391   -35268.109    1464.6162 
   48250    236.69406    54.621303    141102.92   -30666.686    4648.0978   -35314.784    1465.8432 
   48300    233.52526   -53.260041    141249.98   -30682.826    4585.8702   -35268.696    1467.3592 
   48350    235.44217   -309.14923    141405.17   -30702.494    4623.5137   -35326.008    1469.9672 
   48400    233.16144    -165.5345     141582.2   -30712.946    4578.7257   -35291.672    1472.5134 
   48450    234.69383   -112.70315    141715.31   -30725.125    4608.8182   -35333.943    1475.1512 
   48500    231.88982   -79.189258    141772.72   -30723.887    4553.7541   -35277.641    1475.7771 
   48550    234.22278   -424.97638     141795.1   -30709.854    4599.5677   -35309.422     1477.702 
   48600    235.49648   -161.02348    141759.23   -30715.965    4624.5803   -35340.545    1479.3088 
   48650    234.97701     106.0868    141708.54   -30686.407     4614.379   -35300.786    1479.9985 
   48700    232.64543   -27.663572    141691.14   -30699.637    4568.5924   -35268.229    1482.6874 
   48750    236.05337    127.45661    141679.51   -30700.479    4635.5162   -35335.995    1485.6755 
   48800    235.70914    89.103758    141667.36   -30681.409    4628.7563   -35310.165    1487.7881 
   48850    234.93455   -186.71618    141642.43   -30664.562    4613.5453   -35278.107    1488.9968 
   48900    240.15844   -68.926678     141601.9   -30684.186    4716.1298   -35400.316    1489.0081 
   48950    242.78196   -28.101491    141542.29   -30688.021    4767.6494   -35455.671     1490.488 
   49000    236.50157   -432.25083    141511.25   -30646.885    4644.3177   -35291.203    1491.8599 
   49050    238.47739    94.802031    141463.36    -30629.74     4683.118   -35312.858    1492.5198 
   49100    238.95662   -683.92217    141387.92   -30627.688    4692.5289   -35320.217    1493.1956 
   49150    241.00425   -140.27135    141295.87   -30609.831    4732.7393    -35342.57    1495.4931 
   49200    239.71211     205.1512    141251.05   -30604.101    4707.3649   -35311.466     1498.776 
   49250    244.17547   -127.13666    141257.84   -30557.184    4795.0145   -35352.199    1500.4275 
   49300    237.76798    153.54831    141330.54   -30554.405     4669.187   -35223.592    1500.7043 
   49350    234.06343   -152.00799    141436.83   -30546.695    4596.4385   -35143.133     1502.814 
   49400    235.12763    149.93823    141586.33   -30608.859    4617.3369   -35226.196    1506.0415 
   49450     237.6719   -156.29587     141797.4   -30640.742    4667.3002   -35308.042    1506.9381 
   49500    232.02687   -114.40713    142030.98   -30635.275    4556.4454    -35191.72    1506.5532 
   49550    234.86241   -355.54142    142274.09   -30657.954    4612.1285   -35270.083    1507.0112 
   49600    233.54781   -187.49947    142458.86   -30677.783     4586.313   -35264.096    1509.0165 
   49650    236.20537   -704.25648    142588.15   -30650.939     4638.501    -35289.44    1509.8772 
   49700    232.86879    38.842232    142581.91   -30685.412    4572.9788    -35258.39    1510.6834 
   49750    234.58049   -204.19594    142523.05   -30692.991    4606.5923   -35299.583     1512.078 
   49800    231.92468   -314.99846    142413.17    -30686.55    4554.4386   -35240.988     1513.274 
   49850    230.44138   -297.58661    142273.92   -30690.907    4525.3103   -35216.217    1514.5029 
   49900    238.66592   -297.44309    142113.79   -30678.089    4686.8202    -35364.91    1513.8714 
   49950    238.59467   -372.08922    141942.44   -30653.479    4685.4211     -35338.9    1515.3494 
   50000    237.50798   -370.59035     141761.6   -30639.707    4664.0811   -35303.788    1516.7358 
Loop time of 385.45 on 12 procs for 50000 steps with 6589 atoms

Performance: 112.077 ns/day, 0.214 hours/ns, 129.718 timesteps/s
97.1% CPU use with 12 MPI tasks x no OpenMP threads

MPI task timing breakdown:
Section |  min time  |  avg time  |  max time  |%varavg| %total
---------------------------------------------------------------
Pair    | 44.641     | 117.78     | 263.4      | 941.1 | 30.56
Neigh   | 9.5684     | 16.722     | 31.213     | 239.1 |  4.34
Comm    | 56.155     | 215.56     | 295.86     | 761.5 | 55.92
Output  | 0.17275    | 0.19629    | 0.22512    |   2.6 |  0.05
Modify  | 30.974     | 31.373     | 31.769     |   3.7 |  8.14
Other   |            | 3.822      |            |       |  0.99

Nlocal:        549.083 ave         910 max         364 min
Histogram: 8 0 0 0 0 0 0 0 0 4
Nghost:        2044.08 ave        2329 max        1895 min
Histogram: 7 1 0 0 0 0 0 0 2 2
Neighs:        0.00000 ave           0 max           0 min
Histogram: 12 0 0 0 0 0 0 0 0 0
FullNghs:      64183.7 ave      148495 max       22447 min
Histogram: 8 0 0 0 0 0 0 0 0 4

Total # of neighbors = 770204
Ave neighs/atom = 116.89240
Neighbor list builds = 8245
Dangerous builds = 0

# Create data file for import to other simulations
#
write_data data.${NAME}
write_data data.graphite_ML
System init for write_data ...


Total wall time: 0:06:25
