LAMMPS data file via write_data, version 16 Mar 2018, timestep = 6000000

6337 atoms
2 atom types

0.0000000000000000e+00 4.9219999999999999e+01 xlo xhi
0.0000000000000000e+00 4.9019635930410494e+01 ylo yhi
9.5906764389593491e-01 5.9102932356108241e+01 zlo zhi

Masses

1 18.015
2 12.01

Atoms # atomic

3184 1 4.1829490273013104e+00 3.3887904665127202e+00 2.7649142884286180e+00 1 1 1
1256 1 3.9909534506318707e+00 6.6964896456645306e-01 3.3156800867139915e+00 -2 -4 1
6300 1 8.3800980825226130e+00 8.0459500771123638e-01 3.7776096013878360e+00 1 -4 1
3015 1 8.6670803375986747e+00 3.2646625920943859e+00 2.6880485292661813e+00 -1 -2 0
3535 1 1.9707169408299536e+00 4.9445692266882197e+00 3.1894580931071537e+00 1 2 0
1756 1 2.1731275861495942e+00 7.7428483671750277e+00 2.2454171704804646e+00 0 2 0
6125 1 6.5241985250096990e+00 4.2864873577182809e+00 3.7556032747342840e+00 2 -1 1
4965 1 6.5225484215255518e+00 7.0192886931215828e+00 2.6600679836938212e+00 -1 -2 0
6161 1 1.1033035057698427e+01 4.7744703443101848e+00 3.8187710424485846e+00 3 2 1
2963 1 1.1077192003896519e+01 7.3987625576789453e+00 2.7995592707111037e+00 0 0 1
2874 1 8.8061424107215096e+00 8.4190533555162279e+00 6.3324696992486595e+00 -1 0 1
4668 1 4.4023300383382136e+00 8.4717392444662316e+00 3.5218765705030162e+00 2 2 0
6070 1 4.7396017506682826e+00 1.1247562785856655e+01 2.6677805900329776e+00 -1 1 1
344 1 8.6677645369021672e+00 8.4096635411910636e+00 3.6195514948952110e+00 1 2 1
3314 1 9.1999062892538053e+00 1.1127765142358253e+01 2.7963737198762608e+00 -3 -1 1
4703 1 4.2870176409804586e+00 8.5347452281861020e+00 6.2648520871934084e+00 0 0 1
5259 1 1.9546722057750154e+00 2.3274859272275248e+00 7.0909208937239798e+00 0 2 1
2010 1 1.8654344574304156e+00 5.8122738786623562e-01 4.9820755213741350e+00 -2 0 0
5987 1 6.2028065850093546e+00 2.1500887689081405e+00 7.4504830709321368e+00 1 3 1
157 1 1.1257609415443467e+01 9.6745205353211929e+00 7.3676935678575859e+00 -2 2 0
3402 1 1.0685636332230043e+01 2.0624031539405010e+00 7.5965045220215712e+00 1 1 0
246 1 6.4828115205994452e+00 9.9189129829007019e+00 7.1505653687406472e+00 0 1 0
5984 1 1.9048135788122000e+00 4.9940990045909919e+00 5.9818087699824503e+00 -1 2 1
3582 1 4.3900241235228883e+00 6.0766088112981675e+00 7.2242867984151848e+00 0 3 0
3520 1 6.6455781516789276e+00 4.5581963805220642e+00 6.4823111958652690e+00 1 4 0
4983 1 1.1147527803074361e+01 4.8002867187249967e+00 6.6077777733003522e+00 -1 -1 0
2928 1 8.9211091871564321e+00 5.7174167957665931e+00 7.2291584102849784e+00 2 2 1
2926 1 2.3036083282117130e+00 9.9577836111061853e+00 7.0618172588553643e+00 1 -1 1
3456 1 1.0645042475660325e+01 3.5646609968083270e-01 5.3715716262811588e+00 1 -2 0
1539 1 6.0295908552393334e+00 4.3928627203626697e-01 5.3493622832252807e+00 1 0 0
3365 1 1.1663336455964103e+01 1.2150685607930026e+01 3.5142747705895250e+00 0 -2 1
3157 1 3.3433542804907496e-01 1.1671718129588116e+01 2.0744927089487315e+00 -1 1 1
1470 1 3.1179136608329749e-01 8.6234015257057770e+00 5.9928707132241215e+00 -1 1 0
124 1 1.4296247934265802e-01 9.0669142178221023e+00 3.1408077951653648e+00 -1 2 0
1370 1 3.9160039978432195e+00 1.6591824345838526e+00 8.8719617418890202e+00 2 1 1
4933 1 3.8824294589007020e+00 3.5717138582113170e+00 1.0895686504213325e+01 1 -1 0
4760 1 8.3856680303614670e+00 1.2401116669800409e+00 9.0688696601019316e+00 -1 -2 1
5182 1 8.0451331253813283e+00 3.1067213522599855e+00 1.0907372905914341e+01 2 -1 0
6249 1 2.2436675105512749e+00 7.5415486852107279e+00 1.0803522871975888e+01 0 1 1
6332 1 4.4144516053822640e+00 6.3590659182604110e+00 9.9805112297687852e+00 3 4 1
5106 1 6.6424289128228242e+00 7.2464032753116649e+00 1.1115408798379935e+01 1 0 0
284 1 8.7087012814696010e+00 5.5857704207176404e+00 1.0191465722127898e+01 -2 -1 1
2991 1 1.1096092229217227e+01 7.0527455303370195e+00 1.0874973615066800e+01 -1 3 1
4435 1 2.1210251765142485e+00 1.0035729422347805e+01 9.9513227816940706e+00 -1 1 1
1607 1 4.3462918420665364e+00 1.1078415190304645e+01 1.0913445128926092e+01 -4 1 0
1311 1 6.7332319168309578e+00 9.8841206143287952e+00 9.9012203315787772e+00 2 -1 1
6257 1 1.1216545183042809e+01 9.6075197678443303e+00 1.0099391049872896e+01 0 -2 1
5132 1 9.0277539181842013e+00 1.1273118320069297e+01 1.0592282720524725e+01 -1 0 0
47 1 1.5260820488630000e+00 2.9042264414448344e+00 1.2219142968914577e+01 3 -3 0
2854 1 1.2728885003833759e+00 6.0160567147883115e-01 1.3313240938512054e+01 0 0 1
1435 1 5.8326655136596512e+00 3.0198674285091482e+00 1.2455169143200759e+01 0 2 1
4531 1 5.7650555015230758e+00 5.3504343374304719e-01 1.3503537175480128e+01 1 1 1
4868 1 1.0493895522442337e+01 2.5732529342987456e+00 1.2709939474573648e+01 1 0 0
6144 1 8.6557285493218821e+00 8.6044919793736465e+00 1.4562422371033623e+01 0 2 1
1915 1 1.4431514843418001e+00 4.8445886324038954e+00 1.4274390043774320e+01 2 1 0
5253 1 2.0892564382375882e+00 7.2883888643871364e+00 1.3481142306085575e+01 2 2 1
6159 1 6.1058055600373402e+00 4.5287849592122722e+00 1.4619509416869885e+01 4 0 1
1635 1 6.3876948313263870e+00 7.1520407696346657e+00 1.3673243297637354e+01 2 2 1
466 1 1.0393403120097945e+01 4.6170035276154326e+00 1.4864500352279476e+01 -1 3 0
1261 1 1.0788563006273836e+01 7.2501660467110911e+00 1.3728675172383854e+01 -2 0 1
3410 1 4.0603998345124257e+00 1.1164240436280721e+01 1.3666906810534144e+01 1 1 0
3358 1 4.0395743715863741e+00 8.6811995880458426e+00 1.4340285062731315e+01 0 0 0
1606 1 9.2367504382761823e+00 1.1202906226632592e+01 1.3430458173796380e+01 1 1 0
1600 1 1.1474521756276454e+01 1.1912891210792822e+01 1.4871972667367862e+01 -3 1 1
280 1 1.0669212298606530e+01 5.3685138777086541e-02 1.3575750715999201e+01 4 2 1
1662 1 6.7092595552868133e+00 1.2129686020941644e+01 1.4150725475297216e+01 -1 3 0
3171 1 1.3070069148886359e+00 7.8544447627463854e-01 1.6119858226503361e+01 0 0 0
4964 1 3.5619393779772999e+00 2.1999906623466972e+00 1.7244743988142513e+01 2 -2 0
359 1 5.5973918822410296e+00 8.6498984505730359e-01 1.6203357112326529e+01 1 -1 0
6136 1 7.9992990853087012e+00 1.6707913419878646e+00 1.7309449842168529e+01 -1 0 0
3231 1 1.0597415750135376e+01 1.2090725971667386e+01 1.9640219847594533e+01 1 -2 0
5108 1 3.9114960464693262e+00 6.2981809423300508e+00 1.8048393552986550e+01 4 0 0
5078 1 8.2001795884019320e+00 1.2234258725696170e+01 2.1051869506705046e+01 2 1 0
3483 1 8.2514018979533486e+00 4.1110267114021166e+00 1.6307465013165221e+01 1 -2 0
3558 1 8.2107865599941654e+00 5.9638563336930286e+00 1.8268713374166392e+01 3 3 0
3391 1 1.0669788233584720e+01 5.2422351561875340e+00 1.9310311272883954e+01 -2 1 1
1237 1 2.3018942565374574e+00 1.0282648482614405e+01 1.8619727680462589e+01 1 0 1
1804 1 4.2294346473377580e+00 8.7364450551590007e+00 1.7017616276362450e+01 1 -3 1
1335 1 6.4714687617522442e+00 9.8555424836617131e+00 1.7852883085473731e+01 -3 -2 1
1571 1 8.8013326768161821e+00 8.5015761188196191e+00 1.7322024669563536e+01 -1 -1 0
5111 1 1.0865178671604069e+01 9.3533433533620531e+00 1.8695074417599606e+01 1 -1 0
305 1 1.4941098525675942e+00 3.6248330487438820e+00 2.0793065928009163e+01 -2 -1 0
398 1 3.3452351591780429e+00 2.0516609003649782e+00 2.0013511534365218e+01 0 0 0
6140 1 5.6733530700315491e+00 3.1091744693106897e+00 2.0588809368392305e+01 -1 -2 1
159 1 7.7244497793486122e+00 1.6562112129607114e+00 2.0049378329581419e+01 -2 -1 1
5119 1 1.0122040321851822e+01 2.9873803784421900e+00 2.0730353804160625e+01 1 -1 0
3059 1 1.9357452167148772e+00 6.4832581029310132e+00 1.9991096066978127e+01 -1 -1 1
1400 1 3.0164059789061923e+00 8.3609456866360450e+00 2.1467014902702132e+01 4 -2 1
6195 1 5.9129141574678572e+00 5.5494734858784067e+00 1.9607873054333780e+01 -2 3 1
496 1 5.5588234728394790e+00 7.4585130487914748e+00 2.1698915621013455e+01 -4 1 1
118 1 1.1273186865819108e+01 7.4690673198623125e+00 2.0721547217414656e+01 0 -3 0
1696 1 3.7282853531465370e+00 1.1160628211026243e+01 2.1319875345179078e+01 5 -1 1
2871 1 6.3979462821529696e+00 1.0092870412545549e+01 2.0809709666518632e+01 -1 2 1
3470 1 1.0087232447799902e+01 1.9477960114491844e-01 1.6245144059532937e+01 -1 1 0
4856 1 3.7198261774017936e+00 4.5111751991234010e+00 1.5935721172339001e+01 3 4 1
3115 1 1.2235829221375397e+01 1.7082094825878535e+00 1.7070944236561360e+01 -1 -1 0
1526 1 1.2234083202613569e+01 1.5454860216465063e+00 1.9877108218799702e+01 0 2 1
4487 1 1.4744022902262144e+00 3.0342874447952268e+00 2.3532841284051798e+01 0 -1 1
1905 1 3.8055542854614459e+00 1.8033378611241062e+00 2.4255985891823528e+01 -2 -1 0
4959 1 5.5206793845720243e+00 3.5000613982424795e+00 2.3153452642034136e+01 3 1 0
5320 1 7.8129990264370655e+00 2.4345259212316437e+00 2.4185199136301687e+01 -2 0 0
4456 1 1.0363510874233079e+01 3.5213264329427001e+00 2.3447928583108812e+01 1 -2 1
2155 1 2.7074884604934915e+00 7.4523652217453469e+00 2.4214130998660561e+01 4 6 1
3652 1 7.6864181734535881e+00 7.8476611674681678e+00 2.3746215427932725e+01 0 -1 1
4721 1 5.1342417832239384e+00 5.8651359138830435e+00 2.4417737237812521e+01 2 -1 1
734 2 1.1074500000000002e+01 9.2355835810918343e+00 2.6682674427867429e+01 0 0 0
3538 1 1.1717437640952124e+01 5.8358429212814782e+00 2.4349462214131250e+01 0 2 0
3229 1 4.1188560648521131e+00 1.0570442307563484e+01 2.3912824175255228e+01 0 1 0
3451 1 6.7254649662256885e+00 1.0326594361643460e+01 2.4054892951305924e+01 0 0 0
1860 1 1.1314646960467936e+01 1.0844276282000022e+01 2.4420782777191967e+01 -1 0 0
728 2 8.6134999999999984e+00 1.0656442593567498e+01 2.6682674427867429e+01 0 0 0
732 2 9.8440000000000012e+00 8.5251540748539956e+00 2.6682674427867429e+01 0 0 0
554 2 0.0000000000000000e+00 2.8417180249513345e+00 2.6682674427867429e+01 0 0 0
556 2 0.0000000000000000e+00 0.0000000000000000e+00 2.6682674427867429e+01 0 0 0
558 2 1.2305000000000001e+00 7.1042950623783474e-01 2.6682674427867429e+01 0 0 0
565 2 1.2305000000000001e+00 2.1312885187134998e+00 2.6682674427867429e+01 0 0 0
567 2 2.4610000000000003e+00 2.8417180249513345e+00 2.6682674427867429e+01 0 0 0
569 2 2.4610000000000003e+00 0.0000000000000000e+00 2.6682674427867429e+01 0 0 0
571 2 3.6915000000000004e+00 7.1042950623783474e-01 2.6682674427867429e+01 0 0 0
586 2 3.6914999999999996e+00 2.1312885187134998e+00 2.6682674427867429e+01 0 0 0
588 2 4.9220000000000006e+00 2.8417180249513332e+00 2.6682674427867429e+01 0 0 0
590 2 4.9220000000000006e+00 0.0000000000000000e+00 2.6682674427867429e+01 0 0 0
592 2 6.1524999999999999e+00 7.1042950623783407e-01 2.6682674427867429e+01 0 0 0
615 2 6.1524999999999999e+00 2.1312885187134989e+00 2.6682674427867429e+01 0 0 0
617 2 7.3829999999999991e+00 2.8417180249513345e+00 2.6682674427867429e+01 0 0 0
619 2 7.3829999999999991e+00 0.0000000000000000e+00 2.6682674427867429e+01 0 0 0
621 2 8.6134999999999984e+00 7.1042950623783407e-01 2.6682674427867429e+01 0 0 0
652 2 8.6134999999999984e+00 2.1312885187135002e+00 2.6682674427867429e+01 0 0 0
654 2 9.8440000000000012e+00 2.8417180249513332e+00 2.6682674427867429e+01 0 0 0
656 2 9.8440000000000012e+00 0.0000000000000000e+00 2.6682674427867429e+01 0 0 0
658 2 1.1074500000000002e+01 7.1042950623783330e-01 2.6682674427867429e+01 0 0 0
697 2 1.1074500000000002e+01 2.1312885187135002e+00 2.6682674427867429e+01 0 0 0
561 2 0.0000000000000000e+00 4.2625770374269996e+00 2.6682674427867429e+01 0 0 0
563 2 1.2305000000000001e+00 4.9730065436648339e+00 2.6682674427867429e+01 0 0 0
578 2 1.2305000000000001e+00 6.3938655561404980e+00 2.6682674427867429e+01 0 0 0
582 2 2.4610000000000003e+00 4.2625770374269996e+00 2.6682674427867429e+01 0 0 0
584 2 3.6914999999999996e+00 4.9730065436648339e+00 2.6682674427867429e+01 0 0 0
607 2 3.6914999999999996e+00 6.3938655561404980e+00 2.6682674427867429e+01 0 0 0
559 2 0.0000000000000000e+00 7.1042950623783341e+00 2.6682674427867429e+01 0 0 0
580 2 2.4610000000000003e+00 7.1042950623783341e+00 2.6682674427867429e+01 0 0 0
611 2 4.9220000000000006e+00 4.2625770374269978e+00 2.6682674427867429e+01 0 0 0
613 2 6.1524999999999999e+00 4.9730065436648339e+00 2.6682674427867429e+01 0 0 0
644 2 6.1524999999999999e+00 6.3938655561404980e+00 2.6682674427867429e+01 0 0 0
648 2 7.3829999999999991e+00 4.2625770374269996e+00 2.6682674427867429e+01 0 0 0
609 2 4.9220000000000006e+00 7.1042950623783341e+00 2.6682674427867429e+01 0 0 0
646 2 7.3830000000000009e+00 7.1042950623783341e+00 2.6682674427867429e+01 0 0 0
650 2 8.6135000000000002e+00 4.9730065436648339e+00 2.6682674427867429e+01 0 0 0
689 2 8.6135000000000002e+00 6.3938655561404980e+00 2.6682674427867429e+01 0 0 0
693 2 9.8440000000000012e+00 4.2625770374270004e+00 2.6682674427867429e+01 0 0 0
695 2 1.1074500000000002e+01 4.9730065436648339e+00 2.6682674427867429e+01 0 0 0
736 2 1.1074500000000002e+01 6.3938655561404980e+00 2.6682674427867429e+01 0 0 0
691 2 9.8440000000000012e+00 7.1042950623783341e+00 2.6682674427867429e+01 0 0 0
574 2 0.0000000000000000e+00 8.5251540748539991e+00 2.6682674427867429e+01 0 0 0
576 2 1.2305000000000001e+00 9.2355835810918343e+00 2.6682674427867429e+01 0 0 0
603 2 2.4610000000000003e+00 8.5251540748539991e+00 2.6682674427867429e+01 0 0 0
605 2 3.6915000000000004e+00 9.2355835810918343e+00 2.6682674427867429e+01 0 0 0
572 2 0.0000000000000000e+00 1.1366872099805333e+01 2.6682674427867429e+01 0 0 0
599 2 1.2305000000000001e+00 1.0656442593567498e+01 2.6682674427867429e+01 0 0 0
601 2 2.4610000000000003e+00 1.1366872099805333e+01 2.6682674427867429e+01 0 0 0
636 2 3.6914999999999996e+00 1.0656442593567499e+01 2.6682674427867429e+01 0 0 0
681 2 6.1524999999999999e+00 1.0656442593567499e+01 2.6682674427867429e+01 0 0 0
638 2 4.9220000000000006e+00 1.1366872099805333e+01 2.6682674427867429e+01 0 0 0
683 2 7.3829999999999991e+00 1.1366872099805333e+01 2.6682674427867429e+01 0 0 0
642 2 6.1524999999999999e+00 9.2355835810918343e+00 2.6682674427867429e+01 0 0 0
640 2 4.9220000000000006e+00 8.5251540748539991e+00 2.6682674427867429e+01 0 0 0
685 2 7.3830000000000009e+00 8.5251540748539991e+00 2.6682674427867429e+01 0 0 0
687 2 8.6134999999999984e+00 9.2355835810918343e+00 2.6682674427867429e+01 0 0 0
730 2 9.8440000000000012e+00 1.1366872099805333e+01 2.6682674427867429e+01 0 0 0
775 2 1.1074500000000002e+01 1.0656442593567498e+01 2.6682674427867429e+01 0 0 0
777 2 1.2304999999999998e+01 1.1366872099805333e+01 2.6682674427867429e+01 0 0 0
1281 1 5.4325191242108073e-01 5.6494403585247195e+00 2.4381550919068896e+01 1 -2 1
5178 1 8.8561015365047595e+00 1.2227027661029473e+01 2.3953275067597932e+01 0 -2 0
1624 1 1.2047944465370788e+01 1.5085127846859796e+00 2.4449469562995247e+01 0 1 1
1521 1 1.0479510506829595e+01 7.9947797297870267e+00 2.3494373570448229e+01 1 -4 0
555 2 0.0000000000000000e+00 1.4208590124756650e+00 3.0031000000002141e+01 0 0 0
557 2 0.0000000000000000e+00 0.0000000000000000e+00 3.0031000000002141e+01 0 0 0
566 2 1.2305000000000001e+00 2.1312885187134998e+00 3.0031000000002141e+01 0 0 0
568 2 2.4610000000000003e+00 1.4208590124756650e+00 3.0031000000002141e+01 0 0 0
570 2 2.4610000000000003e+00 0.0000000000000000e+00 3.0031000000002141e+01 0 0 0
587 2 3.6914999999999996e+00 2.1312885187134998e+00 3.0031000000002141e+01 0 0 0
564 2 1.2305000000000001e+00 3.5521475311891644e+00 3.0031000000002141e+01 0 0 0
585 2 3.6914999999999996e+00 3.5521475311891644e+00 3.0031000000002141e+01 0 0 0
883 2 0.0000000000000000e+00 2.8417180249513345e+00 3.3379325572136693e+01 0 0 0
884 2 0.0000000000000000e+00 0.0000000000000000e+00 3.3379325572136693e+01 0 0 0
885 2 1.2305000000000001e+00 7.1042950623783474e-01 3.3379325572136693e+01 0 0 0
889 2 1.2305000000000001e+00 2.1312885187134998e+00 3.3379325572136693e+01 0 0 0
890 2 2.4610000000000003e+00 2.8417180249513345e+00 3.3379325572136693e+01 0 0 0
891 2 2.4610000000000003e+00 0.0000000000000000e+00 3.3379325572136693e+01 0 0 0
892 2 3.6915000000000004e+00 7.1042950623783474e-01 3.3379325572136693e+01 0 0 0
900 2 3.6914999999999996e+00 2.1312885187134998e+00 3.3379325572136693e+01 0 0 0
589 2 4.9220000000000006e+00 1.4208590124756650e+00 3.0031000000002141e+01 0 0 0
591 2 4.9220000000000006e+00 0.0000000000000000e+00 3.0031000000002141e+01 0 0 0
616 2 6.1524999999999999e+00 2.1312885187134989e+00 3.0031000000002141e+01 0 0 0
618 2 7.3829999999999991e+00 1.4208590124756659e+00 3.0031000000002141e+01 0 0 0
620 2 7.3829999999999991e+00 0.0000000000000000e+00 3.0031000000002141e+01 0 0 0
614 2 6.1524999999999999e+00 3.5521475311891644e+00 3.0031000000002141e+01 0 0 0
901 2 4.9220000000000006e+00 2.8417180249513332e+00 3.3379325572136693e+01 0 0 0
902 2 4.9220000000000006e+00 0.0000000000000000e+00 3.3379325572136693e+01 0 0 0
903 2 6.1524999999999999e+00 7.1042950623783407e-01 3.3379325572136693e+01 0 0 0
915 2 6.1524999999999999e+00 2.1312885187134989e+00 3.3379325572136693e+01 0 0 0
916 2 7.3829999999999991e+00 2.8417180249513345e+00 3.3379325572136693e+01 0 0 0
917 2 7.3829999999999991e+00 0.0000000000000000e+00 3.3379325572136693e+01 0 0 0
653 2 8.6134999999999984e+00 2.1312885187135002e+00 3.0031000000002141e+01 0 0 0
655 2 9.8440000000000012e+00 1.4208590124756659e+00 3.0031000000002141e+01 0 0 0
657 2 9.8440000000000012e+00 0.0000000000000000e+00 3.0031000000002141e+01 0 0 0
698 2 1.1074500000000002e+01 2.1312885187135002e+00 3.0031000000002141e+01 0 0 0
651 2 8.6134999999999984e+00 3.5521475311891657e+00 3.0031000000002141e+01 0 0 0
696 2 1.1074500000000002e+01 3.5521475311891644e+00 3.0031000000002141e+01 0 0 0
918 2 8.6134999999999984e+00 7.1042950623783407e-01 3.3379325572136693e+01 0 0 0
934 2 8.6134999999999984e+00 2.1312885187135002e+00 3.3379325572136693e+01 0 0 0
935 2 9.8440000000000012e+00 2.8417180249513332e+00 3.3379325572136693e+01 0 0 0
936 2 9.8440000000000012e+00 0.0000000000000000e+00 3.3379325572136693e+01 0 0 0
937 2 1.1074500000000002e+01 7.1042950623783330e-01 3.3379325572136693e+01 0 0 0
957 2 1.1074500000000002e+01 2.1312885187135002e+00 3.3379325572136693e+01 0 0 0
560 2 0.0000000000000000e+00 5.6834360499026637e+00 3.0031000000002141e+01 0 0 0
562 2 0.0000000000000000e+00 4.2625770374269996e+00 3.0031000000002141e+01 0 0 0
579 2 1.2305000000000001e+00 6.3938655561404980e+00 3.0031000000002141e+01 0 0 0
581 2 2.4610000000000003e+00 5.6834360499026637e+00 3.0031000000002141e+01 0 0 0
583 2 2.4610000000000003e+00 4.2625770374269996e+00 3.0031000000002141e+01 0 0 0
608 2 3.6914999999999996e+00 6.3938655561404980e+00 3.0031000000002141e+01 0 0 0
577 2 1.2305000000000001e+00 7.8147245686161639e+00 3.0031000000002141e+01 0 0 0
606 2 3.6914999999999996e+00 7.8147245686161639e+00 3.0031000000002141e+01 0 0 0
887 2 0.0000000000000000e+00 4.2625770374269996e+00 3.3379325572136693e+01 0 0 0
888 2 1.2305000000000001e+00 4.9730065436648339e+00 3.3379325572136693e+01 0 0 0
896 2 1.2305000000000001e+00 6.3938655561404980e+00 3.3379325572136693e+01 0 0 0
898 2 2.4610000000000003e+00 4.2625770374269996e+00 3.3379325572136693e+01 0 0 0
899 2 3.6914999999999996e+00 4.9730065436648339e+00 3.3379325572136693e+01 0 0 0
911 2 3.6914999999999996e+00 6.3938655561404980e+00 3.3379325572136693e+01 0 0 0
886 2 0.0000000000000000e+00 7.1042950623783341e+00 3.3379325572136693e+01 0 0 0
897 2 2.4610000000000003e+00 7.1042950623783341e+00 3.3379325572136693e+01 0 0 0
610 2 4.9220000000000006e+00 5.6834360499026637e+00 3.0031000000002141e+01 0 0 0
612 2 4.9220000000000006e+00 4.2625770374269978e+00 3.0031000000002141e+01 0 0 0
645 2 6.1524999999999999e+00 6.3938655561404980e+00 3.0031000000002141e+01 0 0 0
647 2 7.3829999999999991e+00 5.6834360499026637e+00 3.0031000000002141e+01 0 0 0
649 2 7.3829999999999991e+00 4.2625770374269996e+00 3.0031000000002141e+01 0 0 0
643 2 6.1524999999999999e+00 7.8147245686161639e+00 3.0031000000002141e+01 0 0 0
913 2 4.9220000000000006e+00 4.2625770374269978e+00 3.3379325572136693e+01 0 0 0
914 2 6.1524999999999999e+00 4.9730065436648339e+00 3.3379325572136693e+01 0 0 0
930 2 6.1524999999999999e+00 6.3938655561404980e+00 3.3379325572136693e+01 0 0 0
932 2 7.3829999999999991e+00 4.2625770374269996e+00 3.3379325572136693e+01 0 0 0
912 2 4.9220000000000006e+00 7.1042950623783341e+00 3.3379325572136693e+01 0 0 0
931 2 7.3830000000000009e+00 7.1042950623783341e+00 3.3379325572136693e+01 0 0 0
690 2 8.6135000000000002e+00 6.3938655561404980e+00 3.0031000000002141e+01 0 0 0
692 2 9.8440000000000012e+00 5.6834360499026637e+00 3.0031000000002141e+01 0 0 0
694 2 9.8440000000000012e+00 4.2625770374270004e+00 3.0031000000002141e+01 0 0 0
737 2 1.1074500000000002e+01 6.3938655561404980e+00 3.0031000000002141e+01 0 0 0
688 2 8.6135000000000002e+00 7.8147245686161639e+00 3.0031000000002141e+01 0 0 0
735 2 1.1074500000000002e+01 7.8147245686161639e+00 3.0031000000002141e+01 0 0 0
933 2 8.6135000000000002e+00 4.9730065436648339e+00 3.3379325572136693e+01 0 0 0
953 2 8.6135000000000002e+00 6.3938655561404980e+00 3.3379325572136693e+01 0 0 0
955 2 9.8440000000000012e+00 4.2625770374270004e+00 3.3379325572136693e+01 0 0 0
956 2 1.1074500000000002e+01 4.9730065436648339e+00 3.3379325572136693e+01 0 0 0
977 2 1.1074500000000002e+01 6.3938655561404980e+00 3.3379325572136693e+01 0 0 0
954 2 9.8440000000000012e+00 7.1042950623783341e+00 3.3379325572136693e+01 0 0 0
573 2 0.0000000000000000e+00 9.9460130873296642e+00 3.0031000000002141e+01 0 0 0
575 2 0.0000000000000000e+00 8.5251540748539991e+00 3.0031000000002141e+01 0 0 0
602 2 2.4610000000000003e+00 9.9460130873296642e+00 3.0031000000002141e+01 0 0 0
604 2 2.4610000000000003e+00 8.5251540748539991e+00 3.0031000000002141e+01 0 0 0
598 2 1.2305000000000001e+00 1.2077301606043163e+01 3.0031000000002141e+01 0 0 0
600 2 1.2305000000000001e+00 1.0656442593567498e+01 3.0031000000002141e+01 0 0 0
635 2 3.6914999999999996e+00 1.2077301606043163e+01 3.0031000000002141e+01 0 0 0
637 2 3.6914999999999996e+00 1.0656442593567499e+01 3.0031000000002141e+01 0 0 0
894 2 0.0000000000000000e+00 8.5251540748539991e+00 3.3379325572136693e+01 0 0 0
895 2 1.2305000000000001e+00 9.2355835810918343e+00 3.3379325572136693e+01 0 0 0
909 2 2.4610000000000003e+00 8.5251540748539991e+00 3.3379325572136693e+01 0 0 0
910 2 3.6915000000000004e+00 9.2355835810918343e+00 3.3379325572136693e+01 0 0 0
893 2 0.0000000000000000e+00 1.1366872099805333e+01 3.3379325572136693e+01 0 0 0
907 2 1.2305000000000001e+00 1.0656442593567498e+01 3.3379325572136693e+01 0 0 0
908 2 2.4610000000000003e+00 1.1366872099805333e+01 3.3379325572136693e+01 0 0 0
926 2 3.6914999999999996e+00 1.0656442593567499e+01 3.3379325572136693e+01 0 0 0
639 2 4.9220000000000006e+00 9.9460130873296642e+00 3.0031000000002141e+01 0 0 0
641 2 4.9220000000000006e+00 8.5251540748539991e+00 3.0031000000002141e+01 0 0 0
684 2 7.3830000000000009e+00 9.9460130873296642e+00 3.0031000000002141e+01 0 0 0
686 2 7.3830000000000009e+00 8.5251540748539991e+00 3.0031000000002141e+01 0 0 0
680 2 6.1524999999999999e+00 1.2077301606043163e+01 3.0031000000002141e+01 0 0 0
682 2 6.1524999999999999e+00 1.0656442593567499e+01 3.0031000000002141e+01 0 0 0
928 2 4.9220000000000006e+00 8.5251540748539991e+00 3.3379325572136693e+01 0 0 0
929 2 6.1524999999999999e+00 9.2355835810918343e+00 3.3379325572136693e+01 0 0 0
951 2 7.3830000000000009e+00 8.5251540748539991e+00 3.3379325572136693e+01 0 0 0
927 2 4.9220000000000006e+00 1.1366872099805333e+01 3.3379325572136693e+01 0 0 0
949 2 6.1524999999999999e+00 1.0656442593567499e+01 3.3379325572136693e+01 0 0 0
950 2 7.3829999999999991e+00 1.1366872099805333e+01 3.3379325572136693e+01 0 0 0
731 2 9.8440000000000012e+00 9.9460130873296642e+00 3.0031000000002141e+01 0 0 0
733 2 9.8440000000000012e+00 8.5251540748539956e+00 3.0031000000002141e+01 0 0 0
727 2 8.6135000000000002e+00 1.2077301606043163e+01 3.0031000000002141e+01 0 0 0
729 2 8.6134999999999984e+00 1.0656442593567498e+01 3.0031000000002141e+01 0 0 0
774 2 1.1074500000000002e+01 1.2077301606043163e+01 3.0031000000002141e+01 0 0 0
776 2 1.1074500000000002e+01 1.0656442593567498e+01 3.0031000000002141e+01 0 0 0
952 2 8.6134999999999984e+00 9.2355835810918343e+00 3.3379325572136693e+01 0 0 0
975 2 9.8440000000000012e+00 8.5251540748539956e+00 3.3379325572136693e+01 0 0 0
976 2 1.1074500000000002e+01 9.2355835810918343e+00 3.3379325572136693e+01 0 0 0
973 2 8.6134999999999984e+00 1.0656442593567498e+01 3.3379325572136693e+01 0 0 0
974 2 9.8440000000000012e+00 1.1366872099805333e+01 3.3379325572136693e+01 0 0 0
997 2 1.1074500000000002e+01 1.0656442593567498e+01 3.3379325572136693e+01 0 0 0
998 2 1.2304999999999998e+01 1.1366872099805333e+01 3.3379325572136693e+01 0 0 0
242 1 2.4616428096911314e+00 1.4130884903475531e+00 3.6167074943570825e+01 2 3 -1
1366 1 7.3082397998384376e+00 1.6296997020075636e+00 3.6210453987466870e+01 -4 1 0
113 1 9.5331891320075357e+00 8.4553228582237754e+00 3.5929188182601571e+01 1 -3 0
3439 1 9.6211857774444294e+00 8.7591290066553348e-02 3.6149034446324592e+01 0 1 -1
3676 1 2.6164973851517948e+00 1.2043562885066862e+01 3.5668539717743464e+01 1 -1 0
3543 1 7.0865462243453514e+00 9.4689107410752236e+00 3.6307959255341949e+01 0 1 0
1996 1 2.0211125559251046e+00 4.1851613645733323e+00 3.6149435222032480e+01 2 0 -1
53 1 7.1585223073687363e+00 4.1698158245276034e+00 3.5911321956037732e+01 -1 -1 -1
1852 1 4.6041546096786918e+00 5.3200777351000754e+00 3.6248127853946862e+01 4 -1 -1
6217 1 9.6874255012140225e+00 5.6332149998917078e+00 3.6448203010340947e+01 0 -1 0
2129 1 2.3214203186161138e+00 9.3632820784601520e+00 3.6238065723064452e+01 3 3 0
6082 1 1.1884353214631941e+01 9.6279186539676935e+00 3.6354600227500526e+01 -1 0 0
4620 1 4.6655462627975242e+00 8.0911103770414901e+00 3.5859976675791501e+01 2 1 0
5237 1 4.9033909888640403e+00 1.3836943818946237e-01 3.6054712232433666e+01 0 0 -1
2116 1 1.2023435946993860e+01 4.0645086970239577e+00 3.5720073514285531e+01 3 0 0
173 1 1.2178396733088039e+01 1.4153195446174196e+00 3.6056024859317581e+01 0 -2 -1
4602 1 2.3773612901052537e+00 1.5949020949809483e+00 3.9104956021827604e+01 3 -2 0
4459 1 7.2212986951574925e+00 1.7408293404791682e+00 3.9000856348062499e+01 4 -1 0
3267 1 7.4625408201352981e+00 4.3089203669275644e+00 3.9917129300676486e+01 -1 2 -1
6002 1 9.5284622673611228e+00 7.9626881787074248e+00 4.2623154499088301e+01 3 -1 0
5226 1 5.0305486483956168e+00 8.3074223712215414e+00 4.2628722491867514e+01 -1 1 -1
3417 1 1.1609430860484427e+01 1.7350944784811404e+00 4.3074113431692162e+01 0 5 -1
1473 1 2.5108197034703736e+00 4.3770815838227692e+00 3.9240733387250430e+01 -1 3 0
1290 1 5.1953129239883538e+00 5.6383283256354000e+00 3.9054107835066631e+01 2 1 0
2057 1 9.8301834217761339e+00 5.4444071514407524e+00 3.9051045405362593e+01 2 0 0
1592 1 5.3739310017710828e-01 2.4750694204209805e-01 4.2356830085820441e+01 0 -1 0
451 1 2.4824791448574843e+00 9.2441239511553732e+00 3.8943364775945660e+01 2 0 0
1785 1 4.9346535266989475e+00 8.3086391958336563e+00 4.0082880303716458e+01 2 3 -1
5235 1 7.3816282091750534e+00 9.2684745595574274e+00 3.9027371622014840e+01 3 2 0
3624 1 2.1987415784501410e-01 1.7219356759096338e-01 3.9510329505484457e+01 2 -1 -1
3124 1 9.7662241777684109e+00 8.1739287772767444e+00 4.0103994672740747e+01 1 1 0
6200 1 2.7970947302388285e+00 1.7481099568597067e+00 4.3277086928682508e+01 5 3 -1
3613 1 2.3920534474529007e+00 1.1869385351028692e+01 3.9905370273707831e+01 2 0 -1
497 1 7.3475187282090735e+00 9.8007344055312071e+00 4.3299757883818494e+01 0 1 0
1874 1 7.2439075629288023e+00 1.4752088988868712e+00 4.3057844624361891e+01 -1 -2 -1
4723 1 7.6870982161206172e+00 4.3076524156538696e+00 4.2613300616090370e+01 1 3 0
1762 1 1.1906445443932132e+01 9.3837163047794689e+00 4.3116891118441281e+01 0 3 -1
4425 1 4.8685360980055323e+00 3.5439631967118296e-01 3.9075437301373192e+01 -1 -2 0
3307 1 2.7525731521024999e+00 4.2853910165481812e+00 4.2294673414635582e+01 2 2 -1
278 1 1.2087581472502848e+01 1.3186604443875189e+00 3.8830587082104302e+01 -3 3 -1
4501 1 5.2452257739702652e+00 5.7746651625915293e+00 4.3163531135038220e+01 2 2 -1
2937 1 4.0814132508609197e-01 8.4744449868165042e+00 4.2656493544629122e+01 2 1 0
4900 1 9.8477481240760341e+00 5.5020038065108388e+00 4.3494989454160269e+01 -1 0 -1
299 1 2.7901949075004664e+00 9.6653140683452481e+00 4.3312730017874024e+01 1 1 -1
3245 1 1.1926122813383939e+01 4.3189368767789889e+00 4.2385758549701102e+01 3 0 -1
3198 1 1.2209265179329142e+01 3.9349451484870341e+00 3.9736122736201658e+01 -2 1 -1
6175 1 4.8887140947804575e+00 1.1630345105251948e-01 4.2238450014007562e+01 -1 2 0
2114 1 2.3349950586387688e-01 8.1165503086045803e+00 4.0121164918830864e+01 -2 1 0
4560 1 4.8144056629488097e-01 5.5300956747786545e+00 4.2896097155058129e+01 1 -1 0
1484 1 1.1962548948253595e+01 9.5261349833505413e+00 3.9158426964191079e+01 2 0 -1
4604 1 7.1250214291603093e+00 1.2012807837042736e+01 3.9541347746791089e+01 -1 3 0
4706 1 1.0350329546987624e-01 5.6537051197611010e+00 3.9541966465927558e+01 -3 0 -1
1780 1 2.8849817874912977e+00 1.6523041604427195e+00 4.6052222918923789e+01 2 3 -1
298 1 2.9664143620827288e-01 5.7315408820046647e+00 4.5712742156425335e+01 0 0 0
4547 1 4.9248345418503305e+00 3.2970511062144396e+00 4.6882306909927166e+01 5 2 0
1623 1 7.2015429802749349e+00 1.8362384437807220e+00 4.6073104088089153e+01 0 -2 -1
3340 1 1.1687739286240568e+01 1.7816074845380898e+00 4.6062416115887352e+01 -2 0 -1
3065 1 9.4727186829071357e+00 2.8805658166121750e+00 4.7207837120163113e+01 2 2 0
2976 1 2.3968186968757585e+00 7.0504189831898305e+00 4.6500125635109129e+01 0 4 0
4653 1 9.3232705771906907e+00 8.5033363006379634e+00 5.0537637848624129e+01 -3 -1 0
2969 1 4.6663605544053963e+00 6.0061426900489687e+00 4.5809523444398003e+01 1 0 0
1945 1 6.8925430519398958e+00 7.0704375714977736e+00 4.7026211922005906e+01 0 1 -1
1502 1 9.3253099943872719e+00 5.6619306927029278e+00 4.6290510994394474e+01 2 0 -1
2998 1 1.1640043463881403e+01 7.0353310465618275e+00 4.6927222415722511e+01 -1 0 0
498 1 2.8485851020725184e+00 9.6514622461416977e+00 4.5842721380591037e+01 -2 -1 0
3301 1 4.2037986619617451e-01 8.4919133650803484e+00 5.0168334989280481e+01 2 2 0
4718 1 7.3174478586128480e+00 9.5504602928006435e+00 4.6036121895726104e+01 0 -1 -1