LAMMPS data file via write_data, version 16 Mar 2018, timestep = 100000

6337 atoms
2 atom types

0.0000000000000000e+00 4.9219999999999999e+01 xlo xhi
0.0000000000000000e+00 4.9019635930410494e+01 ylo yhi
2.4532791895173176e+00 5.7608720810480861e+01 zlo zhi

Masses

1 18.015
2 12.01

Atoms # atomic

4949 1 3.1648547836905050e+00 2.6828825598495598e+00 2.4740468023929676e+00 1 0 0
1680 1 5.9394715879756816e+00 7.1930218451030150e+00 2.4851224413399771e+00 0 0 0
1900 1 3.3534092987177559e+00 1.1917750353641871e+01 9.0387309476251012e+00 0 0 0
95 1 5.9628345915973116e+00 3.2173650195960994e+00 3.7325118017204688e+00 0 0 0
5127 1 7.9117418433394064e+00 7.1608504821770111e+00 8.2172712890456907e+00 0 0 0
4683 1 8.3079981052404417e+00 1.0390084060377749e+01 7.3142970096278832e+00 0 0 1
1259 1 1.3608320395880407e+00 6.0671720956647208e+00 4.2937341262391326e+00 0 1 1
4961 1 1.1522944672802884e+01 1.0015740564642741e+00 5.9034557068155831e+00 1 0 0
3427 1 7.0012830061904188e+00 5.7019766156646767e+00 4.6060658512022332e+00 0 0 0
2979 1 2.4399522082759777e+00 9.6516150376065379e+00 7.7399017752678549e+00 0 1 0
502 1 9.6875190561215714e+00 6.1518268143636616e+00 5.0526435097936853e+00 0 1 1
3422 1 6.2980939088434642e+00 1.1970318805182925e+01 6.4380339741669470e+00 -1 1 0
4752 1 4.3588738110657639e+00 9.0484805902657026e+00 5.9145295519258152e+00 1 1 1
1741 1 3.3804814810041148e+00 8.1011196102001790e+00 3.5052516288311688e+00 0 -1 0
6300 1 9.8744305417534246e+00 4.7260126672671259e+00 7.4840493744679577e+00 1 0 1
1612 1 6.2192771668258535e+00 1.0322165940395113e+01 4.1014093911164045e+00 0 1 1
2073 1 1.0618655470160160e+01 1.1809581733996984e+01 8.4945112879427072e+00 1 0 0
3341 1 8.6492106051542130e+00 8.9917954550822170e+00 4.7155524896029490e+00 0 1 1
188 1 4.8516511778885549e+00 1.8825979060999218e+00 8.7038371892980280e+00 -1 0 0
3498 1 1.8916934225830415e+00 3.4884603247570642e+00 4.8791988461421827e+00 1 0 0
4995 1 8.0031124921368537e+00 9.9762012208596851e-01 5.2769826420503421e+00 1 1 0
3706 1 4.3491499964177294e+00 2.2940805379931706e+00 5.8026494048439288e+00 0 1 1
3138 1 1.0719272888557030e+00 3.5523567153525990e+00 7.7840336788955513e+00 0 0 1
5071 1 9.4779675692763821e+00 1.9869795359513216e+00 7.5387661144006550e+00 0 1 0
3363 1 1.0968255038308826e+01 1.1444225124081697e+01 4.6785870949535031e+00 0 0 0
3456 1 3.8626038432529808e+00 4.7143631764510712e+00 7.9997053427307288e+00 1 0 0
4791 1 5.8004509704952039e+00 6.6271013576721556e+00 6.8736512893749664e+00 1 0 1
4733 1 1.1329991826244022e+01 5.1822331342137247e+00 2.8712635314893302e+00 1 1 0
1257 1 1.2054878622557554e+01 5.4831599616943505e+00 8.7148025060601704e+00 0 1 1
5031 1 3.4490681535600054e-01 9.5984838305016265e+00 6.1838032506202243e+00 1 0 0
495 1 1.2244507428731081e+01 2.7329990070880461e+00 3.8703716731447280e+00 0 0 1
6252 1 1.2222059584060666e+01 7.7786663971164716e+00 7.2389157954475820e+00 0 1 1
1833 1 3.0522134306963009e+00 2.6975812707564151e+00 1.0837287154084677e+01 0 1 0
389 1 1.1692668356396373e+01 8.4052856766290720e+00 1.5422865284790504e+01 1 0 0
6001 1 3.3709529447324804e-01 2.6510343669427527e+00 1.4021371162758529e+01 1 1 1
1988 1 9.7843533169296570e+00 3.1811442094364577e+00 1.0658629441529827e+01 0 0 0
3299 1 2.5119990829276886e+00 8.4627218439011447e+00 1.5023780746234685e+01 1 0 0
1555 1 3.1545278695402166e+00 5.8946031020095244e+00 1.0708341111099200e+01 1 0 1
220 1 4.0933644437124102e+00 9.7384473226024859e+00 1.3121226636111208e+01 0 1 1
4945 1 8.8466428742450116e+00 5.8421260895829343e+00 1.0601050309287992e+01 0 0 0
1843 1 7.5196899510038007e+00 1.4929313448810646e+00 1.0092108897207851e+01 0 0 0
6249 1 6.0757650152026947e+00 1.1809859122238302e+01 9.3635093385741204e+00 1 0 1
3061 1 8.8574238212627794e+00 8.0774478353012693e+00 1.4504572370795099e+01 0 0 1
5275 1 9.7373600807757992e+00 8.5256161257436016e+00 1.1750805035009591e+01 0 0 0
3151 1 1.6752494132746458e+00 7.5977521670203796e+00 9.4494750270346550e+00 0 0 1
3326 1 2.4931934252949239e+00 1.1171065856072492e+01 1.1450103317770886e+01 1 1 0
1893 1 7.1827522682138829e+00 9.3806154902763108e+00 1.0006558639839110e+01 1 -1 0
2837 1 2.2187645672087553e-01 3.2831248229745809e+00 1.0761328058361920e+01 0 0 1
3157 1 1.2014258228976422e+01 5.6718586044297865e+00 1.5722786364179980e+01 0 1 1
4931 1 9.7704817723616770e+00 1.1288463867621189e+01 1.1331036859701197e+01 0 0 0
3339 1 5.1049106602799235e+00 7.7995876683571339e+00 1.1338757460490729e+01 1 0 0
1299 1 2.7962320733078281e+00 4.2158720521179580e+00 1.5065663667848604e+01 1 0 0
6335 1 7.9965129341966446e+00 5.2577388563882463e+00 1.4434964038070760e+01 0 0 1
417 1 6.7220785218831223e+00 1.6078460065970024e+00 1.3006724661801607e+01 0 0 0
5131 1 1.0131701127929613e+01 3.6318328235861053e+00 1.5812951418424738e+01 0 1 0
168 1 9.2604212101387251e+00 2.3189272726538097e+00 1.3522064697522055e+01 1 1 1
4747 1 4.7198942841621836e+00 3.6205837397325458e+00 1.2757453178154810e+01 0 0 0
1714 1 1.9427539508514564e+00 6.4209415029244923e+00 1.3277928468052087e+01 0 0 0
1298 1 6.4864128919294268e+00 5.8749572014689866e+00 1.2121195109447115e+01 0 1 1
3574 1 8.7891203116791363e+00 1.2246644161784912e+01 1.3740344184127830e+01 0 0 0
4854 1 5.6394096626296948e+00 5.2818232153062574e+00 1.6150549388029251e+01 1 1 0
3372 1 1.1972355127562441e+01 6.8997522272609269e+00 1.1078204910482105e+01 0 0 0
352 1 6.1518710264382834e+00 1.1437366699321259e+01 1.4158501192992579e+01 0 0 1
396 1 8.9695306446503176e-01 8.9832770458558802e+00 1.1846408762276582e+01 -1 -1 0
3430 1 1.3353304551253220e+00 9.5806542772408250e+00 2.0028283038011050e+01 0 0 0
1942 1 8.7269908888788468e+00 2.3412018054680948e+00 1.7901413888443152e+01 0 1 0
1295 1 7.2761859226962333e-01 4.4348308574380617e+00 2.1459759600658057e+01 0 0 1
1635 1 1.1173352060020946e+01 9.1540508603141362e+00 2.0389699537189493e+01 0 1 1
1968 1 4.4064307310191335e+00 7.9019665539462043e+00 1.7036084600294050e+01 0 1 0
4799 1 4.4793607580052237e+00 3.1515870453072194e+00 1.9261605064373882e+01 0 1 0
406 1 1.1648628826807798e+01 1.0056547663497884e+01 1.7846247971524640e+01 0 0 0
148 1 8.3177357134320129e+00 1.0084730228857364e+01 2.1642138118545461e+01 0 1 0
3183 1 4.9817701214068562e+00 8.1473599428080608e+00 2.2540946940890546e+01 0 1 1
1380 1 1.2449899390229633e+00 9.1769217402826375e-01 1.7690154471417362e+01 1 1 1
2152 1 8.5845995208979655e+00 1.0729594123375511e+01 1.7671170876554704e+01 0 1 0
3113 1 9.3822373703983875e+00 7.2946652227029043e+00 2.0987155384788689e+01 0 0 0
120 1 1.0295725596490588e+00 1.4615245555169794e+00 2.0898815428170266e+01 1 0 1
1461 1 3.6492153135322769e+00 1.3603187093840967e+00 2.1395143677148216e+01 0 0 1
3241 1 2.1769080127724498e+00 5.8457905191576511e+00 1.7392869178213811e+01 1 0 0
1918 1 6.8899319481092380e+00 4.2329986641541240e+00 1.8554804263154487e+01 0 0 0
312 1 1.0529310196431140e+01 2.0821932791884250e+00 2.0037987717587932e+01 1 0 0
1602 1 5.7659076246973138e+00 1.2012219746816543e+01 1.6943636483099674e+01 0 1 1
3491 1 1.8535336056436640e+00 7.5390951331600791e+00 2.2033831223490555e+01 1 0 1
408 1 3.0956130487912081e+00 5.4175278136969549e+00 1.9989604943514522e+01 0 0 0
5145 1 5.4932206672313013e+00 1.0458455825286979e+01 2.1363378116104876e+01 1 1 1
326 1 7.7850292162851096e+00 6.9920930229619849e+00 1.8422775466925017e+01 0 0 1
317 1 1.0703386164793779e+01 4.8070826998480829e+00 2.1401401886996233e+01 0 -1 1
319 1 5.1623377023458605e+00 7.0814887198903422e+00 1.9919898274408808e+01 0 0 0
345 1 4.0743389812612607e+00 1.0150481906729251e+01 1.8925701402911400e+01 0 1 0
444 1 3.4832427438512710e+00 2.2151041987816771e+00 1.6876909503308255e+01 0 1 0
6268 1 1.1767286060619281e+01 1.1823628371135641e+01 2.1682510927341482e+01 0 0 0
3533 1 1.7911871773540036e-01 1.2022743398364334e+01 2.1450837153096217e+01 1 0 0
3570 1 2.7408698237117335e-01 3.3102775899881114e+00 1.7292335778751522e+01 2 1 0
1759 1 7.5533384815607727e+00 9.2523553644177525e-02 1.7258798308210061e+01 0 1 0
1752 1 6.9148089329250260e+00 8.9757177647186346e+00 1.6478033904658378e+01 0 0 0
1597 1 4.4224271654038354e+00 4.1779608927362863e+00 2.3968335473581355e+01 0 0 0
1740 1 6.6122983058307749e-01 1.7394600904725082e+00 2.3895474553314077e+01 0 0 0
138 1 7.0065513823530505e+00 7.9752122964287397e-01 2.4186809994783104e+01 0 1 0
5021 1 1.0206685099292548e+01 3.8690070598248338e+00 2.3884603525712784e+01 1 1 0
3396 1 1.1566524514774589e+01 1.0874922534810969e+01 2.4471210874365703e+01 1 -1 0
297 1 3.5516339832618784e+00 1.5649491635065587e+00 2.4221631849114019e+01 -1 0 0
246 1 6.4160116578848250e+00 6.3184307560357134e+00 2.4275200579168388e+01 0 0 0
4690 1 1.1424907005057953e+01 6.6218145069579384e+00 2.4567769059675719e+01 -1 -1 1
11 1 9.0250872966247098e+00 7.1895937816895001e+00 2.3799226553724221e+01 0 1 0
1397 1 2.4886564304339318e+00 5.9775214336472988e+00 2.4495906000318758e+01 0 0 0
4434 1 7.3495713353382266e+00 3.3982783332357909e+00 2.3871632068701850e+01 0 1 1
1542 1 6.5846925685274655e+00 1.1605302561818513e+01 2.4221603121996548e+01 0 0 1
3382 1 9.0370575742233008e+00 9.7292151478539868e+00 2.4304170069898035e+01 1 0 1
554 2 0.0000000000000000e+00 2.8417180249513345e+00 2.6854768482950288e+01 0 0 0
556 2 0.0000000000000000e+00 0.0000000000000000e+00 2.6854768482950288e+01 0 0 0
558 2 1.2305000000000001e+00 7.1042950623783474e-01 2.6854768482950288e+01 0 0 0
565 2 1.2305000000000001e+00 2.1312885187134998e+00 2.6854768482950288e+01 0 0 0
567 2 2.4610000000000003e+00 2.8417180249513345e+00 2.6854768482950288e+01 0 0 0
569 2 2.4610000000000003e+00 0.0000000000000000e+00 2.6854768482950288e+01 0 0 0
571 2 3.6915000000000004e+00 7.1042950623783474e-01 2.6854768482950288e+01 0 0 0
586 2 3.6914999999999996e+00 2.1312885187134998e+00 2.6854768482950288e+01 0 0 0
588 2 4.9220000000000006e+00 2.8417180249513332e+00 2.6854768482950288e+01 0 0 0
590 2 4.9220000000000006e+00 0.0000000000000000e+00 2.6854768482950288e+01 0 0 0
592 2 6.1524999999999999e+00 7.1042950623783407e-01 2.6854768482950288e+01 0 0 0
615 2 6.1524999999999999e+00 2.1312885187134989e+00 2.6854768482950288e+01 0 0 0
617 2 7.3829999999999991e+00 2.8417180249513345e+00 2.6854768482950288e+01 0 0 0
619 2 7.3829999999999991e+00 0.0000000000000000e+00 2.6854768482950288e+01 0 0 0
621 2 8.6134999999999984e+00 7.1042950623783407e-01 2.6854768482950288e+01 0 0 0
652 2 8.6134999999999984e+00 2.1312885187135002e+00 2.6854768482950288e+01 0 0 0
654 2 9.8440000000000012e+00 2.8417180249513332e+00 2.6854768482950288e+01 0 0 0
656 2 9.8440000000000012e+00 0.0000000000000000e+00 2.6854768482950288e+01 0 0 0
658 2 1.1074500000000002e+01 7.1042950623783330e-01 2.6854768482950288e+01 0 0 0
697 2 1.1074500000000002e+01 2.1312885187135002e+00 2.6854768482950288e+01 0 0 0
561 2 0.0000000000000000e+00 4.2625770374269996e+00 2.6854768482950288e+01 0 0 0
563 2 1.2305000000000001e+00 4.9730065436648339e+00 2.6854768482950288e+01 0 0 0
578 2 1.2305000000000001e+00 6.3938655561404980e+00 2.6854768482950288e+01 0 0 0
582 2 2.4610000000000003e+00 4.2625770374269996e+00 2.6854768482950288e+01 0 0 0
584 2 3.6914999999999996e+00 4.9730065436648339e+00 2.6854768482950288e+01 0 0 0
607 2 3.6914999999999996e+00 6.3938655561404980e+00 2.6854768482950288e+01 0 0 0
559 2 0.0000000000000000e+00 7.1042950623783341e+00 2.6854768482950288e+01 0 0 0
580 2 2.4610000000000003e+00 7.1042950623783341e+00 2.6854768482950288e+01 0 0 0
611 2 4.9220000000000006e+00 4.2625770374269978e+00 2.6854768482950288e+01 0 0 0
613 2 6.1524999999999999e+00 4.9730065436648339e+00 2.6854768482950288e+01 0 0 0
644 2 6.1524999999999999e+00 6.3938655561404980e+00 2.6854768482950288e+01 0 0 0
648 2 7.3829999999999991e+00 4.2625770374269996e+00 2.6854768482950288e+01 0 0 0
609 2 4.9220000000000006e+00 7.1042950623783341e+00 2.6854768482950288e+01 0 0 0
646 2 7.3830000000000009e+00 7.1042950623783341e+00 2.6854768482950288e+01 0 0 0
650 2 8.6135000000000002e+00 4.9730065436648339e+00 2.6854768482950288e+01 0 0 0
689 2 8.6135000000000002e+00 6.3938655561404980e+00 2.6854768482950288e+01 0 0 0
693 2 9.8440000000000012e+00 4.2625770374270004e+00 2.6854768482950288e+01 0 0 0
695 2 1.1074500000000002e+01 4.9730065436648339e+00 2.6854768482950288e+01 0 0 0
736 2 1.1074500000000002e+01 6.3938655561404980e+00 2.6854768482950288e+01 0 0 0
691 2 9.8440000000000012e+00 7.1042950623783341e+00 2.6854768482950288e+01 0 0 0
574 2 0.0000000000000000e+00 8.5251540748539991e+00 2.6854768482950288e+01 0 0 0
576 2 1.2305000000000001e+00 9.2355835810918343e+00 2.6854768482950288e+01 0 0 0
603 2 2.4610000000000003e+00 8.5251540748539991e+00 2.6854768482950288e+01 0 0 0
605 2 3.6915000000000004e+00 9.2355835810918343e+00 2.6854768482950288e+01 0 0 0
572 2 0.0000000000000000e+00 1.1366872099805333e+01 2.6854768482950288e+01 0 0 0
599 2 1.2305000000000001e+00 1.0656442593567498e+01 2.6854768482950288e+01 0 0 0
601 2 2.4610000000000003e+00 1.1366872099805333e+01 2.6854768482950288e+01 0 0 0
636 2 3.6914999999999996e+00 1.0656442593567499e+01 2.6854768482950288e+01 0 0 0
640 2 4.9220000000000006e+00 8.5251540748539991e+00 2.6854768482950288e+01 0 0 0
642 2 6.1524999999999999e+00 9.2355835810918343e+00 2.6854768482950288e+01 0 0 0
685 2 7.3830000000000009e+00 8.5251540748539991e+00 2.6854768482950288e+01 0 0 0
638 2 4.9220000000000006e+00 1.1366872099805333e+01 2.6854768482950288e+01 0 0 0
681 2 6.1524999999999999e+00 1.0656442593567499e+01 2.6854768482950288e+01 0 0 0
683 2 7.3829999999999991e+00 1.1366872099805333e+01 2.6854768482950288e+01 0 0 0
687 2 8.6134999999999984e+00 9.2355835810918343e+00 2.6854768482950288e+01 0 0 0
730 2 9.8440000000000012e+00 1.1366872099805333e+01 2.6854768482950288e+01 0 0 0
775 2 1.1074500000000002e+01 1.0656442593567498e+01 2.6854768482950288e+01 0 0 0
732 2 9.8440000000000012e+00 8.5251540748539956e+00 2.6854768482950288e+01 0 0 0
777 2 1.2304999999999998e+01 1.1366872099805333e+01 2.6854768482950288e+01 0 0 0
734 2 1.1074500000000002e+01 9.2355835810918343e+00 2.6854768482950288e+01 0 0 0
728 2 8.6134999999999984e+00 1.0656442593567498e+01 2.6854768482950288e+01 0 0 0
1898 1 1.8025739948467051e-01 4.5164042715982236e+00 2.4351620991558647e+01 0 1 0
1679 1 1.2021599292599401e+01 1.5415955198028897e+00 2.4533638963879106e+01 0 1 1
224 1 4.6329121183179854e-02 1.1933437550875977e+01 2.4330634167293105e+01 0 1 0
555 2 0.0000000000000000e+00 1.4208590124756650e+00 3.0030999999999125e+01 0 0 0
557 2 0.0000000000000000e+00 0.0000000000000000e+00 3.0030999999999125e+01 0 0 0
566 2 1.2305000000000001e+00 2.1312885187134998e+00 3.0030999999999125e+01 0 0 0
568 2 2.4610000000000003e+00 1.4208590124756650e+00 3.0030999999999125e+01 0 0 0
570 2 2.4610000000000003e+00 0.0000000000000000e+00 3.0030999999999125e+01 0 0 0
587 2 3.6914999999999996e+00 2.1312885187134998e+00 3.0030999999999125e+01 0 0 0
564 2 1.2305000000000001e+00 3.5521475311891644e+00 3.0030999999999125e+01 0 0 0
585 2 3.6914999999999996e+00 3.5521475311891644e+00 3.0030999999999125e+01 0 0 0
883 2 0.0000000000000000e+00 2.8417180249513345e+00 3.3207231517044804e+01 0 0 0
884 2 0.0000000000000000e+00 0.0000000000000000e+00 3.3207231517044804e+01 0 0 0
885 2 1.2305000000000001e+00 7.1042950623783474e-01 3.3207231517044804e+01 0 0 0
889 2 1.2305000000000001e+00 2.1312885187134998e+00 3.3207231517044804e+01 0 0 0
890 2 2.4610000000000003e+00 2.8417180249513345e+00 3.3207231517044804e+01 0 0 0
891 2 2.4610000000000003e+00 0.0000000000000000e+00 3.3207231517044804e+01 0 0 0
892 2 3.6915000000000004e+00 7.1042950623783474e-01 3.3207231517044804e+01 0 0 0
900 2 3.6914999999999996e+00 2.1312885187134998e+00 3.3207231517044804e+01 0 0 0
589 2 4.9220000000000006e+00 1.4208590124756650e+00 3.0030999999999125e+01 0 0 0
591 2 4.9220000000000006e+00 0.0000000000000000e+00 3.0030999999999125e+01 0 0 0
616 2 6.1524999999999999e+00 2.1312885187134989e+00 3.0030999999999125e+01 0 0 0
618 2 7.3829999999999991e+00 1.4208590124756659e+00 3.0030999999999125e+01 0 0 0
620 2 7.3829999999999991e+00 0.0000000000000000e+00 3.0030999999999125e+01 0 0 0
614 2 6.1524999999999999e+00 3.5521475311891644e+00 3.0030999999999125e+01 0 0 0
901 2 4.9220000000000006e+00 2.8417180249513332e+00 3.3207231517044804e+01 0 0 0
902 2 4.9220000000000006e+00 0.0000000000000000e+00 3.3207231517044804e+01 0 0 0
903 2 6.1524999999999999e+00 7.1042950623783407e-01 3.3207231517044804e+01 0 0 0
915 2 6.1524999999999999e+00 2.1312885187134989e+00 3.3207231517044804e+01 0 0 0
916 2 7.3829999999999991e+00 2.8417180249513345e+00 3.3207231517044804e+01 0 0 0
917 2 7.3829999999999991e+00 0.0000000000000000e+00 3.3207231517044804e+01 0 0 0
653 2 8.6134999999999984e+00 2.1312885187135002e+00 3.0030999999999125e+01 0 0 0
655 2 9.8440000000000012e+00 1.4208590124756659e+00 3.0030999999999125e+01 0 0 0
657 2 9.8440000000000012e+00 0.0000000000000000e+00 3.0030999999999125e+01 0 0 0
698 2 1.1074500000000002e+01 2.1312885187135002e+00 3.0030999999999125e+01 0 0 0
651 2 8.6134999999999984e+00 3.5521475311891657e+00 3.0030999999999125e+01 0 0 0
696 2 1.1074500000000002e+01 3.5521475311891644e+00 3.0030999999999125e+01 0 0 0
918 2 8.6134999999999984e+00 7.1042950623783407e-01 3.3207231517044804e+01 0 0 0
934 2 8.6134999999999984e+00 2.1312885187135002e+00 3.3207231517044804e+01 0 0 0
935 2 9.8440000000000012e+00 2.8417180249513332e+00 3.3207231517044804e+01 0 0 0
936 2 9.8440000000000012e+00 0.0000000000000000e+00 3.3207231517044804e+01 0 0 0
937 2 1.1074500000000002e+01 7.1042950623783330e-01 3.3207231517044804e+01 0 0 0
957 2 1.1074500000000002e+01 2.1312885187135002e+00 3.3207231517044804e+01 0 0 0
560 2 0.0000000000000000e+00 5.6834360499026637e+00 3.0030999999999125e+01 0 0 0
562 2 0.0000000000000000e+00 4.2625770374269996e+00 3.0030999999999125e+01 0 0 0
579 2 1.2305000000000001e+00 6.3938655561404980e+00 3.0030999999999125e+01 0 0 0
581 2 2.4610000000000003e+00 5.6834360499026637e+00 3.0030999999999125e+01 0 0 0
583 2 2.4610000000000003e+00 4.2625770374269996e+00 3.0030999999999125e+01 0 0 0
608 2 3.6914999999999996e+00 6.3938655561404980e+00 3.0030999999999125e+01 0 0 0
577 2 1.2305000000000001e+00 7.8147245686161639e+00 3.0030999999999125e+01 0 0 0
606 2 3.6914999999999996e+00 7.8147245686161639e+00 3.0030999999999125e+01 0 0 0
887 2 0.0000000000000000e+00 4.2625770374269996e+00 3.3207231517044804e+01 0 0 0
888 2 1.2305000000000001e+00 4.9730065436648339e+00 3.3207231517044804e+01 0 0 0
896 2 1.2305000000000001e+00 6.3938655561404980e+00 3.3207231517044804e+01 0 0 0
898 2 2.4610000000000003e+00 4.2625770374269996e+00 3.3207231517044804e+01 0 0 0
899 2 3.6914999999999996e+00 4.9730065436648339e+00 3.3207231517044804e+01 0 0 0
911 2 3.6914999999999996e+00 6.3938655561404980e+00 3.3207231517044804e+01 0 0 0
886 2 0.0000000000000000e+00 7.1042950623783341e+00 3.3207231517044804e+01 0 0 0
897 2 2.4610000000000003e+00 7.1042950623783341e+00 3.3207231517044804e+01 0 0 0
610 2 4.9220000000000006e+00 5.6834360499026637e+00 3.0030999999999125e+01 0 0 0
612 2 4.9220000000000006e+00 4.2625770374269978e+00 3.0030999999999125e+01 0 0 0
645 2 6.1524999999999999e+00 6.3938655561404980e+00 3.0030999999999125e+01 0 0 0
647 2 7.3829999999999991e+00 5.6834360499026637e+00 3.0030999999999125e+01 0 0 0
649 2 7.3829999999999991e+00 4.2625770374269996e+00 3.0030999999999125e+01 0 0 0
643 2 6.1524999999999999e+00 7.8147245686161639e+00 3.0030999999999125e+01 0 0 0
913 2 4.9220000000000006e+00 4.2625770374269978e+00 3.3207231517044804e+01 0 0 0
914 2 6.1524999999999999e+00 4.9730065436648339e+00 3.3207231517044804e+01 0 0 0
930 2 6.1524999999999999e+00 6.3938655561404980e+00 3.3207231517044804e+01 0 0 0
932 2 7.3829999999999991e+00 4.2625770374269996e+00 3.3207231517044804e+01 0 0 0
912 2 4.9220000000000006e+00 7.1042950623783341e+00 3.3207231517044804e+01 0 0 0
931 2 7.3830000000000009e+00 7.1042950623783341e+00 3.3207231517044804e+01 0 0 0
690 2 8.6135000000000002e+00 6.3938655561404980e+00 3.0030999999999125e+01 0 0 0
692 2 9.8440000000000012e+00 5.6834360499026637e+00 3.0030999999999125e+01 0 0 0
694 2 9.8440000000000012e+00 4.2625770374270004e+00 3.0030999999999125e+01 0 0 0
737 2 1.1074500000000002e+01 6.3938655561404980e+00 3.0030999999999125e+01 0 0 0
688 2 8.6135000000000002e+00 7.8147245686161639e+00 3.0030999999999125e+01 0 0 0
735 2 1.1074500000000002e+01 7.8147245686161639e+00 3.0030999999999125e+01 0 0 0
933 2 8.6135000000000002e+00 4.9730065436648339e+00 3.3207231517044804e+01 0 0 0
953 2 8.6135000000000002e+00 6.3938655561404980e+00 3.3207231517044804e+01 0 0 0
955 2 9.8440000000000012e+00 4.2625770374270004e+00 3.3207231517044804e+01 0 0 0
956 2 1.1074500000000002e+01 4.9730065436648339e+00 3.3207231517044804e+01 0 0 0
977 2 1.1074500000000002e+01 6.3938655561404980e+00 3.3207231517044804e+01 0 0 0
954 2 9.8440000000000012e+00 7.1042950623783341e+00 3.3207231517044804e+01 0 0 0
573 2 0.0000000000000000e+00 9.9460130873296642e+00 3.0030999999999125e+01 0 0 0
575 2 0.0000000000000000e+00 8.5251540748539991e+00 3.0030999999999125e+01 0 0 0
602 2 2.4610000000000003e+00 9.9460130873296642e+00 3.0030999999999125e+01 0 0 0
604 2 2.4610000000000003e+00 8.5251540748539991e+00 3.0030999999999125e+01 0 0 0
598 2 1.2305000000000001e+00 1.2077301606043163e+01 3.0030999999999125e+01 0 0 0
600 2 1.2305000000000001e+00 1.0656442593567498e+01 3.0030999999999125e+01 0 0 0
635 2 3.6914999999999996e+00 1.2077301606043163e+01 3.0030999999999125e+01 0 0 0
637 2 3.6914999999999996e+00 1.0656442593567499e+01 3.0030999999999125e+01 0 0 0
894 2 0.0000000000000000e+00 8.5251540748539991e+00 3.3207231517044804e+01 0 0 0
895 2 1.2305000000000001e+00 9.2355835810918343e+00 3.3207231517044804e+01 0 0 0
909 2 2.4610000000000003e+00 8.5251540748539991e+00 3.3207231517044804e+01 0 0 0
910 2 3.6915000000000004e+00 9.2355835810918343e+00 3.3207231517044804e+01 0 0 0
893 2 0.0000000000000000e+00 1.1366872099805333e+01 3.3207231517044804e+01 0 0 0
907 2 1.2305000000000001e+00 1.0656442593567498e+01 3.3207231517044804e+01 0 0 0
908 2 2.4610000000000003e+00 1.1366872099805333e+01 3.3207231517044804e+01 0 0 0
926 2 3.6914999999999996e+00 1.0656442593567499e+01 3.3207231517044804e+01 0 0 0
639 2 4.9220000000000006e+00 9.9460130873296642e+00 3.0030999999999125e+01 0 0 0
641 2 4.9220000000000006e+00 8.5251540748539991e+00 3.0030999999999125e+01 0 0 0
684 2 7.3830000000000009e+00 9.9460130873296642e+00 3.0030999999999125e+01 0 0 0
686 2 7.3830000000000009e+00 8.5251540748539991e+00 3.0030999999999125e+01 0 0 0
680 2 6.1524999999999999e+00 1.2077301606043163e+01 3.0030999999999125e+01 0 0 0
682 2 6.1524999999999999e+00 1.0656442593567499e+01 3.0030999999999125e+01 0 0 0
928 2 4.9220000000000006e+00 8.5251540748539991e+00 3.3207231517044804e+01 0 0 0
929 2 6.1524999999999999e+00 9.2355835810918343e+00 3.3207231517044804e+01 0 0 0
951 2 7.3830000000000009e+00 8.5251540748539991e+00 3.3207231517044804e+01 0 0 0
927 2 4.9220000000000006e+00 1.1366872099805333e+01 3.3207231517044804e+01 0 0 0
949 2 6.1524999999999999e+00 1.0656442593567499e+01 3.3207231517044804e+01 0 0 0
950 2 7.3829999999999991e+00 1.1366872099805333e+01 3.3207231517044804e+01 0 0 0
731 2 9.8440000000000012e+00 9.9460130873296642e+00 3.0030999999999125e+01 0 0 0
733 2 9.8440000000000012e+00 8.5251540748539956e+00 3.0030999999999125e+01 0 0 0
727 2 8.6135000000000002e+00 1.2077301606043163e+01 3.0030999999999125e+01 0 0 0
729 2 8.6134999999999984e+00 1.0656442593567498e+01 3.0030999999999125e+01 0 0 0
774 2 1.1074500000000002e+01 1.2077301606043163e+01 3.0030999999999125e+01 0 0 0
776 2 1.1074500000000002e+01 1.0656442593567498e+01 3.0030999999999125e+01 0 0 0
952 2 8.6134999999999984e+00 9.2355835810918343e+00 3.3207231517044804e+01 0 0 0
975 2 9.8440000000000012e+00 8.5251540748539956e+00 3.3207231517044804e+01 0 0 0
976 2 1.1074500000000002e+01 9.2355835810918343e+00 3.3207231517044804e+01 0 0 0
973 2 8.6134999999999984e+00 1.0656442593567498e+01 3.3207231517044804e+01 0 0 0
974 2 9.8440000000000012e+00 1.1366872099805333e+01 3.3207231517044804e+01 0 0 0
997 2 1.1074500000000002e+01 1.0656442593567498e+01 3.3207231517044804e+01 0 0 0
998 2 1.2304999999999998e+01 1.1366872099805333e+01 3.3207231517044804e+01 0 0 0
1501 1 1.2569394217231291e+00 5.5592705704886258e+00 3.6070822174070003e+01 0 0 -1
6320 1 3.1975196997866280e+00 2.4445772432573616e+00 3.6190282375019677e+01 1 1 0
5999 1 3.3993073935148224e+00 1.1276858894645374e+01 3.6447446846942050e+01 0 -1 0
6178 1 7.9611202416049585e+00 1.1324508534089048e+01 3.6120135949458906e+01 1 0 0
5994 1 1.0875030832145681e+01 1.2069686718416648e+01 3.6020808114685209e+01 0 0 0
262 1 4.6028938738696352e+00 6.8195405032498019e-02 3.5960604284043150e+01 0 0 -1
1544 1 5.6046092181575649e+00 9.3975584304983926e+00 3.5792173962772956e+01 0 1 0
5271 1 3.9485683846722033e+00 6.8362472041848807e+00 3.6341488990863567e+01 0 1 0
1286 1 2.6685792168915162e-01 2.7553110157611216e+00 3.5478929352356907e+01 1 0 0
2829 1 1.1046539117126491e+01 5.6279102444629441e+00 3.6515741932198551e+01 1 0 0
4592 1 9.9602685430191222e+00 2.4012110469185446e+00 3.5699944940655826e+01 1 1 0
521 1 7.5487872405673757e+00 4.4732704389498021e+00 3.5940939766705185e+01 0 -1 0
2057 1 6.6844794089179960e-01 1.0967509571644193e+01 3.5868275844178214e+01 1 0 0
4662 1 8.5927178908895279e+00 7.0834826970637348e+00 3.6100803204869443e+01 0 1 0
2096 1 9.6329972222537616e+00 8.8447106362247165e+00 4.3159434523935843e+01 0 1 0
2130 1 2.9949151233570874e+00 2.9862328909012605e+00 3.9126957173358434e+01 1 1 0
6146 1 8.6391258701131530e+00 5.4511319024243781e+00 3.9561684421853855e+01 0 0 0
4547 1 1.1537805106466847e+01 1.9009659380928572e+00 4.0129464029191631e+01 1 0 0
3687 1 5.2278138864097752e+00 4.5900299156711961e+00 3.7150783111699738e+01 0 0 0
143 1 1.1277033403960186e+01 1.0618930070441548e+01 3.8533842687722171e+01 0 0 -1
4843 1 1.2079452841192608e+00 8.1965660274527998e+00 3.8761990142419982e+01 0 0 -1
4994 1 3.1454703252840455e+00 5.5725853706723409e+00 4.0371346097181110e+01 1 1 -1
1608 1 9.4746599101047497e+00 7.9307417174000339e+00 3.8607099914210259e+01 0 0 0
6101 1 5.9898522257282920e+00 6.0331865160515452e+00 3.9588020956654276e+01 1 1 -1
4440 1 9.0734396218538560e+00 2.8672985541045817e+00 3.8403531743977446e+01 1 1 -1
6247 1 1.1939760098352687e+01 4.4232175229449817e+00 3.8870581116069168e+01 0 -1 -1
6200 1 7.6610041533012785e+00 2.6240403174632360e-01 3.9124453567722156e+01 1 0 -1
492 1 3.7818319473598261e+00 9.6154810393390644e+00 3.9382520321136994e+01 0 0 0
272 1 1.1860641299466332e+00 1.2053440621251424e+01 4.0440317504695138e+01 0 0 -1
2955 1 6.3896786595643933e+00 1.1735297244490656e+01 4.1138156901634567e+01 -1 0 0
479 1 7.8822538635639354e+00 1.0459675844956987e+01 3.8776683418644282e+01 0 0 -1
2914 1 4.1212043520721657e+00 3.7496058323556531e+00 4.2870413404824255e+01 0 1 0
4715 1 6.4524380399104500e+00 5.5550025993884473e+00 4.2335668469324382e+01 1 1 0
4490 1 1.1660973325950348e+00 4.6987382573280341e+00 4.2554728838043779e+01 1 2 0
3063 1 4.3321023350029861e+00 9.9201379293353256e+00 4.2343132230777016e+01 0 1 0
3114 1 6.1107131691047432e+00 8.3667851159716697e+00 3.8348312235219893e+01 0 1 -1
3711 1 9.3163989682769799e+00 1.0932562554891454e+01 4.1315259280720866e+01 0 1 0
5974 1 4.2036636573141473e-01 5.4021964696223064e+00 3.8855440483853748e+01 1 1 0
1571 1 1.6820573818300379e+00 1.0900690861446721e+01 4.2920819881394941e+01 0 0 -1
4712 1 9.2590832062022468e+00 6.1258718455860492e+00 4.2502509708722549e+01 0 0 0
2028 1 2.0057573651165566e+00 6.7033015153654518e-01 4.1283618355251171e+01 0 0 0
5292 1 1.1125724833986146e+01 1.4214637787290294e+00 4.2849300407258269e+01 0 0 0
1532 1 4.8143288844312524e+00 7.2337992149749497e-01 3.8888339218889875e+01 0 0 0
4499 1 5.2161589608922547e+00 7.6009101355163065e+00 4.3711936618531070e+01 0 1 0
506 1 4.4177368469804024e-01 1.8678223291507956e+00 3.8749749415941743e+01 0 -1 0
1804 1 1.1644118368132942e+01 6.1400245876719621e+00 4.1049095607147933e+01 1 0 0
4609 1 7.3294245407548964e+00 1.5809378692976747e-01 4.3550411128888022e+01 1 0 0
2019 1 9.4552704347442473e-01 3.6906999601845421e+00 4.6927186997242963e+01 0 0 -1
4757 1 6.6958988562466653e+00 2.9366021472444479e+00 4.4300516292086876e+01 1 0 -1
5328 1 1.2065697629319528e+01 9.2864139910947490e+00 4.4647603543277860e+01 0 1 -1
6148 1 4.5138443413718230e+00 1.1773000746334841e+01 4.8447445711341480e+01 0 0 -1
1458 1 5.8716284230921145e+00 3.0211468372679970e+00 4.7092097276584752e+01 1 1 0
1248 1 5.6243164973549948e+00 9.0993762214834106e+00 4.8366846155501683e+01 1 0 0
1510 1 1.1780095978119917e+01 3.2687087337115224e+00 4.6104049584504558e+01 -1 1 0
4866 1 1.3912757608352055e+00 6.6105652668323884e+00 4.6876235675756533e+01 1 1 -1
1457 1 8.1528638352292848e+00 5.2862051138888209e+00 4.6580994019053790e+01 0 0 0
3008 1 1.3342633114331157e+00 9.1093474584742431e+00 5.0178955960423643e+01 1 0 -1
5034 1 2.7538329368330663e+00 6.4406037260188986e+00 4.4528891416360906e+01 0 1 -1
1283 1 6.6166558910199145e+00 7.5022132746760199e+00 4.6021404058454642e+01 0 0 0
2945 1 8.7239697411993991e+00 9.6099336740415744e+00 4.5628337214874314e+01 1 0 -1
2003 1 1.8802062983240935e+00 1.1820298894283095e+01 4.9565406888965882e+01 0 0 0
3314 1 3.2652647321869828e+00 2.8155229623112157e+00 4.8225732043302791e+01 1 0 0
6217 1 8.3530138881891496e+00 1.9465770384369512e+00 4.8822015772977132e+01 1 1 0
2116 1 9.6388083463803973e+00 3.6910152138144436e+00 4.4448207730182268e+01 0 1 0
3494 1 1.0641828350206366e+01 9.2667831935278961e+00 4.7678698857693298e+01 0 0 -1
3701 1 1.0861290990146077e+01 1.4628422546691751e+00 4.7926162911433721e+01 0 0 -1
2991 1 8.6787731874345351e+00 1.0730007580717594e+01 4.9942245528248392e+01 -1 0 0
3081 1 1.0236858459524913e-02 1.5697425543354793e+00 4.5207376336962135e+01 0 0 -1
3148 1 3.2314007625565377e+00 7.6303633930017609e+00 4.8740529850009743e+01 1 0 -1
505 1 4.2063580490425396e+00 2.7605843606234398e-01 4.6155245891992678e+01 0 0 0
467 1 9.8681472755265105e+00 7.9319344823822098e+00 5.0116029912117369e+01 0 -1 0