
# Create simulation box and atoms

read_data data.ML_graphite_m1000atm_245K
  orthogonal box = (0 0 2.62195) to (49.22 49.0196 57.4401)
  4 by 4 by 8 MPI processor grid
  reading atoms ...
  6337 atoms
  reading velocities ...
  6337 velocities
group water type 1
3577 atoms in group water
group graphite type 2
2760 atoms in group graphite

# Define potential

pair_style sw
pair_coeff * * MLC_e.sw mW C


# Fix graphite atoms in place

fix 5 graphite setforce 0.0 0.0 0.0
velocity graphite set 0.0 0.0 0.0


# Equilibration of molecular water

# Add velocity/set timestep

velocity	    water create ${TEMP} ${SEED} rot yes dist gaussian
velocity	    water create 248 ${SEED} rot yes dist gaussian
velocity	    water create 248 30747 rot yes dist gaussian
timestep	    5.0

# Define output

compute			1 water msd
compute			3 water temp
thermo	    	50
thermo_style	custom step temp press vol etotal ke pe c_1[4] c_3

# Neighbor lists

neigh_modify    delay 0 every 1 check yes

# Set fixes

fix             1 water momentum 10 linear 1 1 1 rescale
fix             2 water nve
fix             3 water temp/csvr ${TEMP} ${TEMP} 500.0 ${SEED}
fix             3 water temp/csvr 248 ${TEMP} 500.0 ${SEED}
fix             3 water temp/csvr 248 248 500.0 ${SEED}
fix             3 water temp/csvr 248 248 500.0 30747
fix             4 water press/berendsen z ${PRES} ${PRES} 1000.0 modulus 20000
fix             4 water press/berendsen z -1000 ${PRES} 1000.0 modulus 20000
fix             4 water press/berendsen z -1000 -1000 1000.0 modulus 20000

# Run 0.5 ns equilibration

dump		    1 all atom 2000 ${DIR}/eq.${NAME}-${TEMP}.dump
dump		    1 all atom 2000 run_15/eq.${NAME}-${TEMP}.dump
dump		    1 all atom 2000 run_15/eq.het_freeze_15-${TEMP}.dump
dump		    1 all atom 2000 run_15/eq.het_freeze_15-248.dump

reset_timestep  0

run	            100000
Neighbor list info ...
  update every 1 steps, delay 0 steps, check yes
  max neighbors/atom: 2000, page size: 100000
  master list distance cutoff = 6.67472
  ghost atom cutoff = 6.67472
  binsize = 3.33736, bins = 15 15 17
  1 neighbor lists, perpetual/occasional/extra = 1 0 0
  (1) pair sw, perpetual
      attributes: full, newton on
      pair build: full/bin/atomonly
      stencil: full/bin/3d
      bin: standard
Per MPI rank memory allocation (min/avg/max) = 4.068 | 4.178 | 4.492 Mbytes
Step Temp Press Volume TotEng KinEng PotEng c_1[4] c_3 
       0     139.9697   -1056.0851     132262.2   -34085.323    2643.5254   -36728.848            0          248 
      50    142.01448   -1011.3563    132309.59   -34052.466     2682.144    -36734.61   0.49655815    251.62297 
     100     140.8319   -1314.4516    132406.39   -34048.574    2659.8093   -36708.383    0.8181132    249.52766 
     150    140.90301    -1074.619    132463.58   -34077.972    2661.1523   -36739.124    1.0093471    249.65365 
     200    140.51443    -1216.096    132588.57   -34048.156    2653.8136    -36701.97     1.181773    248.96517 
     250    139.92927   -1068.0974    132691.82   -34085.677    2642.7619   -36728.439    1.3332662    247.92837 
     300    138.35881   -1121.8064    132736.66   -34070.047    2613.1015   -36683.148    1.4758404     245.1458 
     350    140.83571   -1068.5564    132751.25   -34010.397    2659.8814   -36670.279     1.623529    249.53442 
     400    141.47412   -1069.0059    132739.67   -33983.029    2671.9386   -36654.968    1.8539857    250.66556 
     450    145.29127   -1138.6497    132757.98   -33926.223    2744.0309   -36670.254    2.0734263    257.42884 
     500    138.51422   -1139.7962    132749.48   -33978.242    2616.0367   -36594.279    2.2310434    245.42117 
     550    142.18964   -1260.6989    132794.97   -34008.973    2685.4522   -36694.425    2.3608863    251.93332 
     600    140.80619   -1191.3664    132822.32   -34019.196    2659.3238    -36678.52    2.5334084    249.48211 
     650    138.81848   -1389.9574    132860.49   -34098.826    2621.7831   -36720.609    2.7323676    245.96026 
     700    139.22946   -1600.0632     132804.2   -34080.022    2629.5451   -36709.567    2.9436365    246.68845 
     750    138.51493   -1349.3117    132822.17   -34119.478      2616.05   -36735.528    3.1338675    245.42242 
     800     139.9995   -1295.9754    132817.89   -34115.283    2644.0883   -36759.371    3.3330246    248.05281 
     850    139.03192   -1095.8833    132898.63   -34071.206    2625.8142   -36697.021    3.5117731    246.33843 
     900    139.92175   -1106.3457    132969.82   -34025.939    2642.6199   -36668.559    3.7249798    247.91504 
     950    141.21713   -983.61537    133077.06   -34013.622     2667.085   -36680.706    3.8877664    250.21022 
    1000    138.67154   -943.48901    133148.11   -34095.825    2619.0079   -36714.832    4.0862997    245.69991 
    1050    138.29609   -1153.0643    133185.44   -34109.431    2611.9169   -36721.348    4.2608501    245.03468 
    1100    139.63651   -1288.0351    133183.76   -34086.004    2637.2328   -36723.237    4.3787209    247.40966 
    1150    137.32233   -1232.2297    133264.69   -34074.848    2593.5261   -36668.374    4.4553757    243.30936 
    1200    138.61033   -1424.0084    133300.38    -34050.11    2617.8518   -36667.962    4.5206046    245.59145 
    1250     140.0257   -1001.9564    133319.44   -34058.864    2644.5832   -36703.447    4.6151364    248.09923 
    1300    139.25538   -1139.9515    133442.93   -33984.086    2630.0346   -36614.121    4.7685091    246.73437 
    1350    140.58483    -1136.592    133473.98   -33988.167    2655.1431    -36643.31    4.9439612     249.0899 
    1400    139.05212   -1278.2705    133429.87   -33989.085    2626.1957   -36615.281    5.1212223    246.37423 
    1450    139.49736   -1094.5807    133451.48   -34039.244    2634.6047   -36673.849     5.230254    247.16311 
    1500    138.37876   -957.82023    133461.24   -34035.179    2613.4783   -36648.657        5.317    245.18115 
    1550    139.47627   -996.40714     133563.1   -34120.553    2634.2063   -36754.759    5.4990177    247.12574 
    1600    137.53389   -1107.3843    133658.52   -34082.657    2597.5218   -36680.179    5.6604843    243.68421 
    1650    139.01873   -1304.2547    133604.57   -34077.945    2625.5651    -36703.51    5.7526606    246.31506 
    1700     139.0509   -1136.7041    133608.77   -34099.105    2626.1726   -36725.278    5.8370676    246.37206 
    1750    137.91169   -1442.9502    133583.54    -34064.18    2604.6571   -36668.837    6.0210892    244.35361 
    1800    140.72305   -1171.1836    133495.08   -34016.655    2657.7536   -36674.409    6.0991464    249.33481 
    1850     141.8854   -1098.5105    133504.33   -34005.235    2679.7063   -36684.942    6.2965501    251.39427 
    1900    139.35771   -1075.0205    133502.33   -34028.472    2631.9673   -36660.439    6.5152259    246.91568 
    1950    138.22724   -1170.8231    133427.99   -34055.966    2610.6167   -36666.583    6.7112057    244.91269 
    2000    141.67866   -1107.1833    133437.67    -34018.29    2675.8015   -36694.092     6.831096    251.02795 
    2050    139.45972   -1118.4693    133498.07   -34081.139    2633.8937   -36715.033     6.984427    247.09641 
    2100     141.6682   -1049.3159    133570.31   -34086.651    2675.6041   -36762.255    7.0873571    251.00943 
    2150    137.15025   -1157.0975    133551.75    -34157.82    2590.2761   -36748.096    7.2155229    243.00446 
    2200    137.69643   -1204.2046    133507.13   -34153.399    2600.5917   -36753.991    7.4120783    243.97221 
    2250    138.05411   -1502.8879    133363.88   -34073.591    2607.3469   -36680.938      7.64463    244.60594 
    2300    142.50884   -966.45188    133406.02   -34057.726    2691.4808   -36749.207    7.7858996    252.49889 
    2350    141.46759   -1052.4482    133424.27   -34090.294    2671.8153   -36762.109    7.9260428    250.65399 
    2400    136.26922   -1204.6425    133444.54   -34094.836    2573.6367   -36668.473    8.0546332    241.44346 
    2450    137.93671   -1236.2755    133430.56   -34109.227    2605.1296   -36714.357     8.231686    244.39793 
    2500    139.23662   -1190.0813    133361.69   -34102.479    2629.6803    -36732.16    8.3563133    246.70113 
    2550    137.95094    -1059.619    133388.34   -34112.624    2605.3984   -36718.022    8.4200506    244.42315 
    2600    138.41258   -1088.3914    133391.56   -34086.425    2614.1171   -36700.542    8.6662856    245.24108 
    2650    142.30487   -1194.7449     133430.1   -34027.787    2687.6284   -36715.415    8.8441449    252.13748 
    2700    140.54369   -1425.9796    133426.64   -34062.684     2654.366    -36717.05    9.0447183      249.017 
    2750    138.52241   -1603.6628    133337.96   -34064.567    2616.1913   -36680.759    9.2023836    245.43568 
    2800    139.53145   -1461.8834    133353.26   -34031.243    2635.2485   -36666.492    9.4436331    247.22351 
    2850    139.33365   -1503.8519     133355.2   -34023.474    2631.5128   -36654.987    9.5533807    246.87304 
    2900    139.87867   -1506.5369    133344.32    -33974.99    2641.8062   -36616.796    9.5750115    247.83871 
    2950    141.82131    -1125.051    133301.97   -33981.838    2678.4957   -36660.334    9.6965636    251.28071 
    3000    140.63638   -1224.7715    133235.06   -33998.165    2656.1167   -36654.282     9.831177    249.18124 
    3050     139.5623   -1267.8392    133179.45   -34054.476    2635.8311   -36690.307    9.9668824    247.27816 
    3100    141.02922   -1116.8367    133170.54   -34022.212     2663.536   -36685.748    10.081893    249.87728 
    3150    139.27907   -1360.3925    133101.07   -34008.047    2630.4819   -36638.529    10.223786    246.77633 
    3200    145.04944   -1306.7738    133094.65   -33959.102    2739.4635   -36698.566    10.382753    257.00035 
    3250    139.57354   -1207.4526    133036.81    -34028.07    2636.0435   -36664.113    10.552912    247.29809 
    3300    139.33221   -1144.7187    132985.57   -34050.231    2631.4856   -36681.717    10.731421    246.87049 
    3350    141.38797   -1531.7102    132910.96   -34075.757    2670.3115   -36746.068    10.838217    250.51291 
    3400    142.52078   -1002.9438    132989.74   -34065.139    2691.7063   -36756.846    10.846664    252.52005 
    3450    137.88154   -1142.1206    133015.81   -34114.182    2604.0876   -36718.269    11.012755    244.30018 
    3500    138.62434   -1183.9968    133073.27   -34086.975    2618.1164   -36705.091    11.249996    245.61628 
    3550    137.84858     -1256.11    133163.19   -34031.433    2603.4651   -36634.898     11.39493    244.24178 
    3600    139.21262   -1262.7172    133182.46   -33985.655     2629.227   -36614.882    11.506526     246.6586 
    3650    142.86441   -1147.2321    133168.58    -34017.01    2698.1962   -36715.206     11.64538    253.12889 
    3700    141.07778   -1441.7617    133163.95   -34048.856    2664.4531   -36713.309    11.919846    249.96331 
    3750    137.73617   -1339.2459    133237.49   -34010.015    2601.3421   -36611.357    12.239918    244.04261 
    3800    141.22042   -1379.0171    133252.53    -33991.56     2667.147   -36658.707    12.450992    250.21604 
    3850    141.55168   -1194.8604    133311.36   -33997.187    2673.4035    -36670.59    12.567285    250.80298 
    3900    142.30894   -1024.3764    133313.07   -33974.314    2687.7054   -36662.019    12.806654     252.1447 
    3950    142.40114   -1064.4592    133439.04   -33979.468    2689.4467   -36668.915    12.891892    252.30806 
    4000    136.81628   -1485.9018    133475.76   -34010.607    2583.9686   -36594.575    12.956034    242.41273 
    4050    141.20961    -1252.811     133384.3   -34048.392    2666.9429   -36715.335    13.103698    250.19689 
    4100    139.70996   -1469.5224    133397.93    -34015.75      2638.62    -36654.37    13.313115     247.5398 
    4150    141.22252   -1177.3634     133367.9   -34080.712    2667.1868   -36747.899    13.304829    250.21977 
    4200    136.91775   -1471.0288    133410.43   -34135.106    2585.8851   -36720.991    13.417441    242.59253 
    4250    140.33094   -928.13025    133411.69    -34094.43     2650.348   -36744.778    13.484289    248.64005 
    4300    137.94334   -1129.6546    133523.16   -34099.346    2605.2548   -36704.601    13.680913    244.40968 
    4350    139.55892   -1164.1045    133595.39   -34127.747    2635.7673   -36763.514    13.863891    247.27218 
    4400    140.45319   -1366.2446    133584.31    -34125.75    2652.6568   -36778.406    13.936173    248.85665 
    4450    139.63777   -1026.4212    133627.02   -34085.608    2637.2565   -36722.864    14.114243    247.41188 
    4500     138.3582   -1284.1798     133633.6   -34091.765    2613.0901   -36704.855    14.169396    245.14474 
    4550    141.20599    -1140.222    133693.95   -34076.985    2666.8747   -36743.859     14.38834    250.19049 
    4600    139.24954     -1295.48    133637.34   -34042.917    2629.9243   -36672.841    14.601076    246.72402 
    4650    138.24125   -1357.6728    133527.35   -34000.903    2610.8813   -36611.784     14.65982    244.93752 
    4700    138.55508   -1372.4938    133419.77   -34047.243    2616.8085   -36664.051    14.781098    245.49357 
    4750    139.85592   -1433.7531    133313.25   -34060.773    2641.3765    -36702.15      14.8919     247.7984 
    4800    139.97997   -1333.2362    133156.32    -34065.85    2643.7194   -36709.569    15.154728    248.01819 
    4850     138.0198   -1257.5154    133131.78   -34083.555    2606.6989   -36690.254     15.34107    244.54515 
    4900    136.44082   -1355.7408    133061.19   -34106.335    2576.8776   -36683.212    15.449648     241.7475 
    4950    138.65424   -1461.8953    133003.61   -34078.196    2618.6812   -36696.878    15.721646    245.66926 
    5000    137.02716   -1172.9334    132952.13   -34108.992    2587.9515   -36696.944    15.982627    242.78638 
    5050    138.43118   -1168.5717    133056.47    -34088.21    2614.4684   -36702.679    16.176691    245.27404 
    5100    140.16876   -1334.7361    133151.25   -34088.047    2647.2851   -36735.333    16.447877    248.35271 
    5150    136.29111   -1152.5126    133275.23   -34053.659    2574.0501   -36627.709    16.642172    241.48223 
    5200    141.01329   -1231.3053    133332.94   -33998.006    2663.2352   -36661.242    16.822628    249.84906 
    5250    139.88634   -1202.7843    133336.61   -33991.875    2641.9512   -36633.826    16.979308    247.85231 
    5300    138.70324   -1234.4796    133325.45   -34011.286    2619.6066   -36630.893     17.05866    245.75607 
    5350     140.1016   -1145.1505    133395.04   -33949.851    2646.0167   -36595.868    17.198885    248.23371 
    5400     140.8773   -1306.7225    133463.91   -33982.392    2660.6668   -36643.059     17.35378     249.6081 
    5450    140.83476   -1448.4326    133507.04   -33992.971    2659.8633   -36652.835    17.596112    249.53273 
    5500    137.48161   -1444.1356     133491.1   -34020.239    2596.5344   -36616.773     17.72946    243.59158 
    5550    136.24537   -1288.3503     133443.3    -34056.01    2573.1863   -36629.196    17.783929    241.40119 
    5600     139.9111   -1263.9301    133278.25   -34070.217    2642.4188   -36712.636    17.770096    247.89618 
    5650    138.11609   -1375.4636    133248.26   -34022.921    2608.5174   -36631.439    17.905915    244.71575 
    5700    139.05023    -1269.288    133193.58   -34027.959      2626.16   -36654.119    18.021859    246.37088 
    5750    139.10293   -1151.3836    133172.05    -34015.47    2627.1552   -36642.625    17.999964    246.46425 
    5800    142.15857   -979.07504    133165.57   -34011.123    2684.8655   -36695.988    18.165353    251.87828 
    5850    142.85487   -1297.8599    133144.02   -34017.044    2698.0161    -36715.06    18.397826    253.11199 
    5900     140.3342   -1223.9108    133134.89   -34002.547    2650.4097   -36652.957    18.503242    248.64584 
    5950    141.14046   -1299.2849    133136.58    -33946.55    2665.6369   -36612.187    18.634408    250.07437 
    6000    141.27058   -1146.7869    133154.28   -33994.122    2668.0944   -36662.216    18.993185    250.30491 
    6050    143.86002   -971.72484    133118.54    -33955.09    2716.9997    -36672.09    19.134461    254.89292 
    6100    142.16075   -927.54141    133223.37   -33978.309    2684.9065   -36663.215    19.216839    251.88213 
    6150    141.25532   -881.27101    133231.58   -34037.508    2667.8062   -36705.314    19.368878    250.27788 
    6200    139.79458   -1268.8584     133302.7   -34063.571    2640.2181   -36703.789    19.490359    247.68973 
    6250    140.17247   -1246.7014    133276.33     -34053.4    2647.3552   -36700.756    19.690347    248.35928 
    6300    139.05092   -1273.1066    133135.53   -34086.051     2626.173   -36712.224    19.840495     246.3721 
    6350    140.24895   -1140.1967    133070.74   -34091.229    2648.7996   -36740.029    19.958227    248.49479 
    6400    141.21408   -1035.8458    133022.28    -34047.58    2667.0273   -36714.607    20.109838    250.20481 
    6450    139.24491   -1142.9432    133063.31    -34093.92    2629.8369   -36723.757    20.129392    246.71582 
    6500    142.38776   -1119.7036    133079.23   -34075.619     2689.194   -36764.813    20.324956    252.28436 
    6550    140.91191   -1231.6647    133131.06   -34053.315    2661.3204   -36714.635    20.555043    249.66942 
    6600    142.30819   -1184.2366    133095.99   -33976.017    2687.6911   -36663.708    20.632877    252.14336 
    6650    141.26048   -1087.4502    133184.93   -33977.185    2667.9037   -36645.089    20.619227    250.28703 
    6700    141.04663   -1270.7079    133138.54   -34004.972    2663.8649   -36668.836    20.766143    249.90813 
    6750    140.08573   -1236.2386    133138.33   -33987.442    2645.7168   -36633.159    20.960681    248.20559 
    6800    143.32406   -1213.6468    133044.85    -33989.21    2706.8773   -36696.087    21.129492     253.9433 
    6850    143.47531   -1062.7664    133029.81   -33970.568     2709.734   -36680.302    21.427282    254.21129 
    6900     143.2169   -1119.2981    133064.52   -34000.552    2704.8535   -36705.405     21.50931    253.75344 
    6950    139.92104   -961.58737    133176.02   -34003.244    2642.6064    -36645.85    21.721273    247.91378 
    7000     139.7798   -1014.1962    133202.13   -34025.454     2639.939   -36665.393    21.794168    247.66354 
    7050    137.92843   -1145.3146    133215.97   -34050.345    2604.9732   -36655.319    21.845009    244.38326 
    7100    138.95131   -1564.0837    133134.01   -34007.173    2624.2917   -36631.465    21.988024    246.19561 
    7150    138.18044   -1370.1118     133009.1     -34012.5    2609.7327   -36622.233    22.348825    244.82977 
    7200    139.58481   -1155.4273    132988.15   -34011.206    2636.2563   -36647.462    22.504348    247.31806 
    7250    141.34752   -1151.9139    132996.84   -34017.302    2669.5475    -36686.85    22.578992    250.44124 
    7300    142.73416   -865.56312    133058.79    -34068.05    2695.7363   -36763.786     22.68584    252.89811 
    7350    139.75188   -1116.0572    133028.98   -34084.357    2639.4116   -36723.769    22.772236    247.61407 
    7400    137.79001   -1264.4767    132965.15   -34133.721     2602.359    -36736.08    22.897782    244.13801 
    7450    137.80416   -1308.9879     132887.7    -34130.91    2602.6263   -36733.536    23.011434    244.16308 
    7500     141.0058   -1020.0564     132886.8   -34144.193    2663.0936   -36807.287    23.063599    249.83577 
    7550    141.26036   -1020.9909    132903.61   -34109.604    2667.9014   -36777.505    23.363784    250.28681 
    7600    139.68256   -1132.7829    132957.87   -34070.586    2638.1025   -36708.688    23.430128    247.49125 
    7650    136.75613   -961.69209    132956.62   -34137.228    2582.8326    -36720.06    23.594695    242.30615 
    7700    137.88315   -1268.8069    132950.27   -34135.512     2604.118    -36739.63     23.63894    244.30303 
    7750    140.48301   -1310.4043    132918.25   -34052.721    2653.2202   -36705.941     23.74151     248.9095 
    7800    140.99316   -1141.3968    132881.47   -34035.371     2662.855   -36698.226    24.079272    249.81338 
    7850    140.26942   -1174.6074     132877.6   -34021.692    2649.1862   -36670.878    24.385678    248.53106 
    7900    139.17887   -1220.8682    132915.66   -34061.647    2628.5895   -36690.237     24.46763     246.5988 
    7950    140.05254   -1266.5508    132825.41    -34084.83    2645.0901    -36729.92     24.69072    248.14679 
    8000    137.55302    -1333.952    132741.66    -34088.33     2597.883   -36686.213    24.868741     243.7181 
    8050    134.59412   -1331.1818     132662.4   -34138.545    2542.0001   -36680.545    24.908141    238.47549 
    8100    136.11427   -1089.9816    132669.82   -34132.911    2570.7102   -36703.621    25.070937    241.16891 
    8150    133.87809   -1247.1319    132636.92   -34144.502    2528.4767   -36672.978    25.297242    237.20681 
    8200    141.05987   -1204.8924    132666.07    -34106.61     2664.115   -36770.725    25.498811    249.93159 
    8250    140.01385   -1066.2143    132672.68   -34078.503    2644.3594   -36722.862    25.669104    248.07823 
    8300     138.1491   -1339.0439    132711.26   -34049.354    2609.1409   -36658.495    25.811013    244.77425 
    8350     140.9845   -1464.0956     132623.3   -34039.554    2662.6915   -36702.245    25.828529    249.79805 
    8400    141.66867    -1345.419    132514.89   -33977.272    2675.6129   -36652.885    25.982065    251.01026 
    8450    140.84535   -1313.5899    132497.26   -34012.764    2660.0633   -36672.828    26.097113    249.55149 
    8500     142.8134   -1272.3691    132437.44   -34016.943    2697.2328   -36714.175    26.236567    253.03851 
    8550    141.37953   -1026.1514    132590.32   -34060.352    2670.1522   -36730.504    26.399451    250.49796 
    8600    137.02818   -1107.9717    132660.32    -34131.01    2587.9707   -36718.981    26.452701    242.78818 
    8650    138.53131   -1203.3926    132655.99   -34116.787    2616.3594   -36733.147    26.711366    245.45145 
    8700    138.45381   -1284.9952    132632.12   -34147.991    2614.8957   -36762.886    26.910181    245.31413 
    8750    138.73294   -1193.4672    132629.58    -34065.22    2620.1675   -36685.387    27.100514     245.8087 
    8800      139.216   -1402.8084    132666.69    -34072.89    2629.2908   -36702.181     27.25707     246.6646 
    8850    137.99358   -1170.3614     132699.3   -34107.217    2606.2037    -36713.42    27.524496    244.49869 
    8900    139.05341   -1151.3192    132699.05    -34068.53    2626.2201    -36694.75    27.546515    246.37651 
    8950    140.19382   -1191.5426    132642.37   -34078.514    2647.7584   -36726.273    27.537944    248.39711 
    9000    141.87803    -1019.317    132654.58   -34094.433    2679.5669       -36774    27.725466     251.3812 
    9050    140.43306   -1149.5057    132692.26   -34014.757    2652.2767   -36667.033    27.760492    248.82099 
    9100    140.52648   -1299.5491    132733.63   -34041.003     2654.041   -36695.044    28.008821    248.98651 
    9150    143.59583   -873.95729    132742.55   -34000.682      2712.01   -36712.692    28.150986    254.42482 
    9200    141.49537   -1336.0307    132829.89   -34010.578    2672.3398   -36682.918    28.349947     250.7032 
    9250    143.54457   -951.12661    132884.16   -34015.477    2711.0419   -36726.519    28.512317      254.334 
    9300    138.57689   -1283.3614    132938.74    -34056.81    2617.2204   -36674.031     28.78975    245.53222 
    9350    138.62556   -1169.4775    132993.49   -34095.158    2618.1396   -36713.297    29.018474    245.61845 
    9400    135.95772   -1062.8075    133041.55   -34138.806    2567.7535    -36706.56    29.066405    240.89152 
    9450    134.81687   -1152.6689    133062.63   -34167.747    2546.2071   -36713.954      29.1916    238.87017 
    9500    138.93115   -1305.4594    133118.81   -34152.744     2623.911   -36776.655    29.343047    246.15989 
    9550    138.69029   -1431.1503    133072.12    -34146.94    2619.3621   -36766.302    29.483058    245.73314 
    9600    139.80019   -1293.4403    133042.64   -34168.893    2640.3241   -36809.217    29.583207    247.69967 
    9650    138.26311   -1009.6814    133163.15   -34142.426    2611.2942    -36753.72    29.678811    244.97625 
    9700    137.15976   -908.13256    133189.79   -34139.708    2590.4558   -36730.164    29.805167    243.02132 
    9750    137.20047   -1268.4083    133216.99   -34084.442    2591.2246   -36675.667    29.860636    243.09345 
    9800    143.11667   -1139.3942    133201.66   -34033.346    2702.9605   -36736.307    30.053182    253.57585 
    9850    142.35686   -1140.0993    133148.81   -34021.933    2688.6104   -36710.543    30.211708    252.22961 
    9900    140.49494   -1057.8642    133259.29   -34079.603    2653.4454   -36733.048    30.356859    248.93064 
    9950    139.29028   -1367.3073    133257.42   -34075.599    2630.6936   -36706.292    30.565699    246.79619 
   10000     141.0696   -1216.2025    133297.13   -34064.631    2664.2987    -36728.93    30.726107    249.94883 
   10050    140.59218   -1528.6695    133257.01   -34037.704     2655.282   -36692.986    30.802591    249.10293 
   10100    143.08364   -1024.6522    133335.09   -34023.976    2702.3366   -36726.312    30.545888    253.51732 
   10150     137.6767   -1134.1172     133301.3   -34054.565    2600.2189   -36654.784    30.667861    243.93723 
   10200    141.99767     -1069.31    133328.96   -34094.188    2681.8266   -36776.014    30.873477    251.59319 
   10250    140.87195   -960.08372    133311.67   -34104.797    2660.5658   -36765.363    31.129954    249.59862 
   10300    139.02485   -1520.1481    133259.71   -34070.857    2625.6806   -36696.537    31.253025     246.3259 
   10350    140.28015   -1287.5435    133223.86   -34104.016    2649.3888   -36753.405    31.316919    248.55007 
   10400    141.24338   -1158.2206    133175.07   -34109.211    2667.5807   -36776.791    31.275279    250.25673 
   10450    139.20606   -1239.6429    133180.36   -34080.691    2629.1031   -36709.794    31.550682    246.64698 
   10500    140.62054   -1237.2772    133157.56   -34093.555    2655.8176   -36749.373    31.705027    249.15318 
   10550    142.03921    -1240.634    133180.57    -34170.47    2682.6112   -36853.081    31.868562     251.6668 
   10600    136.13683   -1183.7581    133157.48   -34149.721    2571.1364   -36720.858    32.126011    241.20889 
   10650    138.06447   -1009.4441    133201.91    -34132.16    2607.5426   -36739.703    32.331889     244.6243 
   10700    140.44034   -949.03516    133241.52   -34104.214    2652.4141   -36756.628    32.321471    248.83389 
   10750    140.66277   -973.28608    133343.57   -34100.332    2656.6151   -36756.947    32.332931      249.228 
   10800    141.30329   -1316.6629    133308.68   -34109.456    2668.7123   -36778.168     32.37417    250.36288 
   10850    140.98277   -1132.5205    133288.62   -34130.187    2662.6588   -36792.846    32.525957    249.79498 
   10900    140.66451   -1094.5255    133349.64   -34131.462    2656.6479    -36788.11     32.67759    249.23107 
   10950    141.15089   -1161.2359    133427.37    -34112.47    2665.8339   -36778.304    32.935076    250.09285 
   11000    140.48921    -1201.521    133405.46   -34126.501    2653.3372   -36779.838    33.068446    248.92048 
   11050     139.7167   -1588.9169    133327.06   -34114.257    2638.7472   -36753.004    33.194462    247.55173 
   11100    139.97283   -1232.0734    133202.93   -34139.727    2643.5847   -36783.312    33.211539    248.00556 
   11150     138.4119   -1170.8317    133224.74   -34156.271    2614.1042   -36770.376    33.441802    245.23987 
   11200    139.59657   -893.42596    133313.51   -34137.301    2636.4783    -36773.78    33.657567    247.33888 
   11250     140.1613   -1256.4018    133352.61   -34146.498     2647.144   -36793.642    33.683802    248.33948 
   11300    138.83916    -1365.656    133396.79   -34130.405    2622.1736   -36752.579    33.769846     245.9969 
   11350    139.24416   -1108.6572    133388.54   -34089.991    2629.8226   -36719.814    33.816631    246.71448 
   11400    140.00721   -1519.4322    133432.66   -34091.967    2644.2339   -36736.201    34.045636    248.06647 
   11450    139.86641   -1185.0444    133410.74   -34082.384    2641.5747   -36723.959    34.155914      247.817 
   11500    138.60326   -1285.5406    133352.95   -34061.688    2617.7183   -36679.406    34.251906    245.57892 
   11550    140.16096   -1331.8794    133284.24   -34082.799    2647.1377   -36729.937    34.244231    248.33888 
   11600    139.62648   -1417.1651    133262.35   -34082.871    2637.0433   -36719.915    34.450703    247.39188 
   11650    137.39532    -1273.619    133158.53   -34140.739    2594.9046   -36735.643    34.693533    243.43868 
   11700    139.47322   -1321.0567     133124.8   -34144.047    2634.1488   -36778.195    34.807357    247.12034 
   11750    139.35459   -1229.4817    133107.39   -34145.834    2631.9082   -36777.742    34.935022    246.91014 
   11800    138.23182     -1243.11     133058.9    -34133.32    2610.7031   -36744.023    34.992435     244.9208 
   11850    137.23119   -1262.7151    133077.06   -34172.743    2591.8049   -36764.548    35.031334    243.14788 
   11900    140.34994   -1141.6657     133080.5   -34142.338    2650.7069   -36793.045    35.129499    248.67372 
   11950    139.61614   -1189.2989    133050.05   -34180.725    2636.8479   -36817.572    35.362425    247.37355 
   12000    139.34706   -1239.0212    132983.97   -34130.745    2631.7661   -36762.511    35.384851    246.89681 
   12050    141.11068   -1199.3351    132906.45   -34138.909    2665.0745   -36803.984     35.44993     250.0216 
   12100    141.94089   -1034.1165    132838.87   -34109.154    2680.7541   -36789.908    35.565683    251.49258 
   12150    139.62572    -1388.495    132783.47   -34118.405    2637.0289   -36755.433    35.766146    247.39053 
   12200     140.5849   -1353.5662    132720.91   -34114.188    2655.1444   -36769.332    36.016798    249.09002 
   12250    140.43692   -1539.3933    132674.95   -34077.733    2652.3496   -36730.083    35.986152    248.82783 
   12300     142.1132   -1253.2781    132571.65   -33985.448    2684.0086   -36669.457    36.000002    251.79789 
   12350    142.20515    -1292.235    132522.81   -33994.087    2685.7451   -36679.832    36.036743     251.9608 
   12400    142.42663   -1480.6005    132467.43   -33943.863    2689.9281   -36633.791    36.344416    252.35323 
   12450    143.86359   -1248.1093    132483.23   -33947.397     2717.067   -36664.464    36.606561    254.89924 
   12500    143.44877   -1317.9288    132525.68   -33973.587    2709.2326    -36682.82     36.72668    254.16426 
   12550    141.76251   -1296.8096    132533.27   -33980.374    2677.3852    -36657.76    36.917152    251.17653 
   12600    137.11475   -1071.2419    132513.01   -34016.804    2589.6058   -36606.409    37.338103    242.94157 
   12650    144.41801   -1105.0898    132565.43    -33958.87    2727.5381   -36686.408    37.507408    255.88157 
   12700    140.54412   -1211.6562    132561.04   -33958.598    2654.3741   -36612.972    37.715598    249.01776 
   12750    139.02345   -1176.7398    132592.04   -33975.844    2625.6541   -36601.498    37.896948    246.32342 
   12800    139.64222   -1188.6877    132647.08   -33995.692    2637.3406   -36633.033    37.972929    247.41977 
   12850    141.28623   -983.83331    132636.46   -33993.107      2668.39   -36661.497    38.161828    250.33265 
   12900    142.26555   -950.14532    132727.19   -33993.871    2686.8859   -36680.757    38.276045    252.06783 
   12950    140.58228    -1391.332     132704.6   -33995.652    2655.0949   -36650.747    38.509317    249.08538 
   13000    142.22683   -1179.8478    132606.67   -33996.324    2686.1545   -36682.479    38.648193    251.99921 
   13050    140.43053   -1132.1937    132692.19   -34021.491     2652.229    -36673.72    38.729283    248.81651 
   13100    139.32114   -1265.6975     132737.7   -34002.269    2631.2765   -36633.545    38.885904    246.85088 
   13150    142.29977   -967.97585    132777.45   -33976.993    2687.5321   -36664.525     39.12206    252.12845 
   13200    139.12276   -1300.8829    132771.25   -33947.465    2627.5298   -36574.995    39.119199    246.49939 
   13250     140.5421   -1083.4099    132768.89   -33923.916    2654.3361   -36578.252    39.138633    249.01419 
   13300    140.89437    -1040.649    132797.83   -33903.417    2660.9892   -36564.406    39.433656    249.63835 
   13350    139.91324   -1420.7837    132724.02   -33890.344    2642.4591   -36532.803    39.545531    247.89996 
   13400    142.56631   -1217.2172    132762.88   -33921.694    2692.5662    -36614.26    39.643583    252.60071 
   13450    138.74172   -1258.8443    132794.23   -33972.291    2620.3333   -36592.624     39.83472    245.82425 
   13500    139.47237   -1341.7495    132725.58   -33989.819    2634.1326   -36623.952    40.010805    247.11882 
   13550    141.00892   -1297.5836    132756.95   -33987.403    2663.1526   -36650.556    40.298502     249.8413 
   13600    138.83923   -1159.1778     132826.8   -33946.356     2622.175   -36568.531    40.514931    245.99703 
   13650    138.22947   -1218.9064    132900.88   -33917.783    2610.6588   -36528.442     40.71327    244.91665 
   13700    139.84078   -1335.5298    133011.36   -33947.329    2641.0906   -36588.419    40.757573    247.77158 
   13750    137.52107   -1198.3136    133102.53   -33997.124    2597.2796   -36594.404    40.888763    243.66149 
   13800    143.20365    -1217.251    133062.83   -33931.851    2704.6032   -36636.455    40.873551    253.72996 
   13850    136.73445   -1593.2686    132996.74   -34018.389    2582.4231   -36600.812    41.036349    242.26774 
   13900      137.704   -1296.9129    132970.89   -34010.971    2600.7345   -36611.706    41.191006     243.9856 
   13950    137.93612   -1260.1861    132970.85   -34032.367    2605.1185   -36637.485    41.327339    244.39689 
   14000    135.83361   -1121.1842    133026.03   -33997.888    2565.4095   -36563.298    41.353964    240.67162 
   14050    140.14115   -1273.1749    133062.52   -33995.252    2646.7635   -36642.015    41.529349    248.30378 
   14100    138.40378   -1488.5892    133109.26   -33974.584    2613.9508   -36588.535    41.968154    245.22549 
   14150    136.92764   -1308.4682    133118.86   -33979.727    2586.0718   -36565.799    42.217349    242.61004 
   14200    139.82713   -1133.4414    133160.05   -33974.898    2640.8329   -36615.731    42.418155     247.7474 
   14250    140.48974   -1022.7478    133226.68   -33914.347    2653.3473   -36567.694    42.613917    248.92143 
   14300    141.74822    -1183.656    133314.16   -33871.995    2677.1153    -36549.11    42.737551    251.15121 
   14350    143.01378    -1576.707    133210.65   -33867.538    2701.0173   -36568.555    43.016955    253.39355 
   14400    143.58845   -1189.1429    133155.22   -33913.778    2711.8706   -36625.649    43.073349    254.41175 
   14450    141.74477   -1387.0181    133136.68   -33892.475    2677.0502   -36569.525    43.544335     251.1451 
   14500     140.2815   -1311.8549    133085.76   -33923.468    2649.4143   -36572.882    43.777638    248.55246 
   14550    139.64893   -1322.2079    133035.45   -33974.594    2637.4673   -36612.061    43.752946    247.43166 
   14600    142.11217   -1370.0789    132988.93   -33971.761    2683.9891   -36655.751    43.955849    251.79606 
   14650    139.11706   -1146.1182    132913.91    -34006.72    2627.4222   -36634.142    44.052656    246.48929 
   14700    142.24152   -1074.9905    132957.84   -34020.968     2686.432     -36707.4    44.191457    252.02524 
   14750    142.81285   -1217.5185    132928.96   -33989.279    2697.2224   -36686.502    44.459296    253.03754 
   14800    136.40694   -1301.1986    132913.89   -34047.596    2576.2377   -36623.834    44.687531    241.68746 
   14850    139.79518   -1134.2729    132894.65   -34029.841    2640.2295    -36670.07    44.726727     247.6908 
   14900    138.46346   -1102.6139    132904.29   -34039.497     2615.078   -36654.575    44.907976    245.33123 
   14950    136.30207   -1241.2355    132913.16   -34076.792    2574.2571   -36651.049    45.051022    241.50165 
   15000    137.56288   -1270.8604    132930.76   -34139.452    2598.0692   -36737.521    45.245401    243.73557 
   15050     134.4055   -994.97305    132942.31   -34166.742    2538.4378    -36705.18    45.391095    238.14129 
   15100    134.78273   -1237.0382    133003.75   -34104.166    2545.5623   -36649.728     45.57932    238.80968 
   15150    135.05615   -1096.2541    133040.59   -34088.155    2550.7261   -36638.881       45.747    239.29411 
   15200    138.44133   -883.00036    133062.99   -34060.795    2614.6601   -36675.455    46.135118    245.29203 
   15250    141.71213   -1121.3621    133081.08   -33996.585    2676.4337   -36673.019    46.190781    251.08726 
   15300    136.19532   -1121.3005    133141.55   -34009.812     2572.241   -36582.053    46.350928    241.31252 
   15350    137.15753   -1262.3714     133200.9   -34056.927    2590.4137   -36647.341    46.600504    243.01737 
   15400    139.92845    -1276.378    133251.95   -34034.769    2642.7464   -36677.515    46.937771    247.92692 
   15450    139.63736   -1155.6274    133220.65   -34042.063    2637.2488   -36679.312     46.98826    247.41117 
   15500    140.18402   -1191.9321    133256.96   -34010.942    2647.5733   -36658.515     47.16361    248.37975 
   15550    140.50797    -803.2152    133304.36   -34012.157    2653.6915   -36665.848    47.236746    248.95372 
   15600    137.84343    -1291.109    133402.99   -34015.328    2603.3679   -36618.696    47.185905    244.23266 
   15650    140.03115   -1187.8675    133478.79     -33990.5     2644.686   -36635.186    47.308623    248.10888 
   15700     138.0377   -1402.1824    133484.87   -33994.565    2607.0369   -36601.602    47.451157    244.57686 
   15750    141.25301   -1238.6804    133409.84   -33937.369    2667.7626   -36605.132     47.56327    250.27379 
   15800      139.866   -1247.3106    133437.43   -33952.276     2641.567   -36593.843    47.762135    247.81627 
   15850    141.14409   -1330.6447    133394.75   -33915.067    2665.7054   -36580.772    47.902389     250.0808 
   15900     139.6125   -945.10155    133405.35   -33930.782    2636.7793   -36567.561    48.121208    247.36712 
   15950    141.21822    -1337.076    133471.17   -33932.872    2667.1055   -36599.977    48.247408    250.21215 
   16000    141.21178   -1151.7351    133537.81   -33977.862    2666.9839   -36644.846    48.511474    250.20074 
   16050    137.35023   -1112.7781    133521.78   -34082.226     2594.053   -36676.279    48.717999    243.35879 
   16100    139.28705   -1131.8082    133532.73   -34043.599    2630.6326   -36674.231    48.907612    246.79047 
   16150    136.50932   -932.60868     133596.6   -34037.953    2578.1714   -36616.125     49.01164    241.86887 
   16200    140.77425   -1436.0623    133575.35   -34051.812    2658.7206   -36710.533    49.073879    249.42552 
   16250    139.44135   -1326.1792    133581.75   -34068.324    2633.5469   -36701.871    49.087918    247.06387 
   16300    139.76804   -1304.0152    133554.74   -34066.654    2639.7169   -36706.371    49.380904    247.64271 
   16350    138.58688    -1126.392    133568.89   -34083.047     2617.409   -36700.456    49.469533    245.54991 
   16400    142.29575   -1286.8941    133575.54   -34003.548    2687.4563   -36691.005    49.616177    252.12134 
   16450    140.10582   -1217.2672    133621.88    -34010.54    2646.0962   -36656.637    49.601551    248.24118 
   16500    134.67472   -1421.5668    133516.91   -34040.784    2543.5223   -36584.306    49.741843    238.61829 
   16550    137.53226   -1272.1238    133420.49   -34030.115    2597.4909   -36627.606    49.850562    243.68132 
   16600    141.62041   -1038.0938    133419.88   -33968.843    2674.7015   -36643.544    50.063652    250.92475 
   16650    140.82536   -1489.9341    133426.49   -33976.126    2659.6859   -36635.812    50.196948    249.51608 
   16700    143.63491   -1346.3023    133419.95   -33991.174    2712.7481   -36703.922    50.439506    254.49407 
   16750    141.81449   -1130.3128    133476.46   -33993.018     2678.367   -36671.385    50.746896    251.26863 
   16800    141.33322   -1276.9071    133595.23   -33986.275    2669.2774   -36655.552    51.030391     250.4159 
   16850    141.95879   -1343.3962    133639.09     -33941.5    2681.0923   -36622.593    51.240473     251.5243 
   16900    140.41917   -1273.1078    133603.47   -33970.757    2652.0143   -36622.771     51.39615    248.79638 
   16950    140.02313   -1153.7535    133542.52    -33972.68    2644.5345   -36617.215    51.485893    248.09467 
   17000    140.86805   -1134.0595    133591.94   -34038.231    2660.4921   -36698.723    51.801698    249.59171 
   17050    141.97557   -1316.0722    133579.03   -34004.602    2681.4092   -36686.011    51.938261    251.55404 
   17100    139.80937   -1393.5843    133485.87   -34020.578    2640.4974   -36661.075    51.909287    247.71592 
   17150    139.65358   -1234.4668    133445.01   -34018.964    2637.5551   -36656.519    52.060478     247.4399 
   17200    137.70926   -1386.5749    133335.46   -34028.196     2600.834    -36629.03     52.04393    243.99494 
   17250    140.62164   -1335.2821     133341.3   -34051.383    2655.8383   -36707.221    52.202241    249.15512 
   17300    138.25136   -1418.2383    133235.63   -34075.979    2611.0722   -36687.051    52.451059    244.95543 
   17350    138.40929   -1412.4029    133244.31    -34032.58    2614.0549   -36646.634    52.744855    245.23525 
   17400    138.29564   -1385.6221    133194.14   -34059.536    2611.9085   -36671.444    52.951696    245.03389 
   17450    140.41475   -1170.7875    133234.05    -33945.53     2651.931   -36597.461    53.207127    248.78856 
   17500    140.15509   -1318.2594     133140.6   -33926.438    2647.0268   -36573.465    53.478412    248.32848 
   17550    139.38331    -1192.955    133156.68   -33946.521    2632.4507   -36578.972    53.610259    246.96104 
   17600    137.92136   -1201.8214    133178.29   -34015.086    2604.8398   -36619.926    53.686438    244.37074 
   17650    139.26222   -1150.0712    133126.94   -34021.128    2630.1637   -36651.291    53.725005    246.74648 
   17700    138.91623   -1224.0605    132986.18   -34032.626    2623.6291   -36656.255    53.784414    246.13345 
   17750    141.45296   -997.52849    132912.61   -34021.346    2671.5389   -36692.885    53.872383    250.62806 
   17800    139.63019   -1229.2428     132999.6   -34021.362    2637.1133   -36658.476    53.990313    247.39846 
   17850    144.19471   -1005.0087    133063.85   -33987.529    2723.3208    -36710.85    54.171477    255.48593 
   17900    141.11223   -1207.8344       133180   -33948.549    2665.1037   -36613.652    54.455185    250.02435 
   17950    140.84269   -1572.1151    133139.34   -33961.236    2660.0131    -36621.25    54.459918    249.54678 
   18000    142.83168   -1090.9022    133124.15   -33959.781     2697.578    -36657.36    54.475466     253.0709 
   18050    139.55536   -1570.6988    133150.61    -34002.82    2635.7002    -36638.52    54.606136    247.26588 
   18100    142.40586   -1114.9814     133111.6     -33951.7    2689.5359   -36641.236    54.807135    252.31643 
   18150    140.05366   -1301.9646    133083.56   -33905.506    2645.1112   -36550.617    54.831655    248.14876 
   18200     142.9042   -1184.3445    133013.02    -33901.06    2698.9477   -36600.008    55.174468    253.19939 
   18250    141.77472   -1146.3102    132987.33   -33909.593    2677.6158   -36587.209    55.436709    251.19815 
   18300    140.11926   -1298.0187    132965.96   -33944.141    2646.3502   -36590.491    55.468736      248.265 
   18350    141.50548   -1302.5393    132868.95    -33952.51    2672.5308   -36625.041    55.686014    250.72111 
   18400    136.71138   -1281.1015    132869.36   -33997.003    2581.9874    -36578.99    56.006217    242.22687 
   18450     140.1521    -1155.856    132852.02   -34031.541    2646.9703   -36678.512    56.281723    248.32318 
   18500    140.49474   -1113.0336    132831.63   -34028.184    2653.4417   -36681.626    56.522939    248.93028 
   18550    138.93949   -993.42271    132927.26   -34050.393    2624.0686   -36674.461    56.932971    246.17467 
   18600     140.0009   -1183.0603    133006.96   -34062.617    2644.1147   -36706.731    57.206794    248.05528 
   18650    142.14294   -1385.1662    133004.76   -33993.874    2684.5701   -36678.444    57.501355    251.85057 
   18700    142.47788    -1445.055    132954.09   -33993.824    2690.8961    -36684.72    57.846891    252.44403 
   18750    138.67969   -1271.5661    132808.95   -33987.964    2619.1619   -36607.125      58.0844    245.71436 
   18800    140.72144   -1250.3067    132764.63   -34047.679    2657.7232   -36705.403    58.154552    249.33195 
   18850    139.85814   -969.61051    132803.56   -34071.124    2641.4184   -36712.543    58.126371    247.80233 
   18900    136.72291   -1190.9217    132724.27   -34073.821    2582.2053   -36656.026    58.089059    242.24731 
   18950    138.85146   -1244.6939     132656.1   -34074.077    2622.4059   -36696.483    58.285624    246.01869 
   19000    141.34675   -929.39752    132688.08   -34049.174     2669.533   -36718.707    58.533562    250.43988 
   19050    138.06632   -1361.9723    132721.95    -34094.56    2607.5775   -36702.138    58.646656    244.62758 
   19100    137.63219   -1047.4251    132740.77   -34166.968    2599.3783   -36766.346    58.815224    243.85837 
   19150    137.90002   -1221.2566    132794.46   -34114.757    2604.4366   -36719.194    58.983505    244.33291 
   19200    135.36139   -1177.7948    132776.01   -34158.651     2556.491   -36715.142    59.379006    239.83495 
   19250    136.93033   -1127.3343    132781.61   -34145.757    2586.1227   -36731.879    59.426452    242.61482 
   19300    137.65454   -1540.9193    132709.93   -34191.124    2599.8004   -36790.924    59.470249    243.89798 
   19350    135.76693   -1132.3841    132687.56   -34181.758    2564.1502   -36745.909    59.323129    240.55349 
   19400    135.41973   -1316.4237    132648.86   -34163.483    2557.5929   -36721.076     59.48894    239.93832 
   19450    136.87821   -1256.1696    132638.65   -34155.912    2585.1384   -36741.051    59.652851    242.52247 
   19500    139.42431   -1435.2573    132606.39   -34114.179     2633.225   -36747.404    59.988385    247.03367 
   19550    138.74084   -1012.9537     132600.1    -34114.92    2620.3168   -36735.237    60.114645     245.8227 
   19600    138.08909   -1033.7677     132685.6   -34094.349    2608.0075   -36702.356     60.11269    244.66791 
   19650    136.61691   -1133.1757    132706.72   -34127.368    2580.2033   -36707.572    60.181301    242.05949 
   19700      138.792   -871.21205    132803.16   -34061.166    2621.2829   -36682.449    60.355296    245.91334 
   19750    139.97165   -1225.1197    132922.63   -34113.895    2643.5622   -36757.457    60.676711    248.00345 
   19800    139.49414   -1094.5131    132853.63   -34075.191    2634.5438   -36709.735    60.692772     247.1574 
   19850    144.63473   -1302.3927    132879.27   -34015.438    2731.6312    -36747.07    61.017166    256.26557 
   19900    143.23175   -1408.0352    132854.03   -34046.638    2705.1339   -36751.772    61.255476    253.77975 
   19950      140.908    -981.5739    132859.31   -34055.609    2661.2467   -36716.856    61.526242     249.6625 
   20000    139.59546   -1379.1138    132858.57   -34047.695    2636.4575   -36684.153    61.727636    247.33693 
   20050    142.96988   -1064.7117    132919.73   -34024.463    2700.1882   -36724.651    62.011304    253.31577 
   20100    138.22109   -1262.7043    133000.18   -34094.138    2610.5004   -36704.638    62.059982    244.90179 
   20150    142.14836   -1399.7047    132995.34   -34092.297    2684.6726    -36776.97    62.011257    251.86019 
   20200    141.52453   -1255.6368    133045.79   -34052.357    2672.8907   -36725.248    62.054647    250.75487 
   20250    139.56138   -1359.3063    132990.05   -34072.227    2635.8138    -36708.04     62.22555    247.27654 
   20300    138.57288   -1287.2453    132912.98   -34134.938    2617.1447   -36752.082    62.390901    245.52511 
   20350    140.99055   -1248.8767    132935.62   -34112.094    2662.8056   -36774.899     62.56305    249.80876 
   20400    139.21084   -1576.8953    132908.29   -34102.662    2629.1934   -36731.855    62.639684    246.65545 
   20450    139.74722   -1309.7665    132914.52   -34085.097    2639.3236   -36724.421    62.701061    247.60581 
   20500    138.28857   -1276.9757    132856.63   -34054.511     2611.775   -36666.286    63.087937    245.02136 
   20550     141.8455   -1106.6441    132863.87   -34075.782    2678.9527   -36754.735    63.028427    251.32357 
   20600    141.60536   -1138.1346    132965.88   -34045.374    2674.4172   -36719.792    63.291372    250.89808 
   20650    139.32624   -1308.0965    132957.91   -34039.418    2631.3729   -36670.791    63.380448    246.85992 
   20700    142.05588   -1103.9164    132889.08    -33984.85    2682.9259   -36667.776    62.983876    251.69632 
   20750    139.42233   -1036.7517    132977.22   -33994.425    2633.1875   -36627.613    63.314972    247.03016 
   20800     142.8746   -1342.1053    132979.65   -33999.769    2698.3886   -36698.157    63.550422    253.14694 
   20850    140.38973   -1210.0694    132907.24   -33990.359    2651.4584   -36641.818     63.56778    248.74422 
   20900    141.30291   -1297.6934    132857.42   -33955.685    2668.7051   -36624.391    63.436213    250.36221 
   20950    141.76707    -1077.032    132881.39   -33934.445    2677.4713   -36611.917     63.58006     251.1846 
   21000    141.66604   -1178.9869    132867.36   -33972.167    2675.5633    -36647.73    64.040967     251.0056 
   21050    137.86442    -1148.323    132901.18   -33992.236    2603.7643       -36596    64.093792    244.26985 
   21100    141.48659   -1306.7028     132906.3   -34002.728    2672.1741   -36674.902    64.211881    250.68765 
   21150     138.3911    -1128.903    132861.93   -34002.678    2613.7114   -36616.389    64.196627    245.20302 
   21200    140.80778    -1290.553    132910.17    -34019.53    2659.3539   -36678.884    64.183231    249.48493 
   21250     140.3538   -1080.9881    132903.69   -34005.613    2650.7797   -36656.392    64.587537    248.68055 
   21300    138.54961   -1171.8106    133000.51   -33997.711    2616.7051   -36614.416    64.784257    245.48388 
   21350    138.31246   -1308.5842    133104.07   -34041.945    2612.2261   -36654.171    65.089845    245.06368 
   21400    137.75526    -1214.921     133101.5   -34022.631    2601.7027   -36624.334    65.008857    244.07644 
   21450    137.06799   -1212.9564    133094.68   -33999.306    2588.7225   -36588.029     65.01544    242.85871 
   21500     139.5625   -1330.8508    133093.16   -34007.884    2635.8349   -36643.719    65.116854    247.27852 
   21550    139.62937   -1451.1134    133078.45   -34045.937    2637.0978   -36683.035    65.269561      247.397 
   21600    137.16984   -1296.2189    133076.39   -34017.747    2590.6461   -36608.393    65.748744    243.03917 
   21650    139.52554   -1186.9592    133049.28   -34003.197    2635.1369   -36638.334    65.883158    247.21304 
   21700    141.25963   -1162.1353    133065.62   -34021.676    2667.8876   -36689.563    66.090592    250.28552 
   21750    139.85551   -1433.7483    133037.78   -34002.434    2641.3689   -36643.803    66.294409    247.79768 
   21800    140.51336   -1309.0955    133011.71   -34003.019    2653.7933   -36656.813    66.387902    248.96327 
   21850    139.59489   -1266.9563    132954.92   -33997.319    2636.4467   -36633.766    66.558027    247.33592 
   21900    139.03202   -1536.5444    132857.32   -33969.156     2625.816   -36594.972    66.846111    246.33861 
   21950    139.97229   -1260.9879    132821.33   -33996.892    2643.5744   -36640.467    67.157282     248.0046 
   22000    137.81489   -1458.1272    132821.55   -34026.986    2602.8289   -36629.815    67.510838    244.18209 
   22050    141.92468   -1195.8318    132844.16   -34012.685    2680.4481   -36693.133    67.628467    251.46386 
   22100    140.19071    -1722.059    132784.52    -34001.23    2647.6995    -36648.93    67.673709    248.39159 
   22150    138.92202    -1246.965    132744.06   -33992.125    2623.7386   -36615.863    67.566741    246.14372 
   22200    135.77654   -1197.0512    132770.15   -34065.274    2564.3318   -36629.606    67.736771    240.57052 
   22250    139.39779   -1421.4002     132733.3   -34028.652    2632.7242   -36661.376    67.715491    246.98669 
   22300     138.4375   -1193.2138    132737.39   -34011.969    2614.5878   -36626.557    68.019041    245.28524 
   22350     137.6613   -1383.0322    132702.45   -34041.109    2599.9281   -36641.037    68.388341    243.90996 
   22400    138.05205   -1540.7006    132641.04   -34033.515     2607.308   -36640.823      68.7221    244.60229 
   22450    138.85524   -1295.1882    132548.24   -34060.559    2622.4774   -36683.036    68.975152     246.0254 
   22500    138.96535   -1469.9007    132444.97   -34062.384     2624.557   -36686.941    69.129884    246.22049 
   22550     140.0962   -1290.9344     132366.4   -34031.095    2645.9146    -36677.01    69.076856    248.22414 
   22600    140.31692    -1282.183    132389.64   -34028.392    2650.0832   -36678.475    69.111595    248.61521 
   22650    138.44598   -1121.7016    132385.81   -34042.403    2614.7479   -36657.151    69.248553    245.30026 
   22700    139.91784   -1180.7729    132451.58   -34012.942    2642.5461   -36655.489    69.432932    247.90812 
   22750    138.36003   -1206.4491    132460.65   -34026.533    2613.1246   -36639.657    69.230888    245.14797 
   22800    142.09269   -1285.1345    132463.66   -33978.387    2683.6211   -36662.008    69.212665    251.76154 
   22850    140.12264   -1086.7949    132386.68   -33967.207     2646.414   -36613.621    69.284094    248.27099 
   22900    139.03568   -1285.2909    132337.96   -33936.229    2625.8852   -36562.115    69.421287     246.3451 
   22950    143.41791   -1137.6964    132362.24   -33895.578    2708.6499   -36604.228    69.676785    254.10959 
   23000    140.68111     -1389.82    132328.31    -33906.41    2656.9615   -36563.371    69.962807     249.2605 
   23050    140.95594   -1182.1539    132327.17   -33947.348    2662.1521     -36609.5    70.148546    249.74744 
   23100    141.61474   -1312.5675    132254.31   -33923.683    2674.5943   -36598.278    70.293976     250.9147 
   23150    141.33358   -1147.2071    132207.69   -33955.493    2669.2844   -36624.777    70.323535    250.41655 
   23200    140.09359   -1527.0485    132215.44   -34005.211    2645.8654   -36651.077    70.510618    248.21952 
   23250    138.34218   -1494.3814    132171.57   -33999.867    2612.7874   -36612.654    70.413018    245.11634 
   23300    137.57719   -1117.7886     132191.1   -33984.882    2598.3395   -36583.222    70.328198    243.76092 
   23350    142.77606   -1076.8425    132203.06   -33942.211    2696.5276   -36638.738    70.415694    252.97235 
   23400     139.2221   -1081.1481    132155.54   -33989.257     2629.406   -36618.663    70.741246     246.6754 
   23450    138.30183   -1088.2624    132181.18   -34069.239    2612.0254   -36681.264     71.15401    245.04485 
   23500    137.65231   -1374.9439     132230.5       -33984    2599.7584   -36583.758    71.345431    243.89403 
   23550     139.4945   -1230.5761    132192.52   -33928.606    2634.5506   -36563.157    71.415264    247.15804 
   23600     141.0751   -1152.6253    132151.59   -33945.177    2664.4026   -36609.579    71.293924    249.95857 
   23650     141.6374   -1154.2674    132235.78    -33967.44    2675.0224   -36642.462    71.525224    250.95486 
   23700    136.61093   -1428.8248    132223.29   -33970.552    2580.0904   -36550.642    71.761777    242.04889 
   23750    140.62223   -1064.7215     132187.6   -33957.819    2655.8494   -36613.668    71.934231    249.15616 
   23800    144.67638    -953.6197    132275.29   -33924.854    2732.4178   -36657.272    72.045477    256.33936 
   23850    140.05379   -1272.6438    132342.31   -33938.832    2645.1136   -36583.945    72.200281    248.14899 
   23900    141.80425   -1535.6173     132277.2   -33936.273    2678.1736   -36614.446    72.322388    251.25049 
   23950    138.48603   -1578.8916    132173.71   -33987.063    2615.5042   -36602.567    72.392316    245.37122 
   24000    139.65213   -1168.1086    132056.51   -33994.735    2637.5276   -36632.263    72.433362    247.43732 
   24050    138.61878   -1203.9534    132105.53   -34028.107    2618.0115   -36646.118    72.820024    245.60643 
   24100    140.15185    -1230.619    132195.25   -33995.356    2646.9657   -36642.321    73.169648    248.32274 
   24150     141.9647   -791.60858    132247.15   -33999.678    2681.2039   -36680.881    73.598712    251.53477 
   24200    142.23077   -1188.9567    132294.51   -33964.897    2686.2291   -36651.126    73.869263     252.0062 
   24250    137.91223   -978.20541    132308.64   -33992.829    2604.6673   -36597.497    73.973077    244.35456 
   24300    139.58944   -1134.6745    132302.83   -33979.837    2636.3437   -36616.181    74.136452    247.32625 
   24350    140.56195    -1167.561    132263.75   -33981.875    2654.7109   -36636.586    74.314322    249.04936 
   24400    138.72106   -1117.0366    132277.66   -33948.161    2619.9431   -36568.104    74.403979    245.78764 
   24450    142.31068   -1043.4695    132388.21   -33921.118    2687.7381   -36608.856    74.777428    252.14778 
   24500    137.93731   -1344.7332    132461.14   -33970.015    2605.1409   -36575.156    74.930699    244.39899 
   24550    139.55959   -1041.0988     132397.9   -33996.226      2635.78   -36632.006    75.157399    247.27336 
   24600    140.37806   -1216.6722    132364.91   -33981.693    2651.2379    -36632.93    75.284723    248.72354 
   24650    141.15034   -1209.2966    132327.45   -34039.427    2665.8235   -36705.251    75.266495    250.09187 
   24700    138.65764    -1166.814    132310.07   -34022.308    2618.7454   -36641.054    75.364589    245.67528 
   24750     133.9453   -1127.7637    132337.37   -34079.623    2529.7462   -36609.369    75.491414    237.32591 
   24800    137.16001   -1299.6151    132314.72   -34061.947    2590.4606   -36652.408    75.561841    243.02177 
   24850    138.97282   -1179.7461    132367.97   -34050.941     2624.698   -36675.639    75.790817    246.23372 
   24900    139.24679   -1229.2368    132431.44   -34020.711    2629.8723   -36650.584    75.987269    246.71914 
   24950    139.48896   -1257.9129    132487.64   -34044.712     2634.446   -36679.158    76.029079    247.14822 
   25000    139.94873   -1162.3652    132570.69   -34017.549    2643.1294   -36660.679    76.246883    247.96284 
   25050    138.16917   -1146.8207    132549.98   -33976.403      2609.52   -36585.923    76.426877    244.80981 
   25100    138.98921   -1199.4674    132604.08   -34033.358    2625.0075   -36658.366     76.66647    246.26276 
   25150    138.18107   -1282.9548    132633.99    -33991.04    2609.7447   -36600.784    76.873227    244.83089 
   25200    141.07316   -1251.9487    132584.54   -33949.182    2664.3659   -36613.548    77.195147    249.95513 
   25250    137.73685   -1424.2682       132519   -33952.797    2601.3549   -36554.152     77.45323    244.04381 
   25300    140.88678   -1013.7913    132538.74   -33936.882    2660.8459   -36597.728    77.280571     249.6249 
   25350    137.95317   -1258.8383    132537.96   -33968.226    2605.4405   -36573.667    77.279571     244.4271 
   25400    140.20552   -1298.3477    132552.71   -34002.878    2647.9793   -36650.857    77.590463    248.41783 
   25450    139.36642   -1192.0912    132528.16   -33981.773    2632.1316   -36613.904    77.738758     246.9311 
   25500     139.5818   -1410.4753    132521.53   -33873.617    2636.1995   -36509.817    77.729396    247.31273 
   25550    143.55885   -1171.3365     132538.8   -33908.819    2711.3117   -36620.131    77.611441    254.35931 
   25600    144.35989   -768.27385    132503.55   -33931.287    2726.4404   -36657.728    77.835311     255.7786 
   25650    141.62184   -1077.6428    132572.32     -33908.4    2674.7285   -36583.129    78.497526    250.92729 
   25700    142.10836   -1106.8859    132603.22   -33903.462     2683.917    -36587.38    78.575637     251.7893 
   25750    139.66812   -1472.0214    132584.12   -33932.774    2637.8298   -36570.604    78.630581    247.46567 
   25800    140.60365   -1223.8597    132528.14   -33985.692    2655.4986   -36641.191     78.72288    249.12325 
   25850    139.21309   -1049.3965    132629.58   -33971.391    2629.2358   -36600.627    79.035837    246.65943 
   25900    140.90282   -1398.0178    132623.73   -34019.644    2661.1488   -36680.793    79.291143    249.65332 
   25950    138.01622   -1438.9415     132578.6   -34081.428    2606.6313    -36688.06    79.136664    244.53881 
   26000    139.26713   -1202.9916    132455.82   -34069.151    2630.2565   -36699.407    79.195522    246.75519 
   26050    136.11985   -1273.7301    132501.62   -34079.688    2570.8157   -36650.504    79.320347     241.1788 
   26100     139.8182   -1168.2996    132532.24   -34052.084    2640.6642   -36692.748    79.517524    247.73157 
   26150    137.96369   -1199.1852    132511.77   -34046.516    2605.6392   -36652.155    79.795426    244.44574 
   26200    141.05186   -997.74637    132460.88   -34097.909    2663.9635   -36761.873    79.695825    249.91738 
   26250    136.02426   -1356.9195    132420.15   -34108.967    2569.0102   -36677.978    79.753447    241.00942 
   26300    138.79438   -1346.9934    132427.85   -34072.996     2621.328   -36694.324     80.02503    245.91756 
   26350    137.85462   -1332.7367    132449.62   -34071.148    2603.5793   -36674.728    80.075244    244.25249 
   26400    139.01482   -1095.2459    132514.21   -34006.323    2625.4912   -36631.814     80.34586    246.30814 
   26450    136.88935   -1199.1082    132443.59   -34025.483    2585.3488   -36610.832    80.432691    242.54221 
   26500    138.23239   -1307.1127    132459.73   -34065.268    2610.7139   -36675.982    80.681234    244.92181 
   26550    142.88534   -1160.0219    132434.06   -33985.143    2698.5915   -36683.734    80.944595    253.16597 
   26600    138.34143   -1017.0825    132435.11   -34065.464    2612.7733   -36678.237    81.176838    245.11502 
   26650    135.82582   -1158.8552     132546.3   -34074.456    2565.2625   -36639.718    81.162368    240.65784 
   26700    137.35804   -1403.0821    132580.73   -34064.868    2594.2006   -36659.069    81.462179    243.37264 
   26750    140.83474   -1407.2712    132510.73   -34055.592    2659.8631   -36715.456    81.609312     249.5327 
   26800    141.85199   -1181.5554    132452.94   -34059.752    2679.0752   -36738.827     81.67011    251.33507 
   26850    140.28427   -989.01562    132528.76   -34024.118    2649.4665   -36673.585    81.602712    248.55736 
   26900    139.24303   -1365.7552    132439.38   -34062.002    2629.8013   -36691.803    81.646371    246.71248 
   26950    136.98427   -1237.7438    132411.49    -34073.64    2587.1414   -36660.781     81.61784    242.71038 
   27000    138.60117   -1063.5447    132435.89   -34072.342    2617.6788   -36690.021    81.588937    245.57522 
   27050    139.34889   -1232.5292     132481.8   -34064.613    2631.8007   -36696.414    81.730145    246.90005 
   27100    136.67742    -1120.921     132444.6   -34060.385    2581.3461   -36641.731    81.860502     242.1667 
   27150    137.99053   -1458.9463    132425.64   -34072.305    2606.1461   -36678.451    82.124975    244.49329 
   27200    141.32752   -1173.2342     132406.8   -34022.497    2669.1698   -36691.667    82.181925     250.4058 
   27250      136.799   -1022.8465    132487.97   -34019.642    2583.6423   -36603.284    82.297302    242.38212 
   27300    139.25331   -1193.8558    132548.23   -33968.471    2629.9955   -36598.466    82.439583     246.7307 
   27350    142.37012   -1210.2329    132445.81   -33950.033    2688.8608   -36638.894    82.279751     252.2531 
   27400    142.16439   -949.50466    132408.05   -33892.675    2684.9753    -36577.65    82.602295    251.88858 
   27450     139.7184   -928.86063    132443.01    -33926.29    2638.7793   -36565.069     82.88144    247.55474 
   27500     139.7249    -929.9375     132470.6   -33994.071    2638.9021   -36632.973    83.119328    247.56627 
   27550    138.72786    -1095.726    132470.18   -33977.479    2620.0715    -36597.55    83.051683    245.79969 
   27600     140.4481   -1090.8969    132510.42   -33980.809    2652.5608    -36633.37    83.273449    248.84764 
   27650    141.55122   -1089.7047     132575.7   -33961.004    2673.3947   -36634.399    83.480538    250.80216 
   27700    136.39008   -1198.0769    132686.28   -33989.201    2575.9194    -36565.12    84.001057     241.6576 
   27750    143.03598   -1460.8362    132698.52   -33923.065    2701.4366   -36624.502    83.907056    253.43288 
   27800     140.3936   -1106.9455    132626.95   -34002.575    2651.5315   -36654.106    83.889269    248.75108 
   27850    138.39429   -1612.3549    132592.64   -34002.252    2613.7716   -36616.024    83.828991    245.20867 
   27900     139.9751   -1310.2072     132544.4    -33956.24    2643.6274   -36599.868    84.143333    248.00957 
   27950    142.74464   -1189.7511    132536.59   -33915.599    2695.9342   -36611.534    84.547905    252.91668 
   28000    141.94022   -1094.1232     132506.4   -33965.239    2680.7416    -36645.98    85.000098     251.4914 
   28050       141.55   -1081.8618    132558.93   -33961.301    2673.3717   -36634.673    84.846947        250.8 
   28100    142.86575   -1414.1955    132554.24   -33913.898    2698.2214   -36612.119    85.111657    253.13125 
   28150    139.87583   -1129.1322    132580.05   -33913.836    2641.7526   -36555.589    84.941637    247.83368 
   28200    141.81592    -1264.865    132722.48   -33945.159    2678.3939   -36623.553    85.080612    251.27115 
   28250    138.04051   -1453.8923    132666.99   -33957.528      2607.09   -36564.618    85.338756    244.58185 
   28300    141.57284   -1101.0993    132624.31   -34020.473     2673.803   -36694.276    85.244215    250.84046 
   28350    140.38876   -1170.7806    132654.99   -34025.162      2651.44   -36676.602    85.504184     248.7425 
   28400    139.87255   -1177.1946    132639.45   -34018.068    2641.6907   -36659.759    85.777025    247.82788 
   28450    139.57613   -1175.7563    132633.06   -34049.328    2636.0924    -36685.42    85.971803    247.30268 
   28500    140.32435   -1081.2659    132712.04   -34045.658    2650.2235   -36695.882    86.458296    248.62838 
   28550    141.08229   -1373.2801    132737.35   -34050.021    2664.5383   -36714.559    86.734481    249.97131 
   28600    138.12199   -1157.4549    132690.49   -34113.525    2608.6289   -36722.154    86.837722    244.72621 
   28650    140.13739   -1074.6965     132668.5   -34090.071    2646.6926   -36736.764    86.774974    248.29712 
   28700    137.64997   -1125.8739    132700.52   -34112.177    2599.7142   -36711.891    86.899185    243.88989 
   28750    140.00678   -1139.4809    132749.93   -34103.546    2644.2259   -36747.772     86.89803    248.06571 
   28800    141.81252   -1333.3595    132711.64   -34075.807    2678.3297   -36754.137     87.05597    251.26513 
   28850    139.16163    -1162.067    132750.83    -34115.51    2628.2639   -36743.774    87.320558    246.56825 
   28900     141.6987   -904.65839    132797.43   -34110.716    2676.1802   -36786.896    87.171748    251.06348 
   28950    141.72724   -1246.5553    132912.95   -34087.498    2676.7191   -36764.217    87.514158    251.11404 
   29000    140.53208   -1051.9351    132944.74    -34140.23    2654.1468   -36794.377    87.665454    248.99644 
   29050    137.04885   -1375.4619    132912.97    -34124.83     2588.361   -36713.191    87.803598     242.8248 
   29100    140.76513    -1112.437    132874.89   -34094.737    2658.5484   -36753.285    87.872018    249.40936 
   29150    139.80247   -1157.9951    132896.96   -34091.936    2640.3671   -36732.303    88.324329    247.70371 
   29200    138.76937   -1178.6136    132877.11   -34094.326    2620.8556   -36715.182    88.507162    245.87325 
   29250    139.08685   -1075.1011    132830.04   -34110.381    2626.8515   -36737.232    88.643655    246.43575 
   29300    142.55297   -918.01282    132894.39   -34077.359    2692.3142   -36769.673    88.925408    252.57707 
   29350    142.58976   -967.54551    132977.63   -34032.056    2693.0089   -36725.065    89.114154    252.64225 
   29400    140.47622   -1211.0356    133018.37   -34095.226    2653.0918   -36748.318     89.37049    248.89746 
   29450     139.9466    -1204.632    133006.71   -34135.747    2643.0891   -36778.836    89.682277    247.95907 
   29500    138.05505   -1134.3136    133015.21   -34147.413    2607.3646   -36754.777    89.766991     244.6076 
   29550    137.31179   -941.84151     133130.2   -34147.197     2593.327   -36740.524     89.99586    243.29068 
   29600    137.65571    -1297.461    133180.13    -34103.95    2599.8225   -36703.772    90.226411    243.90004 
   29650    140.38561    -1064.261     133162.4   -34069.402    2651.3806   -36720.783    90.442815    248.73692 
   29700    137.38432   -1168.0686    133134.28   -34085.715    2594.6969   -36680.412    90.235012     243.4192 
   29750    138.86992   -1277.7977    133129.74   -34082.514    2622.7545   -36705.268    90.388394     246.0514 
   29800    137.32956   -1312.8446    133100.79   -34116.315    2593.6628   -36709.978     90.55661    243.32218 
   29850    138.27931   -1201.7057    133110.88   -34138.419    2611.6001   -36750.019    90.948118    245.00496 
   29900    137.41152   -1294.8647    133168.14   -34148.718    2595.2106   -36743.929    91.363995    243.46739 
   29950    138.55496   -1173.3089    133025.77   -34120.285    2616.8062   -36737.091    91.377847    245.49336 
   30000    140.39283   -1226.2451    133023.41   -34091.452     2651.517   -36742.969      91.3767    248.74972 
   30050    138.21495   -1131.9868    132979.58   -34135.118    2610.3846   -36745.503    91.483873    244.89092 
   30100    140.44213   -1370.9753    132916.04   -34107.026     2652.448   -36759.474    91.655398    248.83706 
   30150    140.61321   -1167.5056     132925.7   -34067.658    2655.6791   -36723.337     91.61759    249.14019 
   30200    135.92426   -1308.9738    132896.04    -34087.46    2567.1217   -36654.582    91.764734    240.83225 
   30250    138.99788   -1162.8077    132881.93   -34109.043    2625.1714   -36734.214    91.799145    246.27813 
   30300    138.99697   -1248.5921    132872.69   -34069.338    2625.1542   -36694.493    92.038159    246.27652 
   30350    136.56834   -1357.8981     132833.8   -34060.349     2579.286   -36639.635    92.417428    241.97343 
   30400    136.40807   -1166.5467    132827.97   -34061.314    2576.2592   -36637.574    92.700943    241.68947 
   30450    141.41551   -1152.7296    132844.47   -34038.078    2670.8317    -36708.91    92.734878    250.56171 
   30500    136.53159    -1380.475    132825.92   -34088.159    2578.5919   -36666.751    93.215314    241.90832 
   30550    141.12581   -1105.0658     132724.3   -34082.584    2665.3603   -36747.944    93.467317    250.04842 
   30600    139.34424   -1137.6896    132786.86   -34041.572    2631.7129   -36673.284    93.642443    246.89182 
   30650    138.87558   -1138.1571    132797.97   -34023.552    2622.8614   -36646.413    93.932184    246.06142 
   30700    139.45994   -1091.3342    132861.07   -33980.303    2633.8979   -36614.201    93.950505     247.0968 
   30750    141.16062   -1338.6032     132878.6   -34028.986    2666.0178   -36695.004    94.124064     250.1101 
   30800    141.31828   -1283.9864     132864.8   -34021.143    2668.9954   -36690.139    94.211126    250.38944 
   30850    142.25081   -1303.3091    132858.07   -34012.827    2686.6076   -36699.434    94.134483    252.04171 
   30900    143.02701   -1338.7869    132804.07   -34023.671    2701.2671   -36724.939    93.818697    253.41699 
   30950    141.57528   -1222.8186    132805.74   -34006.015    2673.8492   -36679.865    93.981826     250.8448 
   31000    140.41489   -1295.1399    132749.32   -33936.858    2651.9336   -36588.792    94.231954     248.7888 
   31050    141.43541   -989.56179    132655.57   -33909.613    2671.2075    -36580.82     94.38419    250.59697 
   31100    141.15864   -1354.2814    132625.61   -33905.089    2665.9803   -36571.069    94.443875    250.10659 
   31150    139.63001   -1387.6778    132539.04   -33970.888      2637.11   -36607.998    94.333331    247.39814 
   31200    142.26766     -1037.39    132496.74   -33959.155    2686.9258   -36646.081    94.248959    252.07156 
   31250    139.24314   -1116.1568    132594.77   -33955.405    2629.8034   -36585.208    94.340296    246.71268 
   31300     141.8435   -1100.9466    132602.44   -33961.977    2678.9149   -36640.892    94.450523    251.32003 
   31350     140.2333   -1017.2286    132659.82   -34031.243    2648.5039   -36679.747    94.728534    248.46705 
   31400    137.70367   -1113.2997     132659.1   -33976.361    2600.7284   -36577.089    94.980842    243.98503 
   31450    142.40916   -772.91285    132730.26   -33943.616    2689.5981   -36633.214    94.819176    252.32226 
   31500     142.2508   -1126.8118    132802.45    -33954.14    2686.6073   -36640.748    95.137041    252.04168 
   31550     140.2184   -1230.0909    132884.76   -33937.582    2648.2225   -36585.804    95.721708    248.44065 
   31600    141.33725   -1128.7262    132885.84    -33938.84    2669.3536   -36608.194    95.788848    250.42305 
   31650    142.28701   -1141.1397    132894.93   -33940.101    2687.2911   -36627.392    96.158519    252.10584 
   31700    136.69373   -1296.2504    132890.71   -34002.787    2581.6541   -36584.441    96.141582     242.1956 
   31750    138.65174   -1132.6633    132888.69   -34040.937    2618.6339   -36659.571    96.299152    245.66483 
   31800    140.30677    -1319.691     132851.8   -33964.698    2649.8914   -36614.589    96.458167    248.59722 
   31850    142.76806   -1275.8714    132852.01   -33963.102    2696.3764   -36659.478    96.556144    252.95817 
   31900    142.58463   -1094.8845    132794.81   -33985.967    2692.9122   -36678.879    96.845751    252.63317 
   31950    140.95105   -1292.7597    132791.58   -33986.629    2662.0596   -36648.689    97.016847    249.73877 
   32000     140.3001   -1145.7068    132757.86   -34038.767    2649.7656   -36688.533    97.260072    248.58541 
   32050    141.27653   -1014.0463    132743.02   -34044.216    2668.2068   -36712.422    97.454217    250.31546 
   32100    138.34825   -1139.6561    132729.59   -34122.625    2612.9021   -36735.527    97.949397     245.1271 
   32150    138.86114   -1174.6237    132749.82   -34072.842    2622.5888    -36695.43    98.334604    246.03585 
   32200    138.50393   -1423.3264    132738.72   -34025.581    2615.8424   -36641.424    98.632369    245.40294 
   32250    140.35247   -1340.6589    132721.63   -34007.083    2650.7547   -36657.838     98.92044    248.67821 
   32300    140.42979   -1079.8992    132664.45    -34004.99     2652.215   -36657.205    99.089437     248.8152 
   32350    140.95104   -989.97228    132715.16   -34062.616    2662.0594   -36724.676    99.559137    249.73875 
   32400    138.06446   -1234.9223    132723.95   -34061.627    2607.5423    -36669.17    99.599496    244.62427 
   32450    138.55359   -1312.3284    132748.22   -34020.313    2616.7802   -36637.093    99.892181    245.49092 
   32500    138.81203   -1227.2465    132706.77   -34030.147    2621.6612   -36651.808     99.92885    245.94883 
   32550    137.35381   -1229.6446    132752.09   -34066.322    2594.1206   -36660.443    100.19519    243.36513 
   32600    138.39035   -1158.6398    132657.46   -34031.123    2613.6973    -36644.82    100.38121     245.2017 
   32650    140.73722   -968.86543    132699.19   -34018.446    2658.0211   -36676.467    100.72228     249.3599 
   32700    143.25863    -1465.016    132703.99   -33978.921    2705.6417   -36684.562    100.85502    253.82738 
   32750    140.43915   -1303.9882    132620.22   -34009.719    2652.3918   -36662.111    101.24359    248.83179 
   32800    136.39318   -1363.8669    132536.42   -34096.021    2575.9778   -36671.999    101.18968    241.66308 
   32850    141.50983   -1152.8376     132446.7   -34058.255     2672.613   -36730.868    100.96186    250.72883 
   32900    140.83017   -972.48423    132533.11   -34048.529    2659.7768   -36708.306    101.26632     249.5246 
   32950    140.04417   -1288.0809     132464.4   -34050.263    2644.9319   -36695.195    101.41033    248.13195 
   33000    138.74194   -1373.4164    132488.71   -34046.939    2620.3374   -36667.276    101.50217    245.82464 
   33050    138.21164   -1217.9132    132506.96   -34034.021    2610.3221   -36644.343    101.60874    244.88505 
   33100    141.17727   -1255.3224    132462.71   -34035.273    2666.3322   -36701.605    101.79949     250.1396 
   33150    137.52904   -1056.0563     132457.6   -34131.176    2597.4303   -36728.606    101.94466    243.67562 
   33200    138.97908   -1159.3902    132495.88   -34092.839    2624.8163   -36717.655    102.09512    246.24481 
   33250    137.43259   -1537.8324    132523.67    -34079.52    2595.6086   -36675.129    102.34834    243.50472 
   33300    139.06476   -1295.1701    132493.58   -34051.103    2626.4344   -36677.538    102.49107    246.39662 
   33350     142.0879   -999.31925    132483.95   -33999.141    2683.5306   -36682.671     102.7255    251.75305 
   33400    141.82294   -1052.2212    132410.69   -34036.887    2678.5266   -36715.414     102.8852     251.2836 
   33450    139.34965   -1060.5369    132402.36   -34063.548     2631.815   -36695.363    103.05187     246.9014 
   33500    139.85695   -1244.3047    132459.62   -34024.434     2641.396    -36665.83    103.39461    247.80023 
   33550    140.77629   -1444.1677    132488.08   -33997.845    2658.7591   -36656.604     103.3573    249.42913 
   33600    140.29029   -1361.6145    132421.21   -34010.056    2649.5803   -36659.636    103.46236    248.56803 
   33650     140.3728   -1229.9617    132412.61   -33994.131    2651.1386    -36645.27    103.76836    248.71423 
   33700    138.83163    -1242.548    132422.01    -33997.34    2622.0314   -36619.371    104.06224    245.98355 
   33750     138.4223   -1018.0569    132524.24   -33970.854    2614.3007   -36585.155     104.1654    245.25831 
   33800    140.54064   -1210.3289    132574.67   -33960.963    2654.3084   -36615.271     104.2665     249.0116 
   33850     142.5651   -1310.2286    132646.86   -33927.439    2692.5432   -36619.982    104.47077    252.59856 
   33900     142.1488   -1348.7626    132630.55   -33993.886    2684.6808   -36678.567    104.83184    251.86095 
   33950     138.4198   -1419.1881    132568.23    -34058.11    2614.2535   -36672.364    104.85493    245.25388 
[...]
   92000    138.06213   -1258.7335    133647.01   -34085.606    2607.4982   -36693.104    288.07029    244.62014 
   92050    135.92259   -1012.6308    133669.43   -34111.234    2567.0901   -36678.324    288.16623    240.82929 
   92100     139.4822   -1084.7625    133678.37   -34031.045    2634.3183   -36665.363    288.00465    247.13624 
   92150    140.55793   -1277.2745    133654.26   -34040.609    2654.6351   -36695.245    288.09358    249.04225 
   92200    139.07584   -1327.7003    133623.09    -34035.99    2626.6437   -36662.634    288.04984    246.41625 
   92250     142.5863   -1232.6725    133555.06   -34012.639    2692.9437   -36705.582    288.02435    252.63613 
   92300    140.79014   -1098.8849    133626.71   -34011.636    2659.0206   -36670.656    288.05355    249.45367 
   92350    140.34386   -824.31714       133688   -33993.859     2650.592   -36644.451    288.39594    248.66294 
   92400    143.08977   -1308.0901    133671.43   -33985.339    2702.4523   -36687.792    288.73814    253.52818 
   92450     140.6835   -1306.9768    133650.81   -34037.363    2657.0066    -36694.37    289.05923    249.26473 
   92500    140.46115    -1353.606    133547.11    -34116.12    2652.8073   -36768.928    288.60107    248.87077 
   92550     140.5426   -1286.6715    133547.57    -34107.15    2654.3455   -36761.495     288.7202    249.01508 
   92600      140.338   -1166.6263    133611.56   -34177.352    2650.4813   -36827.833    288.95492    248.65256 
   92650    141.23838   -1304.8833    133639.64   -34133.979    2667.4862   -36801.466    289.09697    250.24786 
   92700    140.61446   -1289.8956    133612.13    -34166.22    2655.7028   -36821.922    288.98066    249.14241 
   92750     141.5153   -1140.7258    133571.28   -34136.116    2672.7163   -36808.832    289.08856    250.73852 
   92800    140.34261   -1186.4771    133544.29   -34168.675    2650.5685   -36819.244    289.38539    248.66074 
   92850    139.26676   -1405.9104     133503.4    -34171.17    2630.2495    -36801.42    289.20007    246.75453 
   92900    136.73444   -1318.6366    133460.25   -34123.149     2582.423   -36705.572    289.71834    242.26773 
   92950    142.81803   -1244.0515    133545.04   -34143.368    2697.3202   -36840.688    289.73947    253.04671 
   93000    138.44439   -1254.7263    133488.94   -34157.305    2614.7179   -36772.023    289.45157    245.29745 
   93050    139.42858   -1350.4894    133518.29   -34114.539    2633.3056   -36747.844    289.47712    247.04124 
   93100    140.43062   -1285.7309    133448.42    -34156.05    2652.2307    -36808.28    289.52815    248.81667 
   93150    142.83541   -1267.8842    133458.43   -34076.277    2697.6485   -36773.926    289.66156    253.07751 
   93200    139.65705   -1446.5113    133458.35   -34103.551    2637.6207   -36741.172    290.05669    247.44605 
   93250    145.88009   -1039.2371    133374.53   -34114.806    2755.1516   -36869.957    290.23265    258.47211 
   93300    140.32696   -973.29993    133342.87   -34113.205    2650.2728   -36763.477    290.32512      248.633 
   93350    139.73953    -1037.888    133337.43   -34177.224    2639.1784   -36816.402    290.62239    247.59219 
   93400    139.40404   -1443.4818    133263.56   -34131.929    2632.8421   -36764.771    290.78704    246.99776 
   93450    138.80441   -1231.2386    133196.38   -34162.467    2621.5174   -36783.984    290.88201    245.93534 
   93500    138.67501   -1349.0227    133100.25   -34178.906    2619.0735    -36797.98    290.99361    245.70606 
   93550     139.7635   -1239.6156    133011.81   -34137.378    2639.6311   -36777.009    291.29006    247.63466 
   93600    140.40742   -1287.6404     133054.4   -34083.149    2651.7925   -36734.942    290.97021    248.77556 
   93650     141.3283   -1506.0158    132914.01   -34117.266    2669.1846    -36786.45    290.88842    250.40719 
   93700    140.02249    -1002.772     132824.7   -34078.998    2644.5225   -36723.521    291.04917    248.09354 
   93750    142.54539   -1099.6941    132825.29   -34053.619     2692.171    -36745.79    291.13526    252.56364 
   93800     142.2301   -929.82951    132903.63   -34062.599    2686.2162   -36748.816    291.54907      252.005 
   93850    138.85736   -1073.4813    132970.06   -34097.877    2622.5173   -36720.394    291.48153    246.02914 
   93900    139.13978   -964.13362    133036.72   -34110.651    2627.8513   -36738.502    291.26278    246.52954 
   93950    140.08606   -1029.0469    133059.31   -34101.173    2645.7231   -36746.896    291.63285    248.20617 
   94000    138.72052   -1090.0269    133109.15   -34125.183     2619.933   -36745.116     291.3383     245.7867 
   94050    138.12852    -1268.098    133044.53   -34174.933    2608.7523   -36783.685    291.55895    244.73779 
   94100    140.67943   -1257.0818    133048.46   -34160.748    2656.9297   -36817.677    291.76282    249.25751 
   94150    142.55534   -1370.8262    133006.51   -34121.229     2692.359   -36813.588    291.99249    252.58128 
   94200    143.58104    -1125.985    133125.89   -34055.561    2711.7307   -36767.291    291.89211    254.39862 
   94250    141.54696   -1365.2481     133032.8   -34037.052    2673.3143   -36710.367    291.84992    250.79462 
   94300    139.92641   -1014.1837    132946.23   -34065.753    2642.7078   -36708.461     291.5245     247.9233 
   94350    141.95615   -1248.3694    132962.26   -34071.191    2681.0424   -36752.233    291.90284    251.51962 
   94400    142.40556   -1172.7774    132925.13   -34050.421    2689.5302   -36739.952    292.06833     252.3159 
   94450    139.49657   -1063.6449    132877.42    -34071.53    2634.5898   -36706.119    291.93751    247.16171 
   94500    142.81891   -1084.6439     132934.4   -34043.199    2697.3368   -36740.536    292.06736    253.04826 
   94550    140.80176   -1084.3311    132962.51   -34102.923    2659.2402   -36762.164    292.44794    249.47427 
   94600     139.7656   -1193.7239    132941.15   -34106.874    2639.6709   -36746.545    292.76728    247.63839 
   94650    139.82324   -1263.2082    132881.61   -34083.317    2640.7594   -36724.076    292.68407    247.74051 
   94700    141.61253    -1386.089     132874.9   -34046.948    2674.5526     -36721.5    293.19372    250.91079 
   94750    140.68874   -1227.9061    132805.94   -34022.325    2657.1055    -36679.43    293.53194      249.274 
   94800    142.04774   -1049.6754    132757.65   -34031.172    2682.7723   -36713.944    293.28693    251.68191 
   94850    140.97471   -1258.9682    132766.17   -34014.479    2662.5066   -36676.985    293.45267     249.7807 
   94900    142.18051   -1264.7967    132736.39   -33973.251    2685.2797    -36658.53    294.11929    251.91714 
   94950    142.86253   -1071.1853    132741.04   -33959.994    2698.1607   -36658.155    294.13038    253.12556 
   95000    142.48645   -1289.6964    132811.14   -33964.617    2691.0578   -36655.674    294.23421    252.45921 
   95050    139.72344   -1004.1849    132846.08   -33997.995    2638.8745    -36636.87     294.7389    247.56368 
   95100    141.11567   -1108.0173    132931.05   -33969.944    2665.1687   -36635.113    294.82441    250.03044 
   95150    140.39601   -1223.1307    132926.54   -33948.218     2651.577   -36599.795    295.02971    248.75535 
   95200     143.2677   -1274.6742    132903.99   -34013.796    2705.8129   -36719.609    295.44409    253.84345 
   95250    141.85076   -1244.5894    132853.81   -34052.989     2679.052   -36732.041    295.56325    251.33289 
   95300    137.47935   -1123.4828    132842.74   -34050.181    2596.4916   -36646.673    296.12803    243.58757 
   95350    145.12235   -1071.8823    132778.51   -34011.124    2740.8406   -36751.965     296.2522    257.12954 
   95400     139.4587   -1118.2555    132841.03    -34018.71    2633.8745   -36652.584    296.59052    247.09461 
   95450    142.13058    -923.7235    132939.38   -34016.527    2684.3368   -36700.863    297.00244    251.82868 
   95500    143.13586   -1417.8336     132973.8   -34016.413    2703.3228   -36719.736     297.1124    253.60984 
   95550    140.71525   -1092.5715    133013.58   -34025.617    2657.6062   -36683.223    297.31538    249.32098 
   95600    140.07268   -1160.3674    133082.74   -34044.274    2645.4703   -36689.745    297.74034    248.18246 
   95650    140.45081   -1237.9344    133032.05   -34027.137    2652.6119   -36679.748     297.6286    248.85243 
   95700    138.92667   -1012.5834    132936.51   -34098.736    2623.8265   -36722.563    297.47582    246.15196 
   95750    140.19494    -1150.207    132953.17   -34062.946    2647.7795   -36710.725    297.66533     248.3991 
   95800    136.55637   -1186.1117    133024.65   -34092.965      2579.06   -36672.025    297.66462    241.95223 
   95850    137.47898   -1072.8566    133007.18    -34149.88    2596.4848   -36746.365    298.13283    243.58693 
   95900    138.21527   -1283.3623    133001.92   -34136.148    2610.3906   -36746.539    298.10177    244.89149 
   95950    139.74384   -1255.7666    132976.57   -34091.245    2639.2599   -36730.504    298.05391    247.59983 
   96000    140.71287   -1238.3354    133014.68   -34056.021    2657.5612   -36713.582    297.71108    249.31676 
   96050    141.35619   -1058.1754    132934.69   -34023.521    2669.7114   -36693.232    298.04375    250.45661 
   96100    140.53834   -1294.6995    132952.89   -34015.478    2654.2651   -36669.743    298.11994    249.00754 
   96150    141.75953   -1430.3832    132914.13   -34034.723     2677.329   -36712.052    298.34739    251.17125 
   96200    141.66602   -1170.1898    132868.03   -34041.417    2675.5629    -36716.98    298.61643    251.00557 
   96250    142.66044    -996.1602     132917.3   -34049.567     2694.344   -36743.911    299.26531     252.7675 
   96300    139.56552   -1135.2637    133016.74   -34038.862     2635.892   -36674.754    299.42765    247.28387 
   96350    140.27045   -1374.4343    133024.43   -34047.335    2649.2057   -36696.541    299.26706    248.53289 
   96400    140.48979   -1308.9421     133103.5    -34072.53    2653.3482   -36725.878    299.84936    248.92152 
   96450    141.02446   -1273.0671       133169    -34059.16    2663.4462   -36722.606    300.26883    249.86885 
   96500     139.4432   -1225.1117     133152.9   -34035.789    2633.5818   -36669.371    300.15566    247.06715 
   96550     137.7889   -1229.1609    133149.13   -34036.448     2602.338   -36638.786    300.31271    244.13604 
   96600    139.24319   -1205.5168    133117.81   -34037.416    2629.8044    -36667.22    300.45387    246.71277 
   96650    140.70012   -1178.2522    133184.06   -34025.845    2657.3205   -36683.166    300.39296    249.29417 
   96700    140.82771   -1065.6648     133219.2   -34028.468    2659.7302   -36688.198    300.03461    249.52024 
   96750    138.45152   -1675.1445     133106.2   -34070.744    2614.8526   -36685.597    299.94697    245.31008 
   96800    139.10995   -1246.2687    132996.65   -34070.099    2627.2879   -36697.387    299.59513    246.47669 
   96850    138.84367   -1257.0811     132907.3    -34134.12    2622.2589   -36756.378    300.00182     246.0049 
   96900    141.04421   -1325.4094    132852.18   -34101.439    2663.8191   -36765.258    300.03772    249.90383 
   96950    138.75592   -922.91667    132815.97   -34097.466    2620.6015   -36718.068    300.04261    245.84941 
   97000    141.41175   -1201.0363    132806.81   -34070.716    2670.7606   -36741.476     300.0402    250.55504 
   97050    140.92948   -1284.1556    132845.93    -34075.58    2661.6524   -36737.233     300.7027    249.70056 
   97100    137.10256   -1377.1747    132908.71   -34091.639    2589.3755   -36681.014    301.17773    242.91997 
   97150    140.76847   -1350.8259    132907.32   -34061.769    2658.6113    -36720.38    300.78612    249.41527 
   97200    140.15191   -1201.2627    132967.06   -34074.984    2646.9667    -36721.95    301.43466    248.32284 
   97250    141.19117   -1315.1997    132945.01   -34087.248    2666.5947   -36753.843    301.79698    250.16422 
   97300    139.33562   -1261.2749    132916.33   -34062.096      2631.55   -36693.646    302.33504    246.87654 
   97350    141.41362   -1400.9519    132916.03   -34024.846     2670.796   -36695.642    302.19977    250.55837 
   97400    140.77253   -1378.4597    132904.95   -34019.395    2658.6881   -36678.083    302.10788    249.42247 
   97450     142.5482   -1174.6727    132893.23   -33993.108    2692.2241   -36685.332    302.25587    252.56862 
   97500    137.32439    -1310.293    132920.85   -34034.632     2593.565   -36628.197    302.54354    243.31301 
   97550     139.3477   -1391.8833    132879.27   -34046.667    2631.7781   -36678.445    302.88298    246.89793 
   97600    144.22523   -1044.3248    132842.15   -33953.987    2723.8972   -36677.884    303.27405       255.54 
   97650    144.10196   -1080.1042    132967.47   -33973.187     2721.569   -36694.756      303.481    255.32159 
   97700    141.85293   -1242.9587    133024.32   -34012.058     2679.093   -36691.151    303.77388    251.33674 
   97750    138.79545   -1202.5715    132937.45   -34013.758    2621.3481   -36635.107    303.74857    245.91946 
   97800    139.22478   -1172.1507    132990.11   -34048.022    2629.4566   -36677.478    304.07893    246.68014 
   97850    138.80932   -1295.8289    132959.66   -34099.087    2621.6101   -36720.698    304.41918    245.94404 
   97900    141.65746   -1188.4925    132938.26   -34044.038    2675.4013    -36719.44    304.56664    250.99041 
   97950     136.3036   -1188.7056    132901.58   -34087.165    2574.2861   -36661.451    304.82775    241.50437 
   98000    137.02685   -1231.9075    132902.86   -34139.045    2587.9455   -36726.991    304.72116    242.78582 
   98050    138.38351   -1296.2967    132950.93   -34096.944     2613.568   -36710.512    305.18292    245.18957 
   98100    138.29696    -929.7852    132982.52   -34099.945    2611.9334   -36711.878    305.20438    245.03622 
   98150    140.75511   -1159.8623    133095.22   -34079.879     2658.359   -36738.238    305.31091     249.3916 
   98200    139.97712   -1412.7032    133125.08   -34068.398    2643.6657   -36712.063    305.66786    248.01316 
   98250    140.08379   -1213.7152    133222.19   -34078.507    2645.6802   -36724.187    305.43795    248.20215 
   98300    137.28456   -1110.2525    133250.14    -34084.96    2592.8128   -36677.773    305.49985    243.24244 
   98350    138.43653   -1193.0353    133145.86   -34109.135    2614.5695   -36723.704    305.70341    245.28352 
   98400    139.62266    -1183.234    133096.12   -34152.752    2636.9712   -36789.723    305.54539    247.38512 
   98450     138.5192   -1356.6664    133051.75   -34104.049    2616.1308   -36720.179    305.52614       245.43 
   98500    138.87479   -1166.4446    133068.48   -34119.425    2622.8467   -36742.272    305.92695    246.06004 
   98550     137.5117   -1029.7785    133105.69    -34123.41    2597.1027   -36720.513    306.08234    243.64489 
   98600    141.59414   -1274.6441    133061.44   -34073.794    2674.2053   -36747.999    306.30938     250.8782 
   98650    139.99198   -936.17962    133059.81   -34082.515    2643.9462   -36726.462    306.67785    248.03948 
   98700    139.58274   -845.33851    133113.36   -34088.921    2636.2173   -36725.138    306.54128    247.31439 
   98750    138.93495   -1201.3386    133025.69   -34123.188    2623.9827    -36747.17    306.16447    246.16662 
   98800    141.02805   -1261.1527    132903.88   -34158.497     2663.514   -36822.011    306.00832    249.87521 
   98850    140.47932   -1028.6986    132912.24   -34087.474    2653.1504   -36740.624    305.99702    248.90296 
   98900    137.04954   -1052.7221    132865.71   -34082.528    2588.3741   -36670.902    305.73379    242.82602 
   98950    137.01833   -1109.1895    132877.18   -34128.667    2587.7848   -36716.451    306.01111    242.77074 
   99000    142.72108   -983.66817    132841.79   -34095.919    2695.4891   -36791.409     306.1688    252.87493 
   99050    138.29644   -1044.9258     132842.9    -34102.01    2611.9235   -36713.933    306.08097     245.0353 
   99100    144.26757   -1108.8259    132872.75   -34067.333    2724.6967    -36792.03    306.39452    255.61501 
   99150     139.8771   -1196.0388     132937.5    -34111.96    2641.7766   -36753.736    306.57906    247.83593 
   99200    139.93997   -1222.5832    132977.69   -34118.775     2642.964   -36761.739    306.27048    247.94733 
   99250    138.61418   -1341.9435    133014.76   -34106.849    2617.9246   -36724.773    306.63088    245.59828 
   99300    137.50819   -1391.3052    133033.51   -34153.705    2597.0363   -36750.742    306.81749    243.63867 
   99350    138.78116   -1338.0663    133022.67   -34126.294    2621.0782   -36747.372    307.12142    245.89413 
   99400    135.91326   -1338.8308    133008.63   -34146.194    2566.9139   -36713.107    307.64809    240.81275 
   99450    140.79847   -1256.9933    132970.67   -34115.508    2659.1779   -36774.685    307.56303    249.46842 
   99500     135.8988   -1291.9683    132999.04   -34146.734    2566.6408   -36713.374     307.8425    240.78713 
   99550    139.42562   -1168.4479    132961.22     -34119.4    2633.2499   -36752.649    307.53509    247.03601 
   99600    138.98351   -1134.2331     132892.7    -34122.43       2624.9    -36747.33    307.67506    246.25267 
   99650    138.25835   -1255.7758    132835.19    -34094.85    2611.2043   -36706.054    307.95129    244.96782 
   99700    139.82421   -1058.3027    132813.62   -34068.166    2640.7776   -36708.944      308.047    247.74222 
   99750    137.45975   -1234.0945    132843.95   -34057.897    2596.1215   -36654.018    307.83745    243.55284 
   99800    141.91752   -1036.6553    132827.92   -34078.127    2680.3128    -36758.44     308.0205    251.45117 
   99850    139.95828   -981.84892    132964.15   -34074.806    2643.3099   -36718.116    308.45955    247.97978 
   99900    142.59675   -1115.5696    132976.65   -34039.561     2693.141   -36732.702    309.12348    252.65464 
   99950    140.19011   -1118.0911    133050.92   -34051.115    2647.6882   -36698.804    309.14724    248.39053 
  100000    139.40055   -1421.6362     133076.1   -34118.478    2632.7762   -36751.254    309.41224    246.99157 
Loop time of 49.4393 on 128 procs for 100000 steps with 6337 atoms

Performance: 873.799 ns/day, 0.027 hours/ns, 2022.683 timesteps/s
96.5% CPU use with 128 MPI tasks x no OpenMP threads

MPI task timing breakdown:
Section |  min time  |  avg time  |  max time  |%varavg| %total
---------------------------------------------------------------
Pair    | 5.0032     | 12.226     | 33.7       | 304.6 | 24.73
Neigh   | 0.43041    | 0.94437    | 2.9294     |  83.2 |  1.91
Comm    | 5.4757     | 14.554     | 37.549     | 303.1 | 29.44
Output  | 0.16367    | 0.16652    | 0.17619    |   0.4 |  0.34
Modify  | 3.6966     | 20.794     | 36.716     | 334.3 | 42.06
Other   |            | 0.7543     |            |       |  1.53

Nlocal:    49.5078 ave 136 max 26 min
Histogram: 92 4 0 4 12 0 0 0 3 13
Nghost:    562.648 ave 955 max 372 min
Histogram: 64 0 0 32 0 0 0 0 14 18
Neighs:    0 ave 0 max 0 min
Histogram: 128 0 0 0 0 0 0 0 0 0
FullNghs:  3981.7 ave 17000 max 943 min
Histogram: 96 0 0 1 15 0 0 0 1 15

Total # of neighbors = 509658
Ave neighs/atom = 80.4258
Neighbor list builds = 6116
Dangerous builds = 0

write_data		${DIR}/data.eq-${NAME}-${TEMP}
write_data		run_15/data.eq-${NAME}-${TEMP}
write_data		run_15/data.eq-het_freeze_15-${TEMP}
write_data		run_15/data.eq-het_freeze_15-248
undump          1

reset_timestep  0

unfix           2
unfix           3
unfix           4


################################################
#######         Run Simulation         #########
################################################

log				${DIR}/log.run_${NAME}
log				run_15/log.run_${NAME}
log				run_15/log.run_het_freeze_15
