LAMMPS data file via write_data, version 16 Mar 2018, timestep = 6000000

6489 atoms
2 atom types

0.0000000000000000e+00 4.9219999999999999e+01 xlo xhi
0.0000000000000000e+00 4.9019635930410494e+01 ylo yhi
6.7695700972184270e-01 5.9385042990270705e+01 zlo zhi

Masses

1 18.015
2 12.01

Atoms # atomic

1960 1 2.1802728155134736e+00 2.4596316134919443e+00 2.3496068128003604e+00 3 0 0
6220 1 4.8490147828079957e+00 2.6363173803062727e+00 3.0237659536810346e+00 1 2 1
1410 1 9.5014533511093084e+00 2.3766862367204187e+00 2.5433844540649524e+00 2 0 1
1342 1 3.0754810808897082e-01 9.3855432475055647e+00 3.4001541995188678e+00 2 -1 1
6424 1 6.6461670861255862e-01 4.5811576770091884e+00 2.9129779594019141e+00 -1 1 0
3143 1 1.5281768229627701e+00 7.1794336043609004e+00 2.1600000178540713e+00 1 0 0
5300 1 4.0602992513761320e+00 7.1633873480244503e+00 3.3437479579999234e+00 1 0 0
426 1 5.6170174118546372e+00 5.1079442507266926e+00 2.1308538583590053e+00 0 -1 0
1982 1 8.0657312529874812e+00 4.7337954847253814e+00 3.4150000939764995e+00 4 -1 0
201 1 8.9717823452517198e+00 7.1835812258034570e+00 2.5563118038318908e+00 1 0 0
4627 1 1.1733114875482945e+01 2.4670319149333597e+00 6.1500858590947098e+00 1 -2 1
1674 1 2.3555280979927098e-01 9.1182951221949882e+00 5.9649976745966260e+00 0 1 0
3339 1 1.1507313270445096e+00 1.1558587234189099e+01 2.2127253185854112e+00 -1 0 1
316 1 3.6804478540532939e+00 1.1868791680388957e+01 3.2325491772727424e+00 0 3 1
3355 1 5.1641388957684455e+00 9.5738529089729134e+00 2.3091423574547445e+00 -1 -1 0
6212 1 7.7222365821220267e+00 9.6238777936499815e+00 3.5562076058352567e+00 1 -1 1
2040 1 1.1363223708188237e+01 1.2027672410450849e+01 3.6371262194119098e+00 0 1 1
4550 1 1.2006731876998986e+01 2.6312178665475110e+00 3.2801742196192580e+00 2 0 1
2091 1 4.7087757100171439e+00 2.3998346224332501e+00 5.7817300565553005e+00 0 2 0
4899 1 7.1763943281805380e+00 2.3628835331923561e+00 6.8195589619327572e+00 0 0 1
6279 1 1.0334794596065198e+01 9.8081193956394657e+00 6.9793163621875909e+00 0 1 1
4506 1 1.1732628184719916e+01 7.4116847173832081e+00 6.1752256256523719e+00 0 3 1
179 1 6.3264872569869484e+00 1.2011601527564407e+01 6.6550085135685100e+00 1 1 1
4912 1 3.3596720512744055e-01 4.5116801437587277e+00 5.5713255093456970e+00 1 0 0
4495 1 3.1465369465930855e+00 4.3362908351004492e+00 6.9758940061606172e+00 0 -1 1
3200 1 3.9796929653955364e+00 6.8680643051705133e+00 6.1755633212168526e+00 1 2 1
3113 1 6.6350616826493614e+00 7.4423931921388915e+00 6.8622812140800775e+00 1 -1 1
3090 1 8.0862769761265589e+00 4.8029652900090811e+00 5.9477361794998904e+00 -1 -2 0
522 1 8.9251780076979745e+00 1.2106258641448735e+01 2.7060934059618469e+00 0 2 1
6446 1 1.0467629473695313e+01 4.9841606999770587e+00 6.9537819673549608e+00 1 2 1
3139 1 3.7464751780164240e+00 1.1714332556157013e+01 5.9338854913076853e+00 2 3 1
6203 1 7.8159342064903132e+00 9.7076460272876357e+00 6.2342528151690972e+00 1 -1 0
4822 1 2.8180954614888147e+00 9.1906029814891070e+00 7.0676049211542882e+00 2 0 1
6170 1 1.1575349016212909e+01 7.2459632806695922e+00 3.5436473798353343e+00 3 0 0
163 1 1.1415402008604719e+01 1.2187562545118096e+01 6.3219316637066267e+00 -2 -2 0
1605 1 6.8063058321368308e-01 3.3504336426659620e-03 3.1433347612565212e+00 -1 0 1
3115 1 5.8630269632913379e+00 8.3352146260686766e-02 2.2499602559820682e+00 0 1 1
5396 1 8.1841397970676670e+00 6.4808096728015130e-03 6.1189135431893744e+00 2 -1 0
94 1 2.3593507967759528e+00 2.3043117942417970e+00 1.0507380331418064e+01 2 3 0
3254 1 6.8682879336588387e+00 2.6393337226542677e+00 9.2849818574133423e+00 0 -2 0
4772 1 1.0641466832668193e+01 9.8378051894405907e+00 1.3834576477018940e+01 0 0 1
3170 1 9.3779066638823725e+00 2.1711728700952171e+00 1.0038457707321653e+01 -2 0 1
4760 1 3.2623916645598943e+00 4.8959741916211392e+00 9.6295269444593732e+00 1 2 1
2988 1 1.7808687377605983e+00 6.8931515925519546e+00 1.0816381472161732e+01 -1 -1 0
6223 1 5.7958145772830720e+00 5.2134303120777155e+00 1.0484298035110832e+01 0 1 0
6103 1 6.6967361652776249e+00 7.4760137249876184e+00 9.6371563636801092e+00 0 3 1
4738 1 9.4380292265171573e+00 7.4855693376348471e+00 1.0317489812925322e+01 -2 0 1
3389 1 1.0370376968242422e+01 4.9666229969538245e+00 9.5032323041561764e+00 1 0 0
4720 1 2.5678192371987931e+00 9.3573148962957458e+00 9.6404789329335401e+00 0 0 1
3420 1 1.3683425252727415e+00 1.1700862077279012e+01 1.0503638068115926e+01 0 0 0
3584 1 5.2092006861491011e+00 9.6679360379269834e+00 1.0379542194226145e+01 2 3 0
4610 1 5.5952370029810545e+00 9.7200416955909752e+00 1.3074687824527073e+01 2 0 1
4839 1 1.0299657013916532e+01 1.0023255970786000e+01 9.7397406153677686e+00 -1 -2 1
3753 1 1.1916937194083275e+01 2.1830498007612325e+00 1.3926559495582369e+01 0 2 1
3515 1 2.0965699315665862e+00 2.4003758485503206e+00 1.3312900728833572e+01 2 2 0
3037 1 6.7249286218931204e+00 1.2254150480864796e+01 1.4151816230888020e+01 0 -1 1
2892 1 7.3092357151595602e+00 2.7647232584708767e+00 1.3972877218817441e+01 0 2 1
1462 1 9.4006861020402557e+00 1.2650984851368343e+00 1.2792545052243792e+01 0 2 1
80 1 3.3173266351667317e+00 4.8765365793631927e+00 1.4327847523910480e+01 2 3 0
18 1 1.7399974085182175e+00 6.8946948373639554e+00 1.3516214866727985e+01 0 -3 0
226 1 5.9454706867025564e+00 5.3554214841971435e+00 1.3172176451211397e+01 2 0 0
1322 1 7.0806919267906210e+00 7.5813482225019406e+00 1.4169442843992080e+01 -1 -1 1
1379 1 6.0717519614184319e+00 1.2059299325392280e+01 9.4496581218729645e+00 1 1 1
496 1 9.6539876470085559e+00 7.2602565487940582e+00 1.3206943438881657e+01 2 0 1
5144 1 3.0830830042013626e+00 9.2687978689147563e+00 1.4311988979584292e+01 -1 0 1
1795 1 1.5153454821113732e+00 1.1571876677241784e+01 1.3437872258977514e+01 1 0 0
3408 1 3.4982200636736502e+00 3.3805456064906581e-01 1.4324863828706356e+01 0 0 0
6443 1 1.1994973683867967e+01 6.3608306649652757e+00 1.4099462698522943e+01 2 0 0
3729 1 5.9813538833902902e+00 3.3222034220276531e-01 1.2992628872096931e+01 1 4 1
4675 1 8.7975598712546201e+00 1.2210856719942949e+01 1.0591598873213734e+01 1 -2 1
384 1 6.1501526533862698e+00 2.9554966545600081e-01 1.0414451507891341e+01 3 1 0
237 1 1.1003914496070246e+01 1.1027277042896571e+01 2.0986274406867199e+01 0 -1 0
5365 1 4.8160005777473991e+00 2.7941035787165500e+00 1.7975461482450843e+01 0 0 0
4562 1 7.2479913491158250e+00 3.2143828573542148e+00 1.6723564884287427e+01 0 1 1
5052 1 8.9170295752059729e+00 1.0695304327550164e+00 1.7612421938840797e+01 1 2 0
1611 1 3.6109885136610687e+00 3.2689064878162349e-01 1.7043906438562626e+01 -2 1 1
6154 1 3.2912878164935750e+00 4.9073183646198073e+00 1.7170530607801304e+01 -1 1 1
6208 1 4.5364784705979244e-01 4.5371809866619524e+00 1.7720684351874763e+01 1 3 1
2152 1 4.1265103575504707e+00 7.5649731211575899e+00 1.7768331299391008e+01 3 1 0
4944 1 6.5017211612420924e+00 8.0273006366499953e+00 1.6800918420445981e+01 0 2 0
3533 1 8.5459924514853469e+00 5.8929687989751338e+00 1.7153799392764856e+01 4 2 0
1818 1 1.1230141630950991e+01 5.9255049956685282e+00 1.6687742935301838e+01 -2 1 1
1472 1 2.5308429235729282e+00 9.9958370443404618e+00 1.6895792273938980e+01 2 -1 1
1827 1 1.1576644229135415e+01 1.7782798823494912e+00 1.6701295545364747e+01 1 0 0
6149 1 7.8821167071990663e+00 1.0156720629656906e+01 1.7818891619944235e+01 1 -2 1
4989 1 1.0569397942940526e+01 1.0397808842035150e+01 1.6614880253965346e+01 -2 0 1
3161 1 3.3265410349491913e+00 3.4355109447576188e-01 2.0872306909517903e+01 4 1 0
6462 1 4.6878629029788881e+00 2.9666664594330077e+00 2.0607896417634144e+01 0 2 0
4725 1 7.4236795104026037e+00 3.4547214637151296e+00 2.1151710058350133e+01 -1 0 1
6239 1 9.0310108841455907e+00 1.2397997187420196e+00 2.0569515741020719e+01 -1 0 1
2987 1 1.1772744463863377e+01 1.6576852455051811e+00 2.0694084201974743e+01 1 -1 1
6115 1 4.1972892305628601e-01 4.6008893972244094e+00 2.0427975006401212e+01 1 1 1
6417 1 3.2302394592297810e+00 5.2684900548237321e+00 2.1183528540838893e+01 3 -1 0
6163 1 4.3150823611727462e+00 7.6577633135888465e+00 2.0586187511014444e+01 -2 1 1
1633 1 7.0420725828288253e+00 8.0366921330781089e+00 2.1055680205183521e+01 1 1 1
4571 1 8.3832474213866561e+00 5.8025507906893408e+00 1.9878859343879494e+01 0 3 1
1646 1 1.1182947851761888e+01 6.3564909460219781e+00 2.0412256214755889e+01 0 1 0
6243 1 2.5784100738547941e+00 1.0027648492033718e+01 2.1061969762124676e+01 0 2 1
1313 1 3.6367583750805057e+00 1.2180484393649859e+01 1.7363397381733499e+01 -1 -4 1
6419 1 8.2230480114573687e+00 1.0350376575945562e+01 2.0436997154419615e+01 -1 0 1
3652 1 8.1954404806619130e-01 3.2354313046095838e-02 1.7535344309044358e+01 2 1 0
6425 1 3.7468139602235349e+00 1.2007983248139270e+01 1.9997199506768077e+01 -1 0 1
3148 1 6.3087761967308467e+00 1.2127530717561211e+01 1.6726136547840735e+01 2 1 0
3685 1 3.4715894369382712e+00 3.4682493091953831e-01 2.3777653220923575e+01 2 -1 0
4565 1 4.7697947547885144e+00 2.7795564482523654e+00 2.4269225407110625e+01 1 0 1
3441 1 7.4206445059033088e+00 3.3700717317547051e+00 2.3791930151308012e+01 1 -3 0
793 2 1.1074500000000002e+01 1.0656442593567498e+01 2.6724792509742755e+01 0 0 0
6266 1 9.2376729360943131e+00 1.1141511129235828e+00 2.3951196427238120e+01 1 -1 1
4674 1 6.3440464941834485e-01 4.1910193528887776e+00 2.4160807229501160e+01 1 4 1
6453 1 3.2369429099418219e+00 5.1289800640545140e+00 2.3817694498794168e+01 0 -1 1
3780 1 4.3993154754456318e+00 7.6222295535981024e+00 2.3576849347744261e+01 0 2 1
5107 1 7.1996904122708516e+00 7.9271487700362098e+00 2.3898885782414968e+01 2 2 1
4761 1 8.9695093846610909e+00 5.6677796758331969e+00 2.4035867193820017e+01 3 0 0
2985 1 1.1510919313423141e+01 6.0449911100602653e+00 2.3114872008357416e+01 -2 1 0
6358 1 2.5061865387646289e+00 9.7562568915766530e+00 2.3792154929732806e+01 0 -1 1
750 2 9.8440000000000012e+00 8.5251540748539956e+00 2.6724792509742755e+01 0 0 0
748 2 9.8440000000000012e+00 1.1366872099805333e+01 2.6724792509742755e+01 0 0 0
1830 1 8.6639412631012345e+00 1.0289168574425828e+01 2.4453942561290159e+01 2 -1 0
277 1 1.1339547701858912e+01 1.0779115803372044e+01 2.3790208714666473e+01 0 -1 0
572 2 0.0000000000000000e+00 2.8417180249513345e+00 2.6724792509742755e+01 0 0 0
574 2 0.0000000000000000e+00 0.0000000000000000e+00 2.6724792509742755e+01 0 0 0
576 2 1.2305000000000001e+00 7.1042950623783474e-01 2.6724792509742755e+01 0 0 0
583 2 1.2305000000000001e+00 2.1312885187134998e+00 2.6724792509742755e+01 0 0 0
585 2 2.4610000000000003e+00 2.8417180249513345e+00 2.6724792509742755e+01 0 0 0
587 2 2.4610000000000003e+00 0.0000000000000000e+00 2.6724792509742755e+01 0 0 0
589 2 3.6915000000000004e+00 7.1042950623783474e-01 2.6724792509742755e+01 0 0 0
604 2 3.6914999999999996e+00 2.1312885187134998e+00 2.6724792509742755e+01 0 0 0
606 2 4.9220000000000006e+00 2.8417180249513332e+00 2.6724792509742755e+01 0 0 0
608 2 4.9220000000000006e+00 0.0000000000000000e+00 2.6724792509742755e+01 0 0 0
610 2 6.1524999999999999e+00 7.1042950623783407e-01 2.6724792509742755e+01 0 0 0
633 2 6.1524999999999999e+00 2.1312885187134989e+00 2.6724792509742755e+01 0 0 0
635 2 7.3829999999999991e+00 2.8417180249513345e+00 2.6724792509742755e+01 0 0 0
637 2 7.3829999999999991e+00 0.0000000000000000e+00 2.6724792509742755e+01 0 0 0
639 2 8.6134999999999984e+00 7.1042950623783407e-01 2.6724792509742755e+01 0 0 0
670 2 8.6134999999999984e+00 2.1312885187135002e+00 2.6724792509742755e+01 0 0 0
672 2 9.8440000000000012e+00 2.8417180249513332e+00 2.6724792509742755e+01 0 0 0
674 2 9.8440000000000012e+00 0.0000000000000000e+00 2.6724792509742755e+01 0 0 0
676 2 1.1074500000000002e+01 7.1042950623783330e-01 2.6724792509742755e+01 0 0 0
715 2 1.1074500000000002e+01 2.1312885187135002e+00 2.6724792509742755e+01 0 0 0
579 2 0.0000000000000000e+00 4.2625770374269996e+00 2.6724792509742755e+01 0 0 0
581 2 1.2305000000000001e+00 4.9730065436648339e+00 2.6724792509742755e+01 0 0 0
596 2 1.2305000000000001e+00 6.3938655561404980e+00 2.6724792509742755e+01 0 0 0
600 2 2.4610000000000003e+00 4.2625770374269996e+00 2.6724792509742755e+01 0 0 0
602 2 3.6914999999999996e+00 4.9730065436648339e+00 2.6724792509742755e+01 0 0 0
625 2 3.6914999999999996e+00 6.3938655561404980e+00 2.6724792509742755e+01 0 0 0
577 2 0.0000000000000000e+00 7.1042950623783341e+00 2.6724792509742755e+01 0 0 0
598 2 2.4610000000000003e+00 7.1042950623783341e+00 2.6724792509742755e+01 0 0 0
629 2 4.9220000000000006e+00 4.2625770374269978e+00 2.6724792509742755e+01 0 0 0
631 2 6.1524999999999999e+00 4.9730065436648339e+00 2.6724792509742755e+01 0 0 0
662 2 6.1524999999999999e+00 6.3938655561404980e+00 2.6724792509742755e+01 0 0 0
666 2 7.3829999999999991e+00 4.2625770374269996e+00 2.6724792509742755e+01 0 0 0
627 2 4.9220000000000006e+00 7.1042950623783341e+00 2.6724792509742755e+01 0 0 0
664 2 7.3830000000000009e+00 7.1042950623783341e+00 2.6724792509742755e+01 0 0 0
668 2 8.6135000000000002e+00 4.9730065436648339e+00 2.6724792509742755e+01 0 0 0
707 2 8.6135000000000002e+00 6.3938655561404980e+00 2.6724792509742755e+01 0 0 0
711 2 9.8440000000000012e+00 4.2625770374270004e+00 2.6724792509742755e+01 0 0 0
713 2 1.1074500000000002e+01 4.9730065436648339e+00 2.6724792509742755e+01 0 0 0
754 2 1.1074500000000002e+01 6.3938655561404980e+00 2.6724792509742755e+01 0 0 0
709 2 9.8440000000000012e+00 7.1042950623783341e+00 2.6724792509742755e+01 0 0 0
592 2 0.0000000000000000e+00 8.5251540748539991e+00 2.6724792509742755e+01 0 0 0
594 2 1.2305000000000001e+00 9.2355835810918343e+00 2.6724792509742755e+01 0 0 0
621 2 2.4610000000000003e+00 8.5251540748539991e+00 2.6724792509742755e+01 0 0 0
623 2 3.6915000000000004e+00 9.2355835810918343e+00 2.6724792509742755e+01 0 0 0
590 2 0.0000000000000000e+00 1.1366872099805333e+01 2.6724792509742755e+01 0 0 0
617 2 1.2305000000000001e+00 1.0656442593567498e+01 2.6724792509742755e+01 0 0 0
619 2 2.4610000000000003e+00 1.1366872099805333e+01 2.6724792509742755e+01 0 0 0
654 2 3.6914999999999996e+00 1.0656442593567499e+01 2.6724792509742755e+01 0 0 0
701 2 7.3829999999999991e+00 1.1366872099805333e+01 2.6724792509742755e+01 0 0 0
658 2 4.9220000000000006e+00 8.5251540748539991e+00 2.6724792509742755e+01 0 0 0
660 2 6.1524999999999999e+00 9.2355835810918343e+00 2.6724792509742755e+01 0 0 0
703 2 7.3830000000000009e+00 8.5251540748539991e+00 2.6724792509742755e+01 0 0 0
656 2 4.9220000000000006e+00 1.1366872099805333e+01 2.6724792509742755e+01 0 0 0
699 2 6.1524999999999999e+00 1.0656442593567499e+01 2.6724792509742755e+01 0 0 0
705 2 8.6134999999999984e+00 9.2355835810918343e+00 2.6724792509742755e+01 0 0 0
795 2 1.2304999999999998e+01 1.1366872099805333e+01 2.6724792509742755e+01 0 0 0
752 2 1.1074500000000002e+01 9.2355835810918343e+00 2.6724792509742755e+01 0 0 0
746 2 8.6134999999999984e+00 1.0656442593567498e+01 2.6724792509742755e+01 0 0 0
2890 1 1.1940932376416105e+01 1.1459523369893116e+00 2.3448528561026766e+01 0 0 0
1666 1 1.2167608013681530e+01 8.0953424607524145e+00 2.4571346204674029e+01 -1 1 0
3118 1 4.0123632453211133e+00 1.2095890471419915e+01 2.4535383121046003e+01 1 0 0
573 2 0.0000000000000000e+00 1.4208590124756650e+00 3.0030999999996880e+01 0 0 0
575 2 0.0000000000000000e+00 0.0000000000000000e+00 3.0030999999996880e+01 0 0 0
584 2 1.2305000000000001e+00 2.1312885187134998e+00 3.0030999999996880e+01 0 0 0
586 2 2.4610000000000003e+00 1.4208590124756650e+00 3.0030999999996880e+01 0 0 0
588 2 2.4610000000000003e+00 0.0000000000000000e+00 3.0030999999996880e+01 0 0 0
605 2 3.6914999999999996e+00 2.1312885187134998e+00 3.0030999999996880e+01 0 0 0
582 2 1.2305000000000001e+00 3.5521475311891644e+00 3.0030999999996880e+01 0 0 0
603 2 3.6914999999999996e+00 3.5521475311891644e+00 3.0030999999996880e+01 0 0 0
901 2 0.0000000000000000e+00 2.8417180249513345e+00 3.3337207490266877e+01 0 0 0
902 2 0.0000000000000000e+00 0.0000000000000000e+00 3.3337207490266877e+01 0 0 0
903 2 1.2305000000000001e+00 7.1042950623783474e-01 3.3337207490266877e+01 0 0 0
907 2 1.2305000000000001e+00 2.1312885187134998e+00 3.3337207490266877e+01 0 0 0
908 2 2.4610000000000003e+00 2.8417180249513345e+00 3.3337207490266877e+01 0 0 0
909 2 2.4610000000000003e+00 0.0000000000000000e+00 3.3337207490266877e+01 0 0 0
910 2 3.6915000000000004e+00 7.1042950623783474e-01 3.3337207490266877e+01 0 0 0
918 2 3.6914999999999996e+00 2.1312885187134998e+00 3.3337207490266877e+01 0 0 0
607 2 4.9220000000000006e+00 1.4208590124756650e+00 3.0030999999996880e+01 0 0 0
609 2 4.9220000000000006e+00 0.0000000000000000e+00 3.0030999999996880e+01 0 0 0
634 2 6.1524999999999999e+00 2.1312885187134989e+00 3.0030999999996880e+01 0 0 0
636 2 7.3829999999999991e+00 1.4208590124756659e+00 3.0030999999996880e+01 0 0 0
638 2 7.3829999999999991e+00 0.0000000000000000e+00 3.0030999999996880e+01 0 0 0
632 2 6.1524999999999999e+00 3.5521475311891644e+00 3.0030999999996880e+01 0 0 0
919 2 4.9220000000000006e+00 2.8417180249513332e+00 3.3337207490266877e+01 0 0 0
920 2 4.9220000000000006e+00 0.0000000000000000e+00 3.3337207490266877e+01 0 0 0
921 2 6.1524999999999999e+00 7.1042950623783407e-01 3.3337207490266877e+01 0 0 0
933 2 6.1524999999999999e+00 2.1312885187134989e+00 3.3337207490266877e+01 0 0 0
934 2 7.3829999999999991e+00 2.8417180249513345e+00 3.3337207490266877e+01 0 0 0
935 2 7.3829999999999991e+00 0.0000000000000000e+00 3.3337207490266877e+01 0 0 0
671 2 8.6134999999999984e+00 2.1312885187135002e+00 3.0030999999996880e+01 0 0 0
673 2 9.8440000000000012e+00 1.4208590124756659e+00 3.0030999999996880e+01 0 0 0
675 2 9.8440000000000012e+00 0.0000000000000000e+00 3.0030999999996880e+01 0 0 0
716 2 1.1074500000000002e+01 2.1312885187135002e+00 3.0030999999996880e+01 0 0 0
669 2 8.6134999999999984e+00 3.5521475311891657e+00 3.0030999999996880e+01 0 0 0
714 2 1.1074500000000002e+01 3.5521475311891644e+00 3.0030999999996880e+01 0 0 0
936 2 8.6134999999999984e+00 7.1042950623783407e-01 3.3337207490266877e+01 0 0 0
952 2 8.6134999999999984e+00 2.1312885187135002e+00 3.3337207490266877e+01 0 0 0
953 2 9.8440000000000012e+00 2.8417180249513332e+00 3.3337207490266877e+01 0 0 0
954 2 9.8440000000000012e+00 0.0000000000000000e+00 3.3337207490266877e+01 0 0 0
955 2 1.1074500000000002e+01 7.1042950623783330e-01 3.3337207490266877e+01 0 0 0
975 2 1.1074500000000002e+01 2.1312885187135002e+00 3.3337207490266877e+01 0 0 0
578 2 0.0000000000000000e+00 5.6834360499026637e+00 3.0030999999996880e+01 0 0 0
580 2 0.0000000000000000e+00 4.2625770374269996e+00 3.0030999999996880e+01 0 0 0
597 2 1.2305000000000001e+00 6.3938655561404980e+00 3.0030999999996880e+01 0 0 0
599 2 2.4610000000000003e+00 5.6834360499026637e+00 3.0030999999996880e+01 0 0 0
601 2 2.4610000000000003e+00 4.2625770374269996e+00 3.0030999999996880e+01 0 0 0
626 2 3.6914999999999996e+00 6.3938655561404980e+00 3.0030999999996880e+01 0 0 0
595 2 1.2305000000000001e+00 7.8147245686161639e+00 3.0030999999996880e+01 0 0 0
624 2 3.6914999999999996e+00 7.8147245686161639e+00 3.0030999999996880e+01 0 0 0
905 2 0.0000000000000000e+00 4.2625770374269996e+00 3.3337207490266877e+01 0 0 0
906 2 1.2305000000000001e+00 4.9730065436648339e+00 3.3337207490266877e+01 0 0 0
914 2 1.2305000000000001e+00 6.3938655561404980e+00 3.3337207490266877e+01 0 0 0
916 2 2.4610000000000003e+00 4.2625770374269996e+00 3.3337207490266877e+01 0 0 0
917 2 3.6914999999999996e+00 4.9730065436648339e+00 3.3337207490266877e+01 0 0 0
929 2 3.6914999999999996e+00 6.3938655561404980e+00 3.3337207490266877e+01 0 0 0
904 2 0.0000000000000000e+00 7.1042950623783341e+00 3.3337207490266877e+01 0 0 0
915 2 2.4610000000000003e+00 7.1042950623783341e+00 3.3337207490266877e+01 0 0 0
628 2 4.9220000000000006e+00 5.6834360499026637e+00 3.0030999999996880e+01 0 0 0
630 2 4.9220000000000006e+00 4.2625770374269978e+00 3.0030999999996880e+01 0 0 0
663 2 6.1524999999999999e+00 6.3938655561404980e+00 3.0030999999996880e+01 0 0 0
665 2 7.3829999999999991e+00 5.6834360499026637e+00 3.0030999999996880e+01 0 0 0
667 2 7.3829999999999991e+00 4.2625770374269996e+00 3.0030999999996880e+01 0 0 0
661 2 6.1524999999999999e+00 7.8147245686161639e+00 3.0030999999996880e+01 0 0 0
931 2 4.9220000000000006e+00 4.2625770374269978e+00 3.3337207490266877e+01 0 0 0
932 2 6.1524999999999999e+00 4.9730065436648339e+00 3.3337207490266877e+01 0 0 0
948 2 6.1524999999999999e+00 6.3938655561404980e+00 3.3337207490266877e+01 0 0 0
950 2 7.3829999999999991e+00 4.2625770374269996e+00 3.3337207490266877e+01 0 0 0
930 2 4.9220000000000006e+00 7.1042950623783341e+00 3.3337207490266877e+01 0 0 0
949 2 7.3830000000000009e+00 7.1042950623783341e+00 3.3337207490266877e+01 0 0 0
708 2 8.6135000000000002e+00 6.3938655561404980e+00 3.0030999999996880e+01 0 0 0
710 2 9.8440000000000012e+00 5.6834360499026637e+00 3.0030999999996880e+01 0 0 0
712 2 9.8440000000000012e+00 4.2625770374270004e+00 3.0030999999996880e+01 0 0 0
755 2 1.1074500000000002e+01 6.3938655561404980e+00 3.0030999999996880e+01 0 0 0
706 2 8.6135000000000002e+00 7.8147245686161639e+00 3.0030999999996880e+01 0 0 0
753 2 1.1074500000000002e+01 7.8147245686161639e+00 3.0030999999996880e+01 0 0 0
951 2 8.6135000000000002e+00 4.9730065436648339e+00 3.3337207490266877e+01 0 0 0
971 2 8.6135000000000002e+00 6.3938655561404980e+00 3.3337207490266877e+01 0 0 0
973 2 9.8440000000000012e+00 4.2625770374270004e+00 3.3337207490266877e+01 0 0 0
974 2 1.1074500000000002e+01 4.9730065436648339e+00 3.3337207490266877e+01 0 0 0
995 2 1.1074500000000002e+01 6.3938655561404980e+00 3.3337207490266877e+01 0 0 0
972 2 9.8440000000000012e+00 7.1042950623783341e+00 3.3337207490266877e+01 0 0 0
591 2 0.0000000000000000e+00 9.9460130873296642e+00 3.0030999999996880e+01 0 0 0
593 2 0.0000000000000000e+00 8.5251540748539991e+00 3.0030999999996880e+01 0 0 0
620 2 2.4610000000000003e+00 9.9460130873296642e+00 3.0030999999996880e+01 0 0 0
622 2 2.4610000000000003e+00 8.5251540748539991e+00 3.0030999999996880e+01 0 0 0
616 2 1.2305000000000001e+00 1.2077301606043163e+01 3.0030999999996880e+01 0 0 0
618 2 1.2305000000000001e+00 1.0656442593567498e+01 3.0030999999996880e+01 0 0 0
653 2 3.6914999999999996e+00 1.2077301606043163e+01 3.0030999999996880e+01 0 0 0
655 2 3.6914999999999996e+00 1.0656442593567499e+01 3.0030999999996880e+01 0 0 0
912 2 0.0000000000000000e+00 8.5251540748539991e+00 3.3337207490266877e+01 0 0 0
913 2 1.2305000000000001e+00 9.2355835810918343e+00 3.3337207490266877e+01 0 0 0
927 2 2.4610000000000003e+00 8.5251540748539991e+00 3.3337207490266877e+01 0 0 0
928 2 3.6915000000000004e+00 9.2355835810918343e+00 3.3337207490266877e+01 0 0 0
911 2 0.0000000000000000e+00 1.1366872099805333e+01 3.3337207490266877e+01 0 0 0
925 2 1.2305000000000001e+00 1.0656442593567498e+01 3.3337207490266877e+01 0 0 0
926 2 2.4610000000000003e+00 1.1366872099805333e+01 3.3337207490266877e+01 0 0 0
944 2 3.6914999999999996e+00 1.0656442593567499e+01 3.3337207490266877e+01 0 0 0
657 2 4.9220000000000006e+00 9.9460130873296642e+00 3.0030999999996880e+01 0 0 0
659 2 4.9220000000000006e+00 8.5251540748539991e+00 3.0030999999996880e+01 0 0 0
702 2 7.3830000000000009e+00 9.9460130873296642e+00 3.0030999999996880e+01 0 0 0
704 2 7.3830000000000009e+00 8.5251540748539991e+00 3.0030999999996880e+01 0 0 0
698 2 6.1524999999999999e+00 1.2077301606043163e+01 3.0030999999996880e+01 0 0 0
700 2 6.1524999999999999e+00 1.0656442593567499e+01 3.0030999999996880e+01 0 0 0
946 2 4.9220000000000006e+00 8.5251540748539991e+00 3.3337207490266877e+01 0 0 0
947 2 6.1524999999999999e+00 9.2355835810918343e+00 3.3337207490266877e+01 0 0 0
969 2 7.3830000000000009e+00 8.5251540748539991e+00 3.3337207490266877e+01 0 0 0
945 2 4.9220000000000006e+00 1.1366872099805333e+01 3.3337207490266877e+01 0 0 0
967 2 6.1524999999999999e+00 1.0656442593567499e+01 3.3337207490266877e+01 0 0 0
968 2 7.3829999999999991e+00 1.1366872099805333e+01 3.3337207490266877e+01 0 0 0
749 2 9.8440000000000012e+00 9.9460130873296642e+00 3.0030999999996880e+01 0 0 0
751 2 9.8440000000000012e+00 8.5251540748539956e+00 3.0030999999996880e+01 0 0 0
745 2 8.6135000000000002e+00 1.2077301606043163e+01 3.0030999999996880e+01 0 0 0
747 2 8.6134999999999984e+00 1.0656442593567498e+01 3.0030999999996880e+01 0 0 0
792 2 1.1074500000000002e+01 1.2077301606043163e+01 3.0030999999996880e+01 0 0 0
794 2 1.1074500000000002e+01 1.0656442593567498e+01 3.0030999999996880e+01 0 0 0
970 2 8.6134999999999984e+00 9.2355835810918343e+00 3.3337207490266877e+01 0 0 0
993 2 9.8440000000000012e+00 8.5251540748539956e+00 3.3337207490266877e+01 0 0 0
994 2 1.1074500000000002e+01 9.2355835810918343e+00 3.3337207490266877e+01 0 0 0
991 2 8.6134999999999984e+00 1.0656442593567498e+01 3.3337207490266877e+01 0 0 0
992 2 9.8440000000000012e+00 1.1366872099805333e+01 3.3337207490266877e+01 0 0 0
1015 2 1.1074500000000002e+01 1.0656442593567498e+01 3.3337207490266877e+01 0 0 0
1016 2 1.2304999999999998e+01 1.1366872099805333e+01 3.3337207490266877e+01 0 0 0
5126 1 3.3717094147218685e+00 9.1989509542492409e-01 3.6535904038165043e+01 -1 0 -1
6470 1 2.7208885817894122e+00 3.8293579069367385e+00 3.5911238672351047e+01 -4 -1 0
1885 1 7.3000794930263710e+00 2.2415029862358358e+00 3.5657178807715894e+01 0 -2 0
1822 1 1.0007678351473965e+01 2.4214972004492217e+00 3.6118812283569525e+01 0 1 0
2900 1 8.9242567071935159e+00 1.1789258873726812e+01 3.6184880663052994e+01 1 0 0
3107 1 1.2285703321437798e+00 5.9291010570528622e+00 3.6337010504608628e+01 -1 2 0
3227 1 5.6197535579562352e+00 4.2247394252296013e+00 3.5963095624317049e+01 -1 0 0
5372 1 6.5830461791025066e+00 6.6632556047986720e+00 3.5647417556232824e+01 0 2 0
6274 1 9.4131260926907068e+00 6.9199748925036539e+00 3.6323795809823238e+01 1 1 0
3138 1 1.0990180571156873e+01 4.7526763960502683e+00 3.5793946253089388e+01 -2 0 0
1676 1 2.6803832826524330e+00 8.6052870716945336e+00 3.6262885382326900e+01 -3 2 0
1868 1 1.1707931500403177e+00 1.0914133910689221e+01 3.6333667896823172e+01 2 0 0
3196 1 5.3215268166326712e+00 8.7388451107199643e+00 3.6649041132674938e+01 2 0 -1
1516 1 6.4307958157396667e+00 1.1136296082980968e+01 3.5864244729613915e+01 1 1 -1
2977 1 1.0558229875943294e+01 9.6169997946594155e+00 3.5695112933289238e+01 2 -1 0
1890 1 1.1398067171278090e+01 8.2158668696355769e-02 3.6276488249261817e+01 1 1 -1
6327 1 5.8978584203579878e+00 5.0012713453853053e-03 3.6468246453566024e+01 0 0 -1
6230 1 2.1057509644686934e+00 2.0565592309436096e+00 3.8795280617667089e+01 0 1 0
5371 1 6.9667922432281282e+00 2.0717751482189239e+00 3.9843505175721290e+01 1 3 -1
3311 1 9.5969138737356587e+00 2.3089274371508806e+00 3.8970074650704305e+01 1 -2 0
1327 1 8.9658845453175573e+00 1.1748096999863478e+01 4.3634923614367935e+01 -1 0 -1
3367 1 3.1884769558962303e+00 4.5374974364111402e+00 3.9724439108700139e+01 1 1 -1
1507 1 1.7994252751612936e+00 7.0654580938511860e+00 3.8751775230841034e+01 -1 -1 -1
3654 1 5.7130943360180106e+00 4.3774741809632687e+00 3.8989392230290633e+01 -2 3 -1
5379 1 6.7695955734325652e+00 6.7460212257027834e+00 4.0075534285675005e+01 0 0 0
357 1 9.2416671767368097e+00 6.9644404845954515e+00 3.9308666235418627e+01 0 -1 -1
3629 1 1.0500709619986237e+01 4.6088082928596901e+00 3.9996788517949767e+01 -1 0 0
5087 1 3.1000829687274001e+00 9.2310505993448224e+00 4.0056528528327675e+01 1 -3 0
2163 1 1.5424299939961539e+00 1.1102383502131740e+01 3.8994322960079558e+01 1 3 -1
1742 1 5.7430049541814894e+00 9.0943745467415837e+00 3.9288308493924987e+01 2 -4 -1
5198 1 6.7098949487445951e+00 1.1532329537670513e+01 4.0185424389317163e+01 2 -1 -1
1263 1 8.9755454314010414e+00 1.1877548205527114e+01 3.8915788039794819e+01 0 3 0
1988 1 1.0280544202412326e+01 9.6316969697274661e+00 3.9765188299044695e+01 3 1 -1
3250 1 1.7390471367468034e+00 2.1555991579690370e+00 4.3714811706520635e+01 -2 2 0
1373 1 6.7987007016051297e+00 2.1915619392526717e+00 4.2538378318880817e+01 0 -2 0
3334 1 1.0465497040049126e+01 9.4760420446926936e+00 4.2855841305422501e+01 0 -3 -1
1935 1 9.1441792439729390e+00 2.4475421342170582e+00 4.3842919803904621e+01 3 0 -1
88 1 6.4699482925532310e+00 1.1715198914229424e+01 4.2782210466995494e+01 -2 0 0
2930 1 3.0385380977340262e+00 4.1518284559023000e+00 4.2576796911855809e+01 1 0 0
5391 1 1.7090927352524536e+00 6.5248724798062696e+00 4.3346246105944019e+01 -1 -1 -1
2209 1 5.5844015938954579e+00 4.5637936822936860e+00 4.3803916436690784e+01 1 1 -1
4982 1 6.6236947346196766e+00 7.1455331811834055e+00 4.2889334317467345e+01 0 1 -1
332 1 1.0253317165900384e+01 4.8392488720976692e+00 4.2750237540740642e+01 1 1 -1
240 1 9.1457054040663550e+00 7.1953619368813593e+00 4.3823794365746622e+01 0 2 -1
1418 1 2.6982483295335653e+00 8.9588834887940223e+00 4.2680589224826505e+01 0 -1 0
4699 1 1.3723743953836067e+00 1.1153604889097359e+01 4.3632928700854109e+01 0 -1 0
3096 1 5.3506452530230320e+00 9.2641899093390894e+00 4.3695456698251377e+01 0 -3 0
5193 1 1.1193355012942854e+01 3.0422176244211530e-01 3.9948528561105363e+01 -1 3 -1
3418 1 5.7910681041503329e+00 2.3798733445548507e-02 4.3847502623923489e+01 -2 3 -1
1444 1 1.0733562791123173e+01 6.2967860556425981e-01 4.2728121530521193e+01 1 2 -1
3447 1 1.9942597394484043e+00 2.1712251413997423e+00 4.6463578817486223e+01 2 1 0
5398 1 4.6316064019898597e+00 2.4675618322975708e+00 4.7269494433870747e+01 1 0 0
2990 1 1.1655583521064040e+01 1.1992538502227454e+01 4.7136782731739970e+01 -1 -1 0
6383 1 9.6972147834722708e+00 2.3134139249146961e+00 4.6460994296089495e+01 0 1 -1
5236 1 6.9824746123879811e-01 4.4339792238794393e+00 4.7309264802424863e+01 -1 1 -1
269 1 1.6160953872493729e+00 6.8128138576681314e+00 4.6252163618617345e+01 1 2 -1
141 1 4.0600582133289533e+00 6.9934707975917165e+00 4.7329357635332542e+01 0 -1 -1
3557 1 5.6002410961137166e+00 4.8644944331127222e+00 4.6541409741146850e+01 1 1 -1
216 1 8.2452027134648489e+00 4.6210772271092875e+00 4.7411477175601249e+01 0 2 0
1945 1 9.2448899662928063e+00 7.1814876462188950e+00 4.6592936773413498e+01 1 -1 -1
3747 1 1.2079465845217413e+01 7.4287384334743454e+00 4.9909193156978745e+01 2 -1 0
4667 1 1.4819711429057925e+00 1.1326252938169903e+01 4.6397664385654139e+01 0 0 0