LAMMPS data file via write_data, version 16 Mar 2018, timestep = 100000

6489 atoms
2 atom types

0.0000000000000000e+00 4.9219999999999999e+01 xlo xhi
0.0000000000000000e+00 4.9019635930410494e+01 ylo yhi
2.0565670992945400e+00 5.8005432900704754e+01 zlo zhi

Masses

1 18.015
2 12.01

Atoms # atomic

2140 1 3.9662282435184931e-01 1.7184291316144513e+00 6.3470721683918523e+00 1 0 0
459 1 1.1846420671220812e+01 4.8205869726325812e+00 6.6760272532975176e+00 0 1 1
4862 1 4.9268106824447617e+00 1.6505147367223807e+00 5.8439164763795173e+00 1 0 1
1943 1 9.2442922523602213e+00 2.1836005968984926e+00 4.7594503501704413e+00 0 0 0
1975 1 9.8531387810692035e+00 6.2666679943445027e+00 7.9309695104887687e+00 1 0 0
5244 1 5.7242056043367224e+00 1.0845576197448073e+01 5.5446699159960513e+00 0 0 0
1661 1 4.3774695341195553e+00 5.7145764807870520e+00 3.3013531827835658e+00 0 0 1
4809 1 7.2443148059734135e+00 6.2588772370032029e+00 2.9211834870020255e+00 1 1 1
6476 1 2.6846418773025266e-01 7.6910666311183711e+00 4.8739899151689752e+00 0 0 1
2068 1 3.1584685378272530e+00 1.0121185928967563e+01 5.4900777319288441e+00 1 0 0
3259 1 8.5706387338980701e+00 1.1415179400322799e+01 4.6418554634710869e+00 0 0 1
1978 1 1.6361753557975296e+00 1.6428637791739613e+00 3.7849630175201714e+00 0 0 0
2993 1 9.0021224000747591e+00 8.8588542180552654e+00 3.1122959167544653e+00 0 0 1
3109 1 1.8279321178247403e+00 9.0998170362229107e+00 3.0776925596244462e+00 1 0 1
3609 1 6.8969453924554012e+00 1.1056382299350464e+01 7.8614445435290339e+00 -1 1 0
4786 1 2.8477850875618107e+00 3.1354543613033043e+00 7.2794380668624967e+00 1 0 1
4565 1 7.1838216764720926e+00 3.6675144137195210e+00 6.2362123043503361e+00 0 1 1
156 1 4.0918441640903387e+00 2.8205224423019635e+00 3.3757705675400391e+00 1 0 0
451 1 1.1478472532611347e+01 2.1415296045300196e+00 6.1540553032690353e+00 0 0 0
5389 1 3.7051132351818405e+00 7.4603400146869587e+00 5.4718179582262696e+00 1 0 0
418 1 1.6057157099423374e+00 5.9214063410139008e+00 7.0076447912865394e+00 2 0 0
1588 1 9.0008060496672524e+00 4.1005144867178265e+00 2.6553577133804875e+00 1 0 1
98 1 7.8226357097547909e+00 6.1260654718862142e+00 5.6687332264966628e+00 1 1 0
317 1 5.5898029926974928e+00 6.8091036631236399e+00 7.2633502478335661e+00 1 0 0
6428 1 1.0749254688836812e+01 1.0576919932888302e+01 6.2520537683985440e+00 1 1 1
2876 1 1.0571674996356444e+01 7.7683187006246470e+00 5.4422054794298145e+00 -1 0 0
4559 1 1.3724228265511067e+00 1.0811972622719017e+01 7.5780152460790884e+00 1 1 0
5212 1 9.7702816691326380e+00 1.0809292386951959e+01 8.9641279468036075e+00 0 0 0
1755 1 6.0829448132740778e+00 8.6593888321156154e-01 2.4405704423868277e+00 0 1 0
2021 1 6.2848316647822227e+00 1.0892523939943453e+01 2.4520592231783640e+00 0 1 0
3388 1 1.1248598107220415e+01 8.0475316302397459e-04 7.9998020884701129e+00 1 0 0
1266 1 6.2029357984481672e+00 8.5712194325318265e+00 8.9487358575655627e+00 0 0 1
4653 1 2.1794119269806713e+00 1.4467058668554464e+00 9.5915572600642154e+00 1 0 1
1785 1 1.5610931737558162e+00 2.6394378706048127e+00 1.2258816344216497e+01 1 1 1
27 1 8.7272340057160012e+00 1.2051597364226240e+01 1.3196520092085049e+01 0 -1 1
4877 1 5.1135672994279835e+00 1.1820484925946451e+01 9.7286080688543244e+00 1 1 0
55 1 9.4889950341566944e+00 4.1463534241743414e+00 9.6706539235983104e+00 0 1 0
3597 1 1.1243915897855899e+01 2.0042730813305125e+00 1.0007226814405708e+01 -1 1 0
2004 1 2.7645451115001274e+00 6.9923927675534276e+00 9.8193954240185697e+00 0 0 0
1595 1 1.4209807181905909e+00 5.4774853892722239e+00 1.1947132647273445e+01 0 0 0
141 1 1.1803940800610649e+01 1.9621907758913248e+00 1.3659814212165973e+01 0 0 0
1911 1 8.7755492342442771e+00 5.0201366968492795e+00 1.2102047632226684e+01 0 0 0
1398 1 1.0280321601591298e+01 7.3369765729160932e+00 1.2557556740591163e+01 0 1 1
4733 1 7.4762455323283983e-01 9.2174977043055151e+00 9.6030648169916155e+00 0 1 0
1337 1 4.1448987197298015e+00 9.2097675333833209e+00 1.1058233821299995e+01 1 0 1
5057 1 2.4231849842902161e-02 1.0325442115029205e+01 1.1844627292479176e+01 0 0 0
328 1 8.9846137630361600e+00 8.0345420250217163e+00 9.7597641749387467e+00 0 0 0
208 1 2.5947843922095988e+00 1.0894980123477438e+01 1.2266098547454806e+01 1 0 0
4927 1 8.1914345723285322e+00 9.2897654531654226e+00 1.2580199171784876e+01 0 0 1
303 1 1.2043844969793962e+01 8.4469287803382969e+00 1.0567394181376834e+01 0 0 0
3164 1 5.8457965674418428e+00 8.3377345575838877e+00 1.3084409226546640e+01 1 -1 0
3464 1 3.2553916847148621e+00 1.0172962574530429e+00 1.3654401163335164e+01 0 0 0
1962 1 2.7481082705576383e+00 1.1207457929429005e+01 1.4921153537587664e+01 0 0 0
4573 1 5.5587409161733330e+00 1.7802857010812054e+00 1.2721656640711375e+01 1 0 0
5176 1 7.5006550813113426e+00 9.9788362803451836e-01 1.4434816486764031e+01 0 1 0
6193 1 9.2839954438976431e+00 3.3395737666808469e+00 1.4072411006440069e+01 0 0 1
2998 1 6.6471245844116691e+00 3.2044934982846351e-01 9.7826209749830859e+00 0 1 1
2010 1 2.0913951088250222e+00 6.7361549181851563e+00 1.4077897347821711e+01 0 1 0
465 1 1.0860926292116863e+01 1.0709496885126395e+01 1.4304625428587968e+01 0 -1 0
4688 1 5.9421365528101635e+00 4.4905344607430058e+00 1.1833704841814608e+01 0 1 1
3477 1 5.0930463330708804e+00 6.0704267335339432e+00 1.3947517166743994e+01 1 -1 0
3444 1 5.4941124147348654e+00 1.0666719419060797e+01 1.4892779704422702e+01 1 1 0
5155 1 1.1502564796292862e+01 1.2238596398311580e+01 1.0504226573173378e+01 0 1 0
33 1 1.2001145193088826e+01 6.4930758511308522e+00 1.4831311663022310e+01 0 1 0
1766 1 6.9302556015395789e+00 2.9558381492254990e+00 9.0503071299187567e+00 1 0 0
1988 1 1.0981753041949107e+00 4.7637608491143624e+00 1.5730959220355350e+01 1 0 0
534 1 9.9637303942502449e+00 4.8658325056885623e+00 1.5951997463448256e+01 1 0 0
1623 1 4.6166048817928331e+00 4.8484588663110335e+00 9.2314528797770841e+00 1 0 0
1308 1 1.0626176453476479e+01 8.6827618787178515e+00 1.6124218018273268e+01 0 -1 1
61 1 1.1520536109582656e+01 2.0884438885442784e+00 2.1853958756371696e+01 0 0 0
1777 1 8.1442760343609581e+00 2.1315862670915950e+00 1.9377640607611390e+01 1 0 0
5187 1 1.0573661455447093e+01 3.5599866085958989e+00 1.8446779125557004e+01 1 1 0
1650 1 1.1101695740308548e+01 7.8003444917021081e-01 1.8588860693808606e+01 1 1 1
214 1 2.3144852460362682e+00 3.7823049034842731e+00 1.8122602869142561e+01 -1 0 0
1791 1 6.9035550624921180e+00 2.7730965835144161e+00 1.6871537467210089e+01 0 1 0
2052 1 4.4146579863487112e+00 5.4443957054953342e+00 1.7855018405308403e+01 0 0 0
3700 1 8.2305409773662728e+00 7.4643498628040312e+00 1.7296770928459502e+01 0 0 1
1802 1 9.1326797403044555e+00 1.6954383783089241e-01 2.1283854145758177e+01 0 1 1
3799 1 1.1079365403369147e+01 8.8650387159036264e+00 2.0199612975709798e+01 1 0 0
3187 1 1.2476102396509958e-01 9.2394466692686077e+00 2.0262025093987855e+01 0 1 1
6110 1 1.0467100950555547e+01 1.1310189244322679e+01 2.1624245673497818e+01 0 0 1
6420 1 3.8613517336686027e+00 8.1131752497559741e+00 1.8214360158125832e+01 1 0 0
4928 1 6.1068489850911520e+00 9.3849337230213923e+00 1.7323542797317906e+01 1 1 0
4956 1 2.4728786881498950e+00 1.6495084289383288e+00 2.0298746068361812e+01 1 0 1
4546 1 4.8345388723248401e+00 1.9152597410227854e+00 2.1873652727902783e+01 0 1 1
3594 1 6.8625797860882543e+00 3.7661518360752599e+00 2.1318169402642788e+01 -1 0 0
4953 1 8.5391626912783760e+00 7.8342663035757854e+00 1.9867221718489105e+01 1 0 0
6313 1 3.0110679797206537e+00 9.1413337522794915e+00 2.0787643754471311e+01 1 1 1
6194 1 1.4006187177822806e+00 4.0908273421644861e+00 2.1655933597161319e+01 0 0 1
354 1 5.8415383460468302e+00 6.0672602519833010e+00 2.0373222692624246e+01 2 0 0
3583 1 1.1124552381232967e+01 4.6996880936759302e+00 2.0996357261409418e+01 0 0 0
4893 1 8.6584429600880863e+00 5.8584264102851771e+00 2.1965910774661740e+01 1 0 0
6255 1 8.5961703656425115e-01 9.7275669501376005e-01 1.6426893198793032e+01 0 0 1
3711 1 7.5581135454119899e+00 1.0174030399072512e+01 2.0973585402060191e+01 0 1 0
3478 1 4.0345923685500322e+00 1.1970401192773673e+01 2.0890951771646922e+01 1 0 0
3510 1 5.9709713238458546e+00 1.1701617477348645e+01 1.8857271654871703e+01 1 0 0
3156 1 2.1109793106549715e+00 8.8146394143481164e+00 1.6225234949287120e+01 0 0 1
3470 1 4.0399754371787502e+00 7.2286050606005334e+00 2.2499153092948397e+01 1 -1 0
3290 1 4.1317933644885407e+00 2.0332386830204796e+00 1.6227260739058096e+01 0 0 0
3698 1 6.6925308630062235e+00 5.3741964677141256e+00 1.6176208665790980e+01 1 1 0
793 2 1.1074500000000002e+01 1.0656442593567498e+01 2.6880180890596819e+01 0 0 0
3642 1 4.4369796571055398e+00 2.6449093361028044e+00 2.4401051768935321e+01 1 0 0
5272 1 7.3592820694144674e+00 2.6534634131165173e+00 2.4250837016998190e+01 0 1 0
91 1 9.2621186478396602e+00 7.5586914108373204e-01 2.4060562040829403e+01 1 0 1
1477 1 3.0574720496753400e+00 5.0441950905249699e+00 2.4052693502811501e+01 0 1 1
6228 1 1.2146323570859085e+01 2.2250246637944304e+00 2.4707369769908365e+01 -1 1 1
2020 1 6.5859406755376657e+00 7.6927241600835421e+00 2.3682690615503969e+01 1 0 0
422 1 1.1427789326623259e+01 4.8606387268993725e+00 2.4344483156400820e+01 0 0 0
4625 1 8.4949438139498046e+00 5.1124913682139637e+00 2.4566134408566132e+01 0 0 1
6209 1 4.4238443814929775e+00 1.1381352018957514e+01 2.3758580331085302e+01 1 0 1
1804 1 2.8323532063798660e+00 9.2812857548132843e+00 2.4294986286581839e+01 0 0 0
6416 1 7.1299552144491747e+00 1.0445741748490152e+01 2.3956601375088201e+01 1 1 0
62 1 9.4744637677134271e+00 1.1668214924672082e+01 2.4162899836513144e+01 0 0 0
750 2 9.8440000000000012e+00 8.5251540748539956e+00 2.6880180890596819e+01 0 0 0
572 2 0.0000000000000000e+00 2.8417180249513345e+00 2.6880180890596819e+01 0 0 0
574 2 0.0000000000000000e+00 0.0000000000000000e+00 2.6880180890596819e+01 0 0 0
576 2 1.2305000000000001e+00 7.1042950623783474e-01 2.6880180890596819e+01 0 0 0
583 2 1.2305000000000001e+00 2.1312885187134998e+00 2.6880180890596819e+01 0 0 0
585 2 2.4610000000000003e+00 2.8417180249513345e+00 2.6880180890596819e+01 0 0 0
587 2 2.4610000000000003e+00 0.0000000000000000e+00 2.6880180890596819e+01 0 0 0
589 2 3.6915000000000004e+00 7.1042950623783474e-01 2.6880180890596819e+01 0 0 0
604 2 3.6914999999999996e+00 2.1312885187134998e+00 2.6880180890596819e+01 0 0 0
606 2 4.9220000000000006e+00 2.8417180249513332e+00 2.6880180890596819e+01 0 0 0
608 2 4.9220000000000006e+00 0.0000000000000000e+00 2.6880180890596819e+01 0 0 0
610 2 6.1524999999999999e+00 7.1042950623783407e-01 2.6880180890596819e+01 0 0 0
633 2 6.1524999999999999e+00 2.1312885187134989e+00 2.6880180890596819e+01 0 0 0
635 2 7.3829999999999991e+00 2.8417180249513345e+00 2.6880180890596819e+01 0 0 0
637 2 7.3829999999999991e+00 0.0000000000000000e+00 2.6880180890596819e+01 0 0 0
639 2 8.6134999999999984e+00 7.1042950623783407e-01 2.6880180890596819e+01 0 0 0
670 2 8.6134999999999984e+00 2.1312885187135002e+00 2.6880180890596819e+01 0 0 0
672 2 9.8440000000000012e+00 2.8417180249513332e+00 2.6880180890596819e+01 0 0 0
674 2 9.8440000000000012e+00 0.0000000000000000e+00 2.6880180890596819e+01 0 0 0
676 2 1.1074500000000002e+01 7.1042950623783330e-01 2.6880180890596819e+01 0 0 0
715 2 1.1074500000000002e+01 2.1312885187135002e+00 2.6880180890596819e+01 0 0 0
579 2 0.0000000000000000e+00 4.2625770374269996e+00 2.6880180890596819e+01 0 0 0
581 2 1.2305000000000001e+00 4.9730065436648339e+00 2.6880180890596819e+01 0 0 0
596 2 1.2305000000000001e+00 6.3938655561404980e+00 2.6880180890596819e+01 0 0 0
600 2 2.4610000000000003e+00 4.2625770374269996e+00 2.6880180890596819e+01 0 0 0
602 2 3.6914999999999996e+00 4.9730065436648339e+00 2.6880180890596819e+01 0 0 0
625 2 3.6914999999999996e+00 6.3938655561404980e+00 2.6880180890596819e+01 0 0 0
577 2 0.0000000000000000e+00 7.1042950623783341e+00 2.6880180890596819e+01 0 0 0
598 2 2.4610000000000003e+00 7.1042950623783341e+00 2.6880180890596819e+01 0 0 0
629 2 4.9220000000000006e+00 4.2625770374269978e+00 2.6880180890596819e+01 0 0 0
631 2 6.1524999999999999e+00 4.9730065436648339e+00 2.6880180890596819e+01 0 0 0
662 2 6.1524999999999999e+00 6.3938655561404980e+00 2.6880180890596819e+01 0 0 0
666 2 7.3829999999999991e+00 4.2625770374269996e+00 2.6880180890596819e+01 0 0 0
627 2 4.9220000000000006e+00 7.1042950623783341e+00 2.6880180890596819e+01 0 0 0
664 2 7.3830000000000009e+00 7.1042950623783341e+00 2.6880180890596819e+01 0 0 0
668 2 8.6135000000000002e+00 4.9730065436648339e+00 2.6880180890596819e+01 0 0 0
707 2 8.6135000000000002e+00 6.3938655561404980e+00 2.6880180890596819e+01 0 0 0
711 2 9.8440000000000012e+00 4.2625770374270004e+00 2.6880180890596819e+01 0 0 0
713 2 1.1074500000000002e+01 4.9730065436648339e+00 2.6880180890596819e+01 0 0 0
754 2 1.1074500000000002e+01 6.3938655561404980e+00 2.6880180890596819e+01 0 0 0
709 2 9.8440000000000012e+00 7.1042950623783341e+00 2.6880180890596819e+01 0 0 0
592 2 0.0000000000000000e+00 8.5251540748539991e+00 2.6880180890596819e+01 0 0 0
594 2 1.2305000000000001e+00 9.2355835810918343e+00 2.6880180890596819e+01 0 0 0
621 2 2.4610000000000003e+00 8.5251540748539991e+00 2.6880180890596819e+01 0 0 0
623 2 3.6915000000000004e+00 9.2355835810918343e+00 2.6880180890596819e+01 0 0 0
590 2 0.0000000000000000e+00 1.1366872099805333e+01 2.6880180890596819e+01 0 0 0
617 2 1.2305000000000001e+00 1.0656442593567498e+01 2.6880180890596819e+01 0 0 0
619 2 2.4610000000000003e+00 1.1366872099805333e+01 2.6880180890596819e+01 0 0 0
654 2 3.6914999999999996e+00 1.0656442593567499e+01 2.6880180890596819e+01 0 0 0
658 2 4.9220000000000006e+00 8.5251540748539991e+00 2.6880180890596819e+01 0 0 0
660 2 6.1524999999999999e+00 9.2355835810918343e+00 2.6880180890596819e+01 0 0 0
703 2 7.3830000000000009e+00 8.5251540748539991e+00 2.6880180890596819e+01 0 0 0
656 2 4.9220000000000006e+00 1.1366872099805333e+01 2.6880180890596819e+01 0 0 0
699 2 6.1524999999999999e+00 1.0656442593567499e+01 2.6880180890596819e+01 0 0 0
701 2 7.3829999999999991e+00 1.1366872099805333e+01 2.6880180890596819e+01 0 0 0
746 2 8.6134999999999984e+00 1.0656442593567498e+01 2.6880180890596819e+01 0 0 0
795 2 1.2304999999999998e+01 1.1366872099805333e+01 2.6880180890596819e+01 0 0 0
748 2 9.8440000000000012e+00 1.1366872099805333e+01 2.6880180890596819e+01 0 0 0
752 2 1.1074500000000002e+01 9.2355835810918343e+00 2.6880180890596819e+01 0 0 0
705 2 8.6134999999999984e+00 9.2355835810918343e+00 2.6880180890596819e+01 0 0 0
4889 1 2.9675579440931847e+00 2.5236936821056682e-01 2.4281858535023296e+01 1 0 0
1780 1 7.4116690695312376e-02 9.0322000920919265e+00 2.3354730495970848e+01 2 0 0
573 2 0.0000000000000000e+00 1.4208590124756650e+00 3.0030999999999953e+01 0 0 0
575 2 0.0000000000000000e+00 0.0000000000000000e+00 3.0030999999999953e+01 0 0 0
584 2 1.2305000000000001e+00 2.1312885187134998e+00 3.0030999999999953e+01 0 0 0
586 2 2.4610000000000003e+00 1.4208590124756650e+00 3.0030999999999953e+01 0 0 0
588 2 2.4610000000000003e+00 0.0000000000000000e+00 3.0030999999999953e+01 0 0 0
605 2 3.6914999999999996e+00 2.1312885187134998e+00 3.0030999999999953e+01 0 0 0
582 2 1.2305000000000001e+00 3.5521475311891644e+00 3.0030999999999953e+01 0 0 0
603 2 3.6914999999999996e+00 3.5521475311891644e+00 3.0030999999999953e+01 0 0 0
901 2 0.0000000000000000e+00 2.8417180249513345e+00 3.3181819109404316e+01 0 0 0
902 2 0.0000000000000000e+00 0.0000000000000000e+00 3.3181819109404316e+01 0 0 0
903 2 1.2305000000000001e+00 7.1042950623783474e-01 3.3181819109404316e+01 0 0 0
907 2 1.2305000000000001e+00 2.1312885187134998e+00 3.3181819109404316e+01 0 0 0
908 2 2.4610000000000003e+00 2.8417180249513345e+00 3.3181819109404316e+01 0 0 0
909 2 2.4610000000000003e+00 0.0000000000000000e+00 3.3181819109404316e+01 0 0 0
910 2 3.6915000000000004e+00 7.1042950623783474e-01 3.3181819109404316e+01 0 0 0
918 2 3.6914999999999996e+00 2.1312885187134998e+00 3.3181819109404316e+01 0 0 0
607 2 4.9220000000000006e+00 1.4208590124756650e+00 3.0030999999999953e+01 0 0 0
609 2 4.9220000000000006e+00 0.0000000000000000e+00 3.0030999999999953e+01 0 0 0
634 2 6.1524999999999999e+00 2.1312885187134989e+00 3.0030999999999953e+01 0 0 0
636 2 7.3829999999999991e+00 1.4208590124756659e+00 3.0030999999999953e+01 0 0 0
638 2 7.3829999999999991e+00 0.0000000000000000e+00 3.0030999999999953e+01 0 0 0
632 2 6.1524999999999999e+00 3.5521475311891644e+00 3.0030999999999953e+01 0 0 0
919 2 4.9220000000000006e+00 2.8417180249513332e+00 3.3181819109404316e+01 0 0 0
920 2 4.9220000000000006e+00 0.0000000000000000e+00 3.3181819109404316e+01 0 0 0
921 2 6.1524999999999999e+00 7.1042950623783407e-01 3.3181819109404316e+01 0 0 0
933 2 6.1524999999999999e+00 2.1312885187134989e+00 3.3181819109404316e+01 0 0 0
934 2 7.3829999999999991e+00 2.8417180249513345e+00 3.3181819109404316e+01 0 0 0
935 2 7.3829999999999991e+00 0.0000000000000000e+00 3.3181819109404316e+01 0 0 0
671 2 8.6134999999999984e+00 2.1312885187135002e+00 3.0030999999999953e+01 0 0 0
673 2 9.8440000000000012e+00 1.4208590124756659e+00 3.0030999999999953e+01 0 0 0
675 2 9.8440000000000012e+00 0.0000000000000000e+00 3.0030999999999953e+01 0 0 0
716 2 1.1074500000000002e+01 2.1312885187135002e+00 3.0030999999999953e+01 0 0 0
669 2 8.6134999999999984e+00 3.5521475311891657e+00 3.0030999999999953e+01 0 0 0
714 2 1.1074500000000002e+01 3.5521475311891644e+00 3.0030999999999953e+01 0 0 0
936 2 8.6134999999999984e+00 7.1042950623783407e-01 3.3181819109404316e+01 0 0 0
952 2 8.6134999999999984e+00 2.1312885187135002e+00 3.3181819109404316e+01 0 0 0
953 2 9.8440000000000012e+00 2.8417180249513332e+00 3.3181819109404316e+01 0 0 0
954 2 9.8440000000000012e+00 0.0000000000000000e+00 3.3181819109404316e+01 0 0 0
955 2 1.1074500000000002e+01 7.1042950623783330e-01 3.3181819109404316e+01 0 0 0
975 2 1.1074500000000002e+01 2.1312885187135002e+00 3.3181819109404316e+01 0 0 0
578 2 0.0000000000000000e+00 5.6834360499026637e+00 3.0030999999999953e+01 0 0 0
580 2 0.0000000000000000e+00 4.2625770374269996e+00 3.0030999999999953e+01 0 0 0
597 2 1.2305000000000001e+00 6.3938655561404980e+00 3.0030999999999953e+01 0 0 0
599 2 2.4610000000000003e+00 5.6834360499026637e+00 3.0030999999999953e+01 0 0 0
601 2 2.4610000000000003e+00 4.2625770374269996e+00 3.0030999999999953e+01 0 0 0
626 2 3.6914999999999996e+00 6.3938655561404980e+00 3.0030999999999953e+01 0 0 0
595 2 1.2305000000000001e+00 7.8147245686161639e+00 3.0030999999999953e+01 0 0 0
624 2 3.6914999999999996e+00 7.8147245686161639e+00 3.0030999999999953e+01 0 0 0
905 2 0.0000000000000000e+00 4.2625770374269996e+00 3.3181819109404316e+01 0 0 0
906 2 1.2305000000000001e+00 4.9730065436648339e+00 3.3181819109404316e+01 0 0 0
914 2 1.2305000000000001e+00 6.3938655561404980e+00 3.3181819109404316e+01 0 0 0
916 2 2.4610000000000003e+00 4.2625770374269996e+00 3.3181819109404316e+01 0 0 0
917 2 3.6914999999999996e+00 4.9730065436648339e+00 3.3181819109404316e+01 0 0 0
929 2 3.6914999999999996e+00 6.3938655561404980e+00 3.3181819109404316e+01 0 0 0
904 2 0.0000000000000000e+00 7.1042950623783341e+00 3.3181819109404316e+01 0 0 0
915 2 2.4610000000000003e+00 7.1042950623783341e+00 3.3181819109404316e+01 0 0 0
628 2 4.9220000000000006e+00 5.6834360499026637e+00 3.0030999999999953e+01 0 0 0
630 2 4.9220000000000006e+00 4.2625770374269978e+00 3.0030999999999953e+01 0 0 0
663 2 6.1524999999999999e+00 6.3938655561404980e+00 3.0030999999999953e+01 0 0 0
665 2 7.3829999999999991e+00 5.6834360499026637e+00 3.0030999999999953e+01 0 0 0
667 2 7.3829999999999991e+00 4.2625770374269996e+00 3.0030999999999953e+01 0 0 0
661 2 6.1524999999999999e+00 7.8147245686161639e+00 3.0030999999999953e+01 0 0 0
931 2 4.9220000000000006e+00 4.2625770374269978e+00 3.3181819109404316e+01 0 0 0
932 2 6.1524999999999999e+00 4.9730065436648339e+00 3.3181819109404316e+01 0 0 0
948 2 6.1524999999999999e+00 6.3938655561404980e+00 3.3181819109404316e+01 0 0 0
950 2 7.3829999999999991e+00 4.2625770374269996e+00 3.3181819109404316e+01 0 0 0
930 2 4.9220000000000006e+00 7.1042950623783341e+00 3.3181819109404316e+01 0 0 0
949 2 7.3830000000000009e+00 7.1042950623783341e+00 3.3181819109404316e+01 0 0 0
708 2 8.6135000000000002e+00 6.3938655561404980e+00 3.0030999999999953e+01 0 0 0
710 2 9.8440000000000012e+00 5.6834360499026637e+00 3.0030999999999953e+01 0 0 0
712 2 9.8440000000000012e+00 4.2625770374270004e+00 3.0030999999999953e+01 0 0 0
755 2 1.1074500000000002e+01 6.3938655561404980e+00 3.0030999999999953e+01 0 0 0
706 2 8.6135000000000002e+00 7.8147245686161639e+00 3.0030999999999953e+01 0 0 0
753 2 1.1074500000000002e+01 7.8147245686161639e+00 3.0030999999999953e+01 0 0 0
951 2 8.6135000000000002e+00 4.9730065436648339e+00 3.3181819109404316e+01 0 0 0
971 2 8.6135000000000002e+00 6.3938655561404980e+00 3.3181819109404316e+01 0 0 0
973 2 9.8440000000000012e+00 4.2625770374270004e+00 3.3181819109404316e+01 0 0 0
974 2 1.1074500000000002e+01 4.9730065436648339e+00 3.3181819109404316e+01 0 0 0
995 2 1.1074500000000002e+01 6.3938655561404980e+00 3.3181819109404316e+01 0 0 0
972 2 9.8440000000000012e+00 7.1042950623783341e+00 3.3181819109404316e+01 0 0 0
591 2 0.0000000000000000e+00 9.9460130873296642e+00 3.0030999999999953e+01 0 0 0
593 2 0.0000000000000000e+00 8.5251540748539991e+00 3.0030999999999953e+01 0 0 0
620 2 2.4610000000000003e+00 9.9460130873296642e+00 3.0030999999999953e+01 0 0 0
622 2 2.4610000000000003e+00 8.5251540748539991e+00 3.0030999999999953e+01 0 0 0
616 2 1.2305000000000001e+00 1.2077301606043163e+01 3.0030999999999953e+01 0 0 0
618 2 1.2305000000000001e+00 1.0656442593567498e+01 3.0030999999999953e+01 0 0 0
653 2 3.6914999999999996e+00 1.2077301606043163e+01 3.0030999999999953e+01 0 0 0
655 2 3.6914999999999996e+00 1.0656442593567499e+01 3.0030999999999953e+01 0 0 0
912 2 0.0000000000000000e+00 8.5251540748539991e+00 3.3181819109404316e+01 0 0 0
913 2 1.2305000000000001e+00 9.2355835810918343e+00 3.3181819109404316e+01 0 0 0
927 2 2.4610000000000003e+00 8.5251540748539991e+00 3.3181819109404316e+01 0 0 0
928 2 3.6915000000000004e+00 9.2355835810918343e+00 3.3181819109404316e+01 0 0 0
911 2 0.0000000000000000e+00 1.1366872099805333e+01 3.3181819109404316e+01 0 0 0
925 2 1.2305000000000001e+00 1.0656442593567498e+01 3.3181819109404316e+01 0 0 0
926 2 2.4610000000000003e+00 1.1366872099805333e+01 3.3181819109404316e+01 0 0 0
944 2 3.6914999999999996e+00 1.0656442593567499e+01 3.3181819109404316e+01 0 0 0
657 2 4.9220000000000006e+00 9.9460130873296642e+00 3.0030999999999953e+01 0 0 0
659 2 4.9220000000000006e+00 8.5251540748539991e+00 3.0030999999999953e+01 0 0 0
702 2 7.3830000000000009e+00 9.9460130873296642e+00 3.0030999999999953e+01 0 0 0
704 2 7.3830000000000009e+00 8.5251540748539991e+00 3.0030999999999953e+01 0 0 0
698 2 6.1524999999999999e+00 1.2077301606043163e+01 3.0030999999999953e+01 0 0 0
700 2 6.1524999999999999e+00 1.0656442593567499e+01 3.0030999999999953e+01 0 0 0
946 2 4.9220000000000006e+00 8.5251540748539991e+00 3.3181819109404316e+01 0 0 0
947 2 6.1524999999999999e+00 9.2355835810918343e+00 3.3181819109404316e+01 0 0 0
969 2 7.3830000000000009e+00 8.5251540748539991e+00 3.3181819109404316e+01 0 0 0
945 2 4.9220000000000006e+00 1.1366872099805333e+01 3.3181819109404316e+01 0 0 0
967 2 6.1524999999999999e+00 1.0656442593567499e+01 3.3181819109404316e+01 0 0 0
968 2 7.3829999999999991e+00 1.1366872099805333e+01 3.3181819109404316e+01 0 0 0
749 2 9.8440000000000012e+00 9.9460130873296642e+00 3.0030999999999953e+01 0 0 0
751 2 9.8440000000000012e+00 8.5251540748539956e+00 3.0030999999999953e+01 0 0 0
745 2 8.6135000000000002e+00 1.2077301606043163e+01 3.0030999999999953e+01 0 0 0
747 2 8.6134999999999984e+00 1.0656442593567498e+01 3.0030999999999953e+01 0 0 0
792 2 1.1074500000000002e+01 1.2077301606043163e+01 3.0030999999999953e+01 0 0 0
794 2 1.1074500000000002e+01 1.0656442593567498e+01 3.0030999999999953e+01 0 0 0
970 2 8.6134999999999984e+00 9.2355835810918343e+00 3.3181819109404316e+01 0 0 0
993 2 9.8440000000000012e+00 8.5251540748539956e+00 3.3181819109404316e+01 0 0 0
994 2 1.1074500000000002e+01 9.2355835810918343e+00 3.3181819109404316e+01 0 0 0
991 2 8.6134999999999984e+00 1.0656442593567498e+01 3.3181819109404316e+01 0 0 0
992 2 9.8440000000000012e+00 1.1366872099805333e+01 3.3181819109404316e+01 0 0 0
1015 2 1.1074500000000002e+01 1.0656442593567498e+01 3.3181819109404316e+01 0 0 0
1016 2 1.2304999999999998e+01 1.1366872099805333e+01 3.3181819109404316e+01 0 0 0
3231 1 3.7227414625166309e+00 2.6763581106299161e-01 3.5749523958996583e+01 -1 1 0
3042 1 6.1781589073450682e+00 4.8047377726900828e+00 3.5954969242212350e+01 0 0 0
4517 1 6.0514378392680621e+00 1.7944868408909862e+00 3.5629065623970206e+01 0 0 -1
2938 1 8.6917328852447717e+00 9.1777319520834375e+00 3.5898309111849656e+01 1 1 0
294 1 9.0029828142766295e+00 3.7946987663094816e+00 3.5745561452944067e+01 1 1 -1
6218 1 8.7662365763864720e+00 7.6159301568800875e-01 3.6180817226265276e+01 0 0 -1
4770 1 1.1034427167066861e+01 1.1142755568957776e+01 3.6073203713813939e+01 0 0 -1
5359 1 2.1000208102901130e+00 6.5329602989137179e+00 3.6051626636059524e+01 0 2 0
533 1 3.5433190186614905e+00 3.9995186056925975e+00 3.6131217208495286e+01 1 0 0
1453 1 6.4140017675618939e+00 7.6352940813523498e+00 3.6128805824365969e+01 0 0 0
8 1 1.0232960299840556e+01 6.7081645104596523e+00 3.5827637036668371e+01 1 0 0
1303 1 3.7659127123011991e+00 8.7857599137316544e+00 3.6254550935908043e+01 1 0 0
3095 1 1.3078238539081171e+00 2.1965028126440438e+00 3.5819842767220223e+01 1 1 -1
4567 1 7.4803391329612996e+00 1.2065110863374498e+01 3.6019133630261649e+01 0 2 0
4811 1 1.2163620951089332e+01 4.3081618588569857e+00 3.5810336482339281e+01 0 1 0
6339 1 2.7490409165237932e+00 1.1406946008737311e+01 3.6032742365103424e+01 1 0 -1
6103 1 3.8231644352716083e+00 1.3614360009531947e+00 3.8780494212426021e+01 0 2 0
1570 1 3.9467556544786557e+00 5.1158001576499226e+00 3.8875650666130916e+01 1 1 0
3062 1 1.0177921165226527e+01 2.5011246495899604e+00 3.9554327171021711e+01 1 0 0
515 1 3.4697575590707830e+00 8.2915013374409146e+00 4.2208045390277057e+01 0 -1 0
2907 1 8.4322695593552819e+00 1.4019245139105291e-01 3.9118439763585044e+01 0 1 0
3656 1 1.9642929691537745e+00 3.3656642979043920e+00 4.0075269150267900e+01 1 0 0
6384 1 9.1912187183277183e+00 1.1387246410059818e+01 4.2479562776275650e+01 1 1 0
4552 1 6.3057327455677230e+00 7.8870877061131122e+00 3.8871736849396427e+01 1 0 0
2180 1 1.0989053555662471e+01 7.1743529042551692e+00 3.9432554246380739e+01 0 1 -1
4937 1 9.3976306609436122e+00 4.8595216811104205e+00 3.8398183726678624e+01 0 1 -1
4817 1 1.7326159353380441e+00 7.2544464081451441e+00 3.8655333622408897e+01 1 -1 0
4830 1 9.6372859135326217e-01 1.1135464751406973e+01 4.2999306958507560e+01 1 0 0
1408 1 3.7728861595351102e+00 9.2922049739400716e+00 3.9382425615951036e+01 0 1 0
401 1 6.6296979511812095e+00 1.1929725704635503e+01 3.8728667112852477e+01 1 1 0
6295 1 9.5242590886694547e+00 9.4001750709326739e+00 3.8600356937292702e+01 0 0 -1
6319 1 1.1676334000505873e+01 1.1045470818350410e+01 3.8946644525633879e+01 0 1 0
19 1 8.3222307333426784e+00 6.8207585678996514e+00 4.3366640330529044e+01 -1 0 0
6151 1 3.5492741680316988e+00 2.1151324659392148e+00 4.2260104913353651e+01 0 1 0
4509 1 6.3887657189687346e+00 2.4292529350799441e+00 3.8437845312492186e+01 -1 1 0
3678 1 6.3138521722628553e+00 1.8709862633894645e+00 4.1550104018145070e+01 1 1 0
6486 1 1.0732118311587225e+01 6.5408283950521895e+00 4.2058018488532539e+01 1 0 -1
404 1 1.0340159213755120e+01 2.3952778202889493e+00 4.2151693468322705e+01 0 1 0
1742 1 5.1431679377476514e-01 2.4751619734699584e+00 4.2634722584958290e+01 1 0 -1
1624 1 5.6803006013473978e-01 1.3758780234371455e+00 3.8629369604152785e+01 0 1 -1
2165 1 4.1061966101176131e+00 5.4727252750642323e+00 4.2015112645357831e+01 0 1 0
4940 1 7.0109184722679103e+00 5.0826815678057518e+00 3.9564534835404281e+01 -1 0 0
6156 1 6.9499382169801400e+00 4.7441982621746037e+00 4.2135150571536428e+01 0 0 0
6264 1 7.7391569180122586e+00 9.9153503568255079e+00 4.0691774212487203e+01 -1 1 0
4508 1 7.1687612798977762e-01 8.9873663022551273e+00 4.1404254550436391e+01 0 1 0
4735 1 8.2199669726351861e+00 2.0166580786505719e+00 4.3725868165027265e+01 0 1 0
2888 1 6.0254000827038485e+00 8.6891507094015008e+00 4.3748925098347506e+01 0 1 0
1745 1 3.3458788110485629e+00 2.4291537680551558e+00 4.6359479060762467e+01 0 2 -1
2161 1 1.0753315393591732e+01 8.0318324179722964e+00 5.0201619921322340e+01 0 0 0
3688 1 6.7419090696546924e+00 1.1242391029624258e+01 5.0555875219789399e+01 -1 0 0
2893 1 5.8875975692361040e+00 3.1559759873968876e+00 4.7251367501326300e+01 2 0 0
1328 1 1.1955205880932532e+01 2.8086596773682939e+00 4.4873981554848086e+01 0 0 0
5039 1 1.8498367520124730e+00 9.1657907297606975e+00 5.0437615130498671e+01 1 1 0
4792 1 1.0328446834481992e+00 6.9601947962336714e+00 4.6212913974261539e+01 1 1 0
3580 1 5.5534965047925713e+00 9.5635507614532393e+00 4.8793099417217476e+01 0 0 -1
161 1 7.8777526861623466e+00 7.2893269384991939e+00 4.7539623015766217e+01 0 0 0
4587 1 7.9256511757531118e+00 4.5122514854919133e+00 4.5299442450076967e+01 1 0 0
37 1 9.8162172329034547e+00 7.5808198571702361e+00 4.5687919537120791e+01 0 0 0
4536 1 6.9011750467027930e+00 1.0153161718200099e+01 4.6177606533708989e+01 0 1 0
519 1 3.0749180067029820e+00 1.1554856482008301e+01 4.5025882510611844e+01 0 0 0
3734 1 3.4053626208515966e+00 8.7206546169428112e+00 4.5395086404546575e+01 1 0 0
2882 1 5.4087345561548581e+00 6.1287941809797886e+00 4.5287706838879160e+01 0 1 0
3352 1 2.9872908075901297e+00 1.0539222103923363e+01 4.8008008298478650e+01 1 0 0
424 1 4.3012942457262388e-01 6.6350671899265912e+00 4.9836342525351569e+01 1 0 -1
1539 1 9.4133405898766096e+00 1.0500943256524526e+01 4.5209710450791491e+01 0 1 0
1740 1 5.8500457765484377e+00 7.1185921942419101e+00 5.0247088086138660e+01 1 -1 -1
5162 1 1.0998714053361338e+00 1.7224733285919871e+00 4.8218275067442434e+01 1 1 -1
1545 1 6.3583863356464665e+00 1.2823166823204382e+00 4.9033622140447505e+01 0 1 0