LAMMPS data file via write_data, version 16 Mar 2018, timestep = 100000

4560 atoms
2 atom types

0.0000000000000000e+00 4.9219999999999999e+01 xlo xhi
0.0000000000000000e+00 4.9019635930410494e+01 ylo yhi
1.1884934304145158e+00 3.2751506569585658e+01 zlo zhi

Masses

1 18.015
2 12.01

Atoms # atomic

147 2 0.0000000000000000e+00 2.8417180249513345e+00 3.2807902189100404e+00 0 0 0
149 2 0.0000000000000000e+00 0.0000000000000000e+00 3.2807902189100404e+00 0 0 0
151 2 1.2305000000000001e+00 7.1042950623783474e-01 3.2807902189100404e+00 0 0 0
158 2 1.2305000000000001e+00 2.1312885187134998e+00 3.2807902189100404e+00 0 0 0
160 2 2.4610000000000003e+00 2.8417180249513345e+00 3.2807902189100404e+00 0 0 0
162 2 2.4610000000000003e+00 0.0000000000000000e+00 3.2807902189100404e+00 0 0 0
164 2 3.6915000000000004e+00 7.1042950623783474e-01 3.2807902189100404e+00 0 0 0
179 2 3.6914999999999996e+00 2.1312885187134998e+00 3.2807902189100404e+00 0 0 0
181 2 4.9220000000000006e+00 2.8417180249513332e+00 3.2807902189100404e+00 0 0 0
183 2 4.9220000000000006e+00 0.0000000000000000e+00 3.2807902189100404e+00 0 0 0
185 2 6.1524999999999999e+00 7.1042950623783407e-01 3.2807902189100404e+00 0 0 0
208 2 6.1524999999999999e+00 2.1312885187134989e+00 3.2807902189100404e+00 0 0 0
210 2 7.3829999999999991e+00 2.8417180249513345e+00 3.2807902189100404e+00 0 0 0
212 2 7.3829999999999991e+00 0.0000000000000000e+00 3.2807902189100404e+00 0 0 0
214 2 8.6134999999999984e+00 7.1042950623783407e-01 3.2807902189100404e+00 0 0 0
245 2 8.6134999999999984e+00 2.1312885187135002e+00 3.2807902189100404e+00 0 0 0
247 2 9.8440000000000012e+00 2.8417180249513332e+00 3.2807902189100404e+00 0 0 0
249 2 9.8440000000000012e+00 0.0000000000000000e+00 3.2807902189100404e+00 0 0 0
251 2 1.1074500000000002e+01 7.1042950623783330e-01 3.2807902189100404e+00 0 0 0
290 2 1.1074500000000002e+01 2.1312885187135002e+00 3.2807902189100404e+00 0 0 0
154 2 0.0000000000000000e+00 4.2625770374269996e+00 3.2807902189100404e+00 0 0 0
156 2 1.2305000000000001e+00 4.9730065436648339e+00 3.2807902189100404e+00 0 0 0
171 2 1.2305000000000001e+00 6.3938655561404980e+00 3.2807902189100404e+00 0 0 0
175 2 2.4610000000000003e+00 4.2625770374269996e+00 3.2807902189100404e+00 0 0 0
177 2 3.6914999999999996e+00 4.9730065436648339e+00 3.2807902189100404e+00 0 0 0
200 2 3.6914999999999996e+00 6.3938655561404980e+00 3.2807902189100404e+00 0 0 0
152 2 0.0000000000000000e+00 7.1042950623783341e+00 3.2807902189100404e+00 0 0 0
173 2 2.4610000000000003e+00 7.1042950623783341e+00 3.2807902189100404e+00 0 0 0
204 2 4.9220000000000006e+00 4.2625770374269978e+00 3.2807902189100404e+00 0 0 0
206 2 6.1524999999999999e+00 4.9730065436648339e+00 3.2807902189100404e+00 0 0 0
237 2 6.1524999999999999e+00 6.3938655561404980e+00 3.2807902189100404e+00 0 0 0
241 2 7.3829999999999991e+00 4.2625770374269996e+00 3.2807902189100404e+00 0 0 0
202 2 4.9220000000000006e+00 7.1042950623783341e+00 3.2807902189100404e+00 0 0 0
239 2 7.3830000000000009e+00 7.1042950623783341e+00 3.2807902189100404e+00 0 0 0
243 2 8.6135000000000002e+00 4.9730065436648339e+00 3.2807902189100404e+00 0 0 0
282 2 8.6135000000000002e+00 6.3938655561404980e+00 3.2807902189100404e+00 0 0 0
286 2 9.8440000000000012e+00 4.2625770374270004e+00 3.2807902189100404e+00 0 0 0
288 2 1.1074500000000002e+01 4.9730065436648339e+00 3.2807902189100404e+00 0 0 0
329 2 1.1074500000000002e+01 6.3938655561404980e+00 3.2807902189100404e+00 0 0 0
284 2 9.8440000000000012e+00 7.1042950623783341e+00 3.2807902189100404e+00 0 0 0
167 2 0.0000000000000000e+00 8.5251540748539991e+00 3.2807902189100404e+00 0 0 0
169 2 1.2305000000000001e+00 9.2355835810918343e+00 3.2807902189100404e+00 0 0 0
196 2 2.4610000000000003e+00 8.5251540748539991e+00 3.2807902189100404e+00 0 0 0
198 2 3.6915000000000004e+00 9.2355835810918343e+00 3.2807902189100404e+00 0 0 0
165 2 0.0000000000000000e+00 1.1366872099805333e+01 3.2807902189100404e+00 0 0 0
192 2 1.2305000000000001e+00 1.0656442593567498e+01 3.2807902189100404e+00 0 0 0
194 2 2.4610000000000003e+00 1.1366872099805333e+01 3.2807902189100404e+00 0 0 0
229 2 3.6914999999999996e+00 1.0656442593567499e+01 3.2807902189100404e+00 0 0 0
233 2 4.9220000000000006e+00 8.5251540748539991e+00 3.2807902189100404e+00 0 0 0
235 2 6.1524999999999999e+00 9.2355835810918343e+00 3.2807902189100404e+00 0 0 0
278 2 7.3830000000000009e+00 8.5251540748539991e+00 3.2807902189100404e+00 0 0 0
231 2 4.9220000000000006e+00 1.1366872099805333e+01 3.2807902189100404e+00 0 0 0
274 2 6.1524999999999999e+00 1.0656442593567499e+01 3.2807902189100404e+00 0 0 0
276 2 7.3829999999999991e+00 1.1366872099805333e+01 3.2807902189100404e+00 0 0 0
280 2 8.6134999999999984e+00 9.2355835810918343e+00 3.2807902189100404e+00 0 0 0
325 2 9.8440000000000012e+00 8.5251540748539956e+00 3.2807902189100404e+00 0 0 0
327 2 1.1074500000000002e+01 9.2355835810918343e+00 3.2807902189100404e+00 0 0 0
321 2 8.6134999999999984e+00 1.0656442593567498e+01 3.2807902189100404e+00 0 0 0
323 2 9.8440000000000012e+00 1.1366872099805333e+01 3.2807902189100404e+00 0 0 0
368 2 1.1074500000000002e+01 1.0656442593567498e+01 3.2807902189100404e+00 0 0 0
370 2 1.2304999999999998e+01 1.1366872099805333e+01 3.2807902189100404e+00 0 0 0
148 2 0.0000000000000000e+00 1.4208590124756650e+00 6.2830533200529430e+00 0 0 0
150 2 0.0000000000000000e+00 0.0000000000000000e+00 6.2830533200529430e+00 0 0 0
159 2 1.2305000000000001e+00 2.1312885187134998e+00 6.2830533200529430e+00 0 0 0
161 2 2.4610000000000003e+00 1.4208590124756650e+00 6.2830533200529430e+00 0 0 0
163 2 2.4610000000000003e+00 0.0000000000000000e+00 6.2830533200529430e+00 0 0 0
180 2 3.6914999999999996e+00 2.1312885187134998e+00 6.2830533200529430e+00 0 0 0
157 2 1.2305000000000001e+00 3.5521475311891644e+00 6.2830533200529430e+00 0 0 0
178 2 3.6914999999999996e+00 3.5521475311891644e+00 6.2830533200529430e+00 0 0 0
182 2 4.9220000000000006e+00 1.4208590124756650e+00 6.2830533200529430e+00 0 0 0
184 2 4.9220000000000006e+00 0.0000000000000000e+00 6.2830533200529430e+00 0 0 0
209 2 6.1524999999999999e+00 2.1312885187134989e+00 6.2830533200529430e+00 0 0 0
211 2 7.3829999999999991e+00 1.4208590124756659e+00 6.2830533200529430e+00 0 0 0
213 2 7.3829999999999991e+00 0.0000000000000000e+00 6.2830533200529430e+00 0 0 0
207 2 6.1524999999999999e+00 3.5521475311891644e+00 6.2830533200529430e+00 0 0 0
246 2 8.6134999999999984e+00 2.1312885187135002e+00 6.2830533200529430e+00 0 0 0
248 2 9.8440000000000012e+00 1.4208590124756659e+00 6.2830533200529430e+00 0 0 0
250 2 9.8440000000000012e+00 0.0000000000000000e+00 6.2830533200529430e+00 0 0 0
291 2 1.1074500000000002e+01 2.1312885187135002e+00 6.2830533200529430e+00 0 0 0
244 2 8.6134999999999984e+00 3.5521475311891657e+00 6.2830533200529430e+00 0 0 0
289 2 1.1074500000000002e+01 3.5521475311891644e+00 6.2830533200529430e+00 0 0 0
153 2 0.0000000000000000e+00 5.6834360499026637e+00 6.2830533200529430e+00 0 0 0
155 2 0.0000000000000000e+00 4.2625770374269996e+00 6.2830533200529430e+00 0 0 0
172 2 1.2305000000000001e+00 6.3938655561404980e+00 6.2830533200529430e+00 0 0 0
174 2 2.4610000000000003e+00 5.6834360499026637e+00 6.2830533200529430e+00 0 0 0
176 2 2.4610000000000003e+00 4.2625770374269996e+00 6.2830533200529430e+00 0 0 0
201 2 3.6914999999999996e+00 6.3938655561404980e+00 6.2830533200529430e+00 0 0 0
170 2 1.2305000000000001e+00 7.8147245686161639e+00 6.2830533200529430e+00 0 0 0
199 2 3.6914999999999996e+00 7.8147245686161639e+00 6.2830533200529430e+00 0 0 0
203 2 4.9220000000000006e+00 5.6834360499026637e+00 6.2830533200529430e+00 0 0 0
205 2 4.9220000000000006e+00 4.2625770374269978e+00 6.2830533200529430e+00 0 0 0
238 2 6.1524999999999999e+00 6.3938655561404980e+00 6.2830533200529430e+00 0 0 0
240 2 7.3829999999999991e+00 5.6834360499026637e+00 6.2830533200529430e+00 0 0 0
242 2 7.3829999999999991e+00 4.2625770374269996e+00 6.2830533200529430e+00 0 0 0
236 2 6.1524999999999999e+00 7.8147245686161639e+00 6.2830533200529430e+00 0 0 0
283 2 8.6135000000000002e+00 6.3938655561404980e+00 6.2830533200529430e+00 0 0 0
285 2 9.8440000000000012e+00 5.6834360499026637e+00 6.2830533200529430e+00 0 0 0
287 2 9.8440000000000012e+00 4.2625770374270004e+00 6.2830533200529430e+00 0 0 0
330 2 1.1074500000000002e+01 6.3938655561404980e+00 6.2830533200529430e+00 0 0 0
281 2 8.6135000000000002e+00 7.8147245686161639e+00 6.2830533200529430e+00 0 0 0
328 2 1.1074500000000002e+01 7.8147245686161639e+00 6.2830533200529430e+00 0 0 0
166 2 0.0000000000000000e+00 9.9460130873296642e+00 6.2830533200529430e+00 0 0 0
168 2 0.0000000000000000e+00 8.5251540748539991e+00 6.2830533200529430e+00 0 0 0
195 2 2.4610000000000003e+00 9.9460130873296642e+00 6.2830533200529430e+00 0 0 0
197 2 2.4610000000000003e+00 8.5251540748539991e+00 6.2830533200529430e+00 0 0 0
191 2 1.2305000000000001e+00 1.2077301606043163e+01 6.2830533200529430e+00 0 0 0
193 2 1.2305000000000001e+00 1.0656442593567498e+01 6.2830533200529430e+00 0 0 0
228 2 3.6914999999999996e+00 1.2077301606043163e+01 6.2830533200529430e+00 0 0 0
230 2 3.6914999999999996e+00 1.0656442593567499e+01 6.2830533200529430e+00 0 0 0
232 2 4.9220000000000006e+00 9.9460130873296642e+00 6.2830533200529430e+00 0 0 0
234 2 4.9220000000000006e+00 8.5251540748539991e+00 6.2830533200529430e+00 0 0 0
277 2 7.3830000000000009e+00 9.9460130873296642e+00 6.2830533200529430e+00 0 0 0
279 2 7.3830000000000009e+00 8.5251540748539991e+00 6.2830533200529430e+00 0 0 0
273 2 6.1524999999999999e+00 1.2077301606043163e+01 6.2830533200529430e+00 0 0 0
275 2 6.1524999999999999e+00 1.0656442593567499e+01 6.2830533200529430e+00 0 0 0
322 2 8.6134999999999984e+00 1.0656442593567498e+01 6.2830533200529430e+00 0 0 0
367 2 1.1074500000000002e+01 1.2077301606043163e+01 6.2830533200529430e+00 0 0 0
369 2 1.1074500000000002e+01 1.0656442593567498e+01 6.2830533200529430e+00 0 0 0
324 2 9.8440000000000012e+00 9.9460130873296642e+00 6.2830533200529430e+00 0 0 0
326 2 9.8440000000000012e+00 8.5251540748539956e+00 6.2830533200529430e+00 0 0 0
320 2 8.6135000000000002e+00 1.2077301606043163e+01 6.2830533200529430e+00 0 0 0
476 2 0.0000000000000000e+00 2.8417180249513345e+00 9.2853164211950308e+00 0 0 0
477 2 0.0000000000000000e+00 0.0000000000000000e+00 9.2853164211950308e+00 0 0 0
478 2 1.2305000000000001e+00 7.1042950623783474e-01 9.2853164211950308e+00 0 0 0
482 2 1.2305000000000001e+00 2.1312885187134998e+00 9.2853164211950308e+00 0 0 0
483 2 2.4610000000000003e+00 2.8417180249513345e+00 9.2853164211950308e+00 0 0 0
484 2 2.4610000000000003e+00 0.0000000000000000e+00 9.2853164211950308e+00 0 0 0
485 2 3.6915000000000004e+00 7.1042950623783474e-01 9.2853164211950308e+00 0 0 0
493 2 3.6914999999999996e+00 2.1312885187134998e+00 9.2853164211950308e+00 0 0 0
1010 1 1.1625511412445185e+01 8.1467399685787392e+00 1.5156554919983204e+01 0 0 0
4249 1 3.2149739718132482e+00 2.7536815307167299e+00 1.1871968421314163e+01 0 1 0
494 2 4.9220000000000006e+00 2.8417180249513332e+00 9.2853164211950308e+00 0 0 0
495 2 4.9220000000000006e+00 0.0000000000000000e+00 9.2853164211950308e+00 0 0 0
496 2 6.1524999999999999e+00 7.1042950623783407e-01 9.2853164211950308e+00 0 0 0
508 2 6.1524999999999999e+00 2.1312885187134989e+00 9.2853164211950308e+00 0 0 0
509 2 7.3829999999999991e+00 2.8417180249513345e+00 9.2853164211950308e+00 0 0 0
510 2 7.3829999999999991e+00 0.0000000000000000e+00 9.2853164211950308e+00 0 0 0
3253 1 3.4829293485159720e+00 5.2465527538505734e+00 1.6901571734890489e+01 1 0 0
2311 1 7.9161376735954070e+00 1.6348886131854645e+00 1.2227369137878298e+01 1 1 0
4443 1 7.7599211876520409e+00 4.1736008957923625e+00 1.1589787463739345e+01 1 1 0
511 2 8.6134999999999984e+00 7.1042950623783407e-01 9.2853164211950308e+00 0 0 0
527 2 8.6134999999999984e+00 2.1312885187135002e+00 9.2853164211950308e+00 0 0 0
528 2 9.8440000000000012e+00 2.8417180249513332e+00 9.2853164211950308e+00 0 0 0
529 2 9.8440000000000012e+00 0.0000000000000000e+00 9.2853164211950308e+00 0 0 0
530 2 1.1074500000000002e+01 7.1042950623783330e-01 9.2853164211950308e+00 0 0 0
550 2 1.1074500000000002e+01 2.1312885187135002e+00 9.2853164211950308e+00 0 0 0
1149 1 9.6357476071539310e+00 1.0811844631640527e+01 1.5079241410099861e+01 0 0 0
480 2 0.0000000000000000e+00 4.2625770374269996e+00 9.2853164211950308e+00 0 0 0
481 2 1.2305000000000001e+00 4.9730065436648339e+00 9.2853164211950308e+00 0 0 0
489 2 1.2305000000000001e+00 6.3938655561404980e+00 9.2853164211950308e+00 0 0 0
491 2 2.4610000000000003e+00 4.2625770374269996e+00 9.2853164211950308e+00 0 0 0
492 2 3.6914999999999996e+00 4.9730065436648339e+00 9.2853164211950308e+00 0 0 0
504 2 3.6914999999999996e+00 6.3938655561404980e+00 9.2853164211950308e+00 0 0 0
479 2 0.0000000000000000e+00 7.1042950623783341e+00 9.2853164211950308e+00 0 0 0
490 2 2.4610000000000003e+00 7.1042950623783341e+00 9.2853164211950308e+00 0 0 0
1171 1 9.1534200374634302e+00 7.1047982490186854e+00 1.6558247356486028e+01 -1 0 0
2203 1 3.9510418739236663e+00 5.4123996355612665e+00 1.1506498642403173e+01 1 0 0
4450 1 5.9824443444421620e+00 5.8724299899385857e+00 1.2845070384323462e+01 1 -1 0
506 2 4.9220000000000006e+00 4.2625770374269978e+00 9.2853164211950308e+00 0 0 0
507 2 6.1524999999999999e+00 4.9730065436648339e+00 9.2853164211950308e+00 0 0 0
523 2 6.1524999999999999e+00 6.3938655561404980e+00 9.2853164211950308e+00 0 0 0
525 2 7.3829999999999991e+00 4.2625770374269996e+00 9.2853164211950308e+00 0 0 0
505 2 4.9220000000000006e+00 7.1042950623783341e+00 9.2853164211950308e+00 0 0 0
524 2 7.3830000000000009e+00 7.1042950623783341e+00 9.2853164211950308e+00 0 0 0
526 2 8.6135000000000002e+00 4.9730065436648339e+00 9.2853164211950308e+00 0 0 0
546 2 8.6135000000000002e+00 6.3938655561404980e+00 9.2853164211950308e+00 0 0 0
548 2 9.8440000000000012e+00 4.2625770374270004e+00 9.2853164211950308e+00 0 0 0
549 2 1.1074500000000002e+01 4.9730065436648339e+00 9.2853164211950308e+00 0 0 0
570 2 1.1074500000000002e+01 6.3938655561404980e+00 9.2853164211950308e+00 0 0 0
547 2 9.8440000000000012e+00 7.1042950623783341e+00 9.2853164211950308e+00 0 0 0
1066 1 1.0494764119632608e+01 8.1646475610656406e+00 1.2481668221791214e+01 1 0 0
83 1 1.0350072491284635e+01 5.4407012234305547e+00 1.2197719200350313e+01 1 0 0
487 2 0.0000000000000000e+00 8.5251540748539991e+00 9.2853164211950308e+00 0 0 0
488 2 1.2305000000000001e+00 9.2355835810918343e+00 9.2853164211950308e+00 0 0 0
502 2 2.4610000000000003e+00 8.5251540748539991e+00 9.2853164211950308e+00 0 0 0
503 2 3.6915000000000004e+00 9.2355835810918343e+00 9.2853164211950308e+00 0 0 0
486 2 0.0000000000000000e+00 1.1366872099805333e+01 9.2853164211950308e+00 0 0 0
500 2 1.2305000000000001e+00 1.0656442593567498e+01 9.2853164211950308e+00 0 0 0
501 2 2.4610000000000003e+00 1.1366872099805333e+01 9.2853164211950308e+00 0 0 0
519 2 3.6914999999999996e+00 1.0656442593567499e+01 9.2853164211950308e+00 0 0 0
3355 1 1.5653863275764781e+00 8.6280220135467705e+00 1.1805837394677907e+01 1 0 0
2319 1 5.2278871753889913e+00 6.0454187676056204e-01 1.1939992156168692e+01 1 1 0
521 2 4.9220000000000006e+00 8.5251540748539991e+00 9.2853164211950308e+00 0 0 0
522 2 6.1524999999999999e+00 9.2355835810918343e+00 9.2853164211950308e+00 0 0 0
544 2 7.3830000000000009e+00 8.5251540748539991e+00 9.2853164211950308e+00 0 0 0
520 2 4.9220000000000006e+00 1.1366872099805333e+01 9.2853164211950308e+00 0 0 0
542 2 6.1524999999999999e+00 1.0656442593567499e+01 9.2853164211950308e+00 0 0 0
543 2 7.3829999999999991e+00 1.1366872099805333e+01 9.2853164211950308e+00 0 0 0
1285 1 8.0059995113337070e+00 9.5174511588107737e+00 1.2534596840859004e+01 0 -1 0
2197 1 7.3389614890553005e+00 3.8265476918047309e-01 1.6441085475316839e+01 0 1 0
545 2 8.6134999999999984e+00 9.2355835810918343e+00 9.2853164211950308e+00 0 0 0
568 2 9.8440000000000012e+00 8.5251540748539956e+00 9.2853164211950308e+00 0 0 0
569 2 1.1074500000000002e+01 9.2355835810918343e+00 9.2853164211950308e+00 0 0 0
566 2 8.6134999999999984e+00 1.0656442593567498e+01 9.2853164211950308e+00 0 0 0
567 2 9.8440000000000012e+00 1.1366872099805333e+01 9.2853164211950308e+00 0 0 0
590 2 1.1074500000000002e+01 1.0656442593567498e+01 9.2853164211950308e+00 0 0 0
591 2 1.2304999999999998e+01 1.1366872099805333e+01 9.2853164211950308e+00 0 0 0
4429 1 2.1365610719274888e+00 6.4535092543434862e+00 1.3189247529664060e+01 1 1 0
3124 1 4.3076194678016648e+00 1.7070305939063677e+00 1.4608215175484927e+01 0 -1 0
3319 1 7.5529594006438590e+00 2.4269398233987305e+00 1.4653592647414660e+01 1 0 0
1257 1 1.1554155317889119e+01 3.3231514502518240e+00 1.5248751641009209e+01 -1 0 0
67 1 1.1470157338876611e+01 5.8150276554310010e-01 1.4356450277116553e+01 0 0 0
1038 1 1.4805205630084777e+00 1.6407386529656551e+00 1.4834734101973895e+01 1 0 0
957 1 6.5624126645276331e+00 8.8140919268865332e+00 1.6713849027873319e+01 1 0 0
3127 1 5.8494128044924469e+00 8.4481120733497015e+00 1.3868853590147319e+01 1 0 0
3264 1 5.2368659234408037e+00 4.1332396850872515e+00 1.4888413222251499e+01 1 0 0
1238 1 1.0138086324293033e+01 1.5426089393403258e-01 1.1696550500183015e+01 0 1 0
2326 1 9.1900271893094345e+00 4.8319667635700023e+00 1.4609481717529928e+01 0 1 0
2159 1 4.0412611913995242e+00 9.7605811143780574e+00 1.2292378745311659e+01 0 1 -1
3317 1 1.9290632863982276e+00 7.2199611238173764e+00 1.5932821086387655e+01 1 0 0
3487 1 1.0047725144196968e+00 1.0124959214542539e+00 1.2032399727243158e+01 1 0 1
2393 1 7.9205605486471642e+00 1.2081712910179572e+01 1.1767435626142028e+01 1 0 0
2188 1 4.4221037424872911e+00 1.0829171070816336e+01 1.6606622124513354e+01 0 1 0
4396 1 9.5616560308362986e-01 2.4176213691340811e+00 1.9802115866854614e+01 0 0 1
2254 1 6.6032813734609901e+00 4.7560851746534807e+00 1.9724895388445610e+01 0 0 0
8 1 1.2080612896031324e+01 1.1632895606826787e+00 1.8662971896814199e+01 0 0 0
3202 1 9.1035075628797593e+00 7.1794506220633059e-01 2.0921626702490883e+01 0 0 -1
2249 1 9.9449128011545582e+00 2.4856692283567572e+00 1.7677298196138260e+01 0 1 0
3312 1 3.3154984023785244e-01 1.0947507057221687e+01 1.8447595705524279e+01 0 0 -1
3360 1 1.4657898088599290e+00 6.7309886739427069e+00 2.1072776694067059e+01 1 1 -1
2082 1 3.9187987393819532e+00 8.0930452218402618e+00 2.0649559627909596e+01 0 0 0
4546 1 5.2595422430232661e+00 6.9967089350717844e+00 1.8417554444908731e+01 0 1 0
1998 1 9.0458557203071699e+00 5.0435599829801356e+00 1.8659158570450664e+01 -1 1 0
4521 1 1.0252900224402156e+01 6.2709670512789870e+00 2.1050181814926823e+01 -1 1 0
1065 1 5.9706778837715992e+00 9.0202210415709327e+00 2.4316102417206302e+01 0 0 -1
4339 1 2.5289049775118668e+00 9.3200713877665198e+00 1.7944283731972753e+01 0 -1 0
4426 1 8.7328639044730050e+00 1.0219074094756980e+01 1.7837987646169665e+01 0 0 -1
3268 1 7.5675615735125072e+00 1.0548087782743794e+01 2.0434577078746827e+01 1 0 0
3243 1 8.5263214977333117e+00 8.1036088951480760e+00 2.3943558627793877e+01 0 -1 0
2233 1 9.6823542067662469e+00 9.0860281367633888e+00 2.1448599493455852e+01 0 1 0
24 1 1.1671385871096067e+01 1.1101470541764535e+01 2.1763005190681525e+01 0 0 0
3445 1 1.8207803283481041e+00 4.0134815769112926e+00 2.1542641217639115e+01 1 0 0
4262 1 1.1336999551237268e+01 1.9564633211214046e+00 2.3219672527123073e+01 0 1 -1
4518 1 8.2368136544980164e+00 1.1195389526787771e+00 2.3727748531766508e+01 1 0 0
3588 1 1.1223395720684636e+01 3.1027022601418079e+00 2.0535291401913504e+01 1 0 0
2068 1 4.4994121586797977e+00 4.0703911902075823e-01 1.7849170266346171e+01 0 1 0
3549 1 7.3638474721760812e+00 1.9369971582160470e+00 1.9123148644706980e+01 0 1 0
3143 1 8.5298767493128225e-01 8.0756678417933845e+00 2.3417794892803336e+01 1 0 0
3222 1 4.9841672011870921e+00 1.0146666324908959e+00 2.0572619137137728e+01 1 1 -1
3274 1 1.0915694235478970e+01 8.2964375915992274e+00 1.8553376708867809e+01 0 -1 0
2023 1 7.7835659331090126e+00 5.5928182702731721e+00 2.2434635404134646e+01 0 0 0
964 1 4.4319449078869466e+00 3.6417540620441731e+00 2.1925261838642705e+01 -1 0 0
1253 1 5.1561198278894453e+00 6.3236312373981827e+00 2.2809829050952928e+01 1 1 -1
68 1 5.0905289243920357e+00 1.5483901547543533e+00 2.4034567045820673e+01 0 0 0
2161 1 1.9851352991402680e+00 2.0394504111862974e-01 2.1235202063027280e+01 0 1 -1
3462 1 2.0476216885845737e+00 1.0747997030504076e+01 2.2962322698913596e+01 0 -1 0
3523 1 5.0893386708304327e+00 1.0048273314598422e+01 2.1943442344646776e+01 1 1 0
3553 1 8.1701714401412602e+00 3.9324487042012732e+00 2.4692697635398801e+01 0 1 0
2223 1 4.7673191733285867e+00 1.1735770682666024e+01 1.9403754076548658e+01 0 0 0
4328 1 2.3960183885671187e+00 2.4621881681077431e+00 1.7354430429836938e+01 1 1 0
4449 1 1.1534112611615866e+01 7.9946106321902963e+00 2.6168765839806163e+01 0 2 0
4555 1 1.8468268523723685e+00 3.3555087435794144e+00 2.9153217652860967e+01 1 -1 -1
2190 1 9.2383341799400007e+00 3.8954514801285454e+00 2.9225006839123864e+01 0 1 0
3409 1 6.9930176783620670e+00 4.4247238045812081e+00 2.7272387955524692e+01 1 0 0
3189 1 2.5522287393451206e+00 1.5716358250458708e+00 2.7220531950605299e+01 0 0 -1
4510 1 9.6555194276150100e+00 1.3340420244143674e+00 2.8578166942264104e+01 1 -1 0
4253 1 8.9291325033353441e+00 6.5702299510406883e+00 3.1269439442199207e+01 1 1 -1
4377 1 3.2900402551480052e+00 7.2738805366037589e+00 2.8901171405259248e+01 1 1 0
2070 1 9.4154621926187032e-01 5.8847223707228009e+00 2.8184486758401690e+01 1 1 0
2328 1 4.4555825991532627e+00 3.6951770214423529e+00 2.6148779191141159e+01 0 0 0
3425 1 5.6217984682886364e+00 8.2596512309447156e+00 2.7018126175046362e+01 1 0 0
883 1 1.1212960163280908e+01 5.2465020232669772e+00 2.7996140613215296e+01 0 0 0
1067 1 7.0266721145578233e+00 9.0993918452488352e+00 3.2251160568074063e+01 0 1 0
4485 1 1.9466533722498869e+00 9.8627154807976254e+00 2.8254613578604122e+01 0 -1 0
4548 1 2.8109029927329630e+00 9.2272747118154896e+00 2.5510312075223773e+01 1 1 0
3126 1 5.0143292937778661e+00 1.1451017546401371e+01 2.5388566372483815e+01 0 -1 0
2074 1 9.7515678357766369e+00 1.0581598598640461e+01 2.5719734203057364e+01 1 -1 0
3 1 1.1897389407285495e+00 5.6488086592914071e+00 3.2411337798303656e+01 0 0 0
3227 1 9.9567943515664421e+00 1.9849843990668309e-01 2.5816400839831545e+01 1 -1 -1
45 1 5.7683952788551567e+00 6.3581254559839042e+00 3.2276924209365305e+01 1 1 0
3504 1 1.1844587196041170e+01 2.6755639936313687e+00 3.2591388604507820e+01 1 0 0
3378 1 1.4593608772801836e-01 6.2059138040268644e+00 2.5289676228564289e+01 1 1 -1
3454 1 4.9762067331405477e+00 3.7536743138216679e+00 3.2339037484938729e+01 -1 0 -1
3567 1 3.3892103156900566e+00 6.2586379503386143e+00 2.5181340455615256e+01 1 1 0
1177 1 4.7271503094259320e+00 3.0632257200030244e+00 2.9405162436221083e+01 0 1 0
2392 1 9.4103396039727958e+00 3.6870342945649552e+00 3.2241344651456465e+01 1 1 0
4447 1 6.8823890105519485e+00 8.7465403171413991e-01 2.9775439496190124e+01 1 1 -1
112 1 8.5202649045970009e+00 1.1311603873913176e+01 2.9988405560032170e+01 0 0 0
3579 1 7.6621215870416641e+00 1.2213344069574363e+01 2.7065930283754241e+01 0 0 0
1061 1 3.1507468314129405e+00 7.3101353041065620e+00 3.1734413041394482e+01 0 0 0
37 1 7.1291356826950780e+00 2.5015637987573243e+00 3.2222526938014759e+01 0 1 0
1112 1 5.5644077370316944e+00 5.8959769149778838e+00 2.9507910450797496e+01 0 0 0
4388 1 8.0817999091119148e+00 8.0742876637197547e+00 2.9046617530999612e+01 2 0 0
1131 1 1.0557936293134489e+01 9.4998356772143424e+00 3.1698019196304841e+01 1 0 0
3363 1 2.2413604737067212e+00 3.2665400014079453e+00 3.2109104699219095e+01 1 0 0
1036 1 1.0861569901418870e+01 1.0355125909622855e+01 2.8540512387508265e+01 1 1 -1
1109 1 5.4427527730474585e+00 1.0788331276323873e+01 2.8722704194557515e+01 1 0 -1
4457 1 1.2707254392537026e+00 9.9190913040400943e+00 3.2259601513673374e+01 1 0 0
1042 1 4.3688395183410398e+00 1.0206843116633355e+01 3.1706326301362090e+01 0 0 0
2169 1 8.6592221564395668e+00 1.1770900595867245e+01 3.2518515117151644e+01 -1 0 0
2003 1 1.6421961911981018e+00 1.1955343694039311e+01 2.9983498985462973e+01 0 0 0
2124 1 1.1463015605103662e+01 7.7426869067401887e+00 2.9527489586327782e+01 0 0 -1
836 1 6.4639235189139876e-01 1.4948453105535315e+00 2.5034521445782445e+01 2 1 0
4346 1 8.8300334287389237e+00 7.0249857280245296e+00 2.6780128804535451e+01 1 0 -1
920 1 1.4518168307127866e-01 8.2446217617121835e+00 3.0147461011939974e+01 0 0 -1
4283 1 5.5064998939204433e+00 2.0888864033507559e-01 2.6766438746816142e+01 0 1 0
188 2 0.0000000000000000e+00 1.2787731112280996e+01 3.2807902189100404e+00 0 0 0
190 2 1.2305000000000001e+00 1.3498160618518829e+01 3.2807902189100404e+00 0 0 0
225 2 2.4610000000000003e+00 1.2787731112280996e+01 3.2807902189100404e+00 0 0 0
227 2 3.6915000000000004e+00 1.3498160618518829e+01 3.2807902189100404e+00 0 0 0
186 2 0.0000000000000000e+00 1.5629449137232333e+01 3.2807902189100404e+00 0 0 0
221 2 1.2305000000000001e+00 1.4919019630994494e+01 3.2807902189100404e+00 0 0 0
223 2 2.4610000000000003e+00 1.5629449137232328e+01 3.2807902189100404e+00 0 0 0
266 2 3.6915000000000004e+00 1.4919019630994494e+01 3.2807902189100404e+00 0 0 0
270 2 4.9220000000000006e+00 1.2787731112280996e+01 3.2807902189100404e+00 0 0 0
272 2 6.1524999999999990e+00 1.3498160618518829e+01 3.2807902189100404e+00 0 0 0
317 2 7.3829999999999991e+00 1.2787731112280996e+01 3.2807902189100404e+00 0 0 0
268 2 4.9220000000000006e+00 1.5629449137232333e+01 3.2807902189100404e+00 0 0 0
313 2 6.1524999999999990e+00 1.4919019630994494e+01 3.2807902189100404e+00 0 0 0
315 2 7.3829999999999991e+00 1.5629449137232333e+01 3.2807902189100404e+00 0 0 0
319 2 8.6135000000000002e+00 1.3498160618518835e+01 3.2807902189100404e+00 0 0 0
364 2 9.8440000000000012e+00 1.2787731112280996e+01 3.2807902189100404e+00 0 0 0
366 2 1.1074500000000002e+01 1.3498160618518829e+01 3.2807902189100404e+00 0 0 0
360 2 8.6135000000000002e+00 1.4919019630994494e+01 3.2807902189100404e+00 0 0 0
362 2 9.8440000000000012e+00 1.5629449137232328e+01 3.2807902189100404e+00 0 0 0
402 2 1.1074500000000002e+01 1.4919019630994494e+01 3.2807902189100404e+00 0 0 0
217 2 0.0000000000000000e+00 1.7050308149707998e+01 3.2807902189100404e+00 0 0 0
262 2 2.4610000000000003e+00 1.7050308149707998e+01 3.2807902189100404e+00 0 0 0
215 2 0.0000000000000000e+00 1.9892026174659328e+01 3.2807902189100404e+00 0 0 0
219 2 1.2305000000000001e+00 1.7760737655945832e+01 3.2807902189100404e+00 0 0 0
258 2 1.2305000000000001e+00 1.9181596668421495e+01 3.2807902189100404e+00 0 0 0
260 2 2.4610000000000003e+00 1.9892026174659328e+01 3.2807902189100404e+00 0 0 0
264 2 3.6914999999999996e+00 1.7760737655945832e+01 3.2807902189100404e+00 0 0 0
305 2 3.6914999999999996e+00 1.9181596668421495e+01 3.2807902189100404e+00 0 0 0
309 2 4.9220000000000006e+00 1.7050308149707998e+01 3.2807902189100404e+00 0 0 0
356 2 7.3830000000000009e+00 1.7050308149707998e+01 3.2807902189100404e+00 0 0 0
307 2 4.9220000000000006e+00 1.9892026174659328e+01 3.2807902189100404e+00 0 0 0
311 2 6.1524999999999999e+00 1.7760737655945832e+01 3.2807902189100404e+00 0 0 0
352 2 6.1524999999999999e+00 1.9181596668421495e+01 3.2807902189100404e+00 0 0 0
354 2 7.3829999999999991e+00 1.9892026174659328e+01 3.2807902189100404e+00 0 0 0
398 2 9.8440000000000012e+00 1.7050308149707998e+01 3.2807902189100404e+00 0 0 0
432 2 1.2304999999999998e+01 1.7050308149707998e+01 3.2807902189100404e+00 0 0 0
358 2 8.6134999999999984e+00 1.7760737655945832e+01 3.2807902189100404e+00 0 0 0
394 2 8.6135000000000002e+00 1.9181596668421495e+01 3.2807902189100404e+00 0 0 0
396 2 9.8440000000000012e+00 1.9892026174659335e+01 3.2807902189100404e+00 0 0 0
400 2 1.1074500000000002e+01 1.7760737655945835e+01 3.2807902189100404e+00 0 0 0
428 2 1.1074500000000002e+01 1.9181596668421495e+01 3.2807902189100404e+00 0 0 0
252 2 0.0000000000000000e+00 2.4154603212086325e+01 3.2807902189100404e+00 0 0 0
254 2 0.0000000000000000e+00 2.1312885187134999e+01 3.2807902189100404e+00 0 0 0
256 2 1.2304999999999993e+00 2.2023314693372832e+01 3.2807902189100404e+00 0 0 0
297 2 1.2304999999999993e+00 2.3444173705848499e+01 3.2807902189100404e+00 0 0 0
299 2 2.4610000000000003e+00 2.4154603212086325e+01 3.2807902189100404e+00 0 0 0
301 2 2.4610000000000003e+00 2.1312885187134995e+01 3.2807902189100404e+00 0 0 0
303 2 3.6914999999999996e+00 2.2023314693372832e+01 3.2807902189100404e+00 0 0 0
344 2 3.6915000000000004e+00 2.3444173705848499e+01 3.2807902189100404e+00 0 0 0
346 2 4.9220000000000006e+00 2.4154603212086325e+01 3.2807902189100404e+00 0 0 0
348 2 4.9220000000000006e+00 2.1312885187134995e+01 3.2807902189100404e+00 0 0 0
350 2 6.1524999999999990e+00 2.2023314693372832e+01 3.2807902189100404e+00 0 0 0
386 2 6.1524999999999999e+00 2.3444173705848499e+01 3.2807902189100404e+00 0 0 0
388 2 7.3830000000000009e+00 2.4154603212086336e+01 3.2807902189100404e+00 0 0 0
390 2 7.3829999999999991e+00 2.1312885187134999e+01 3.2807902189100404e+00 0 0 0
392 2 8.6135000000000002e+00 2.2023314693372832e+01 3.2807902189100404e+00 0 0 0
420 2 8.6134999999999984e+00 2.3444173705848499e+01 3.2807902189100404e+00 0 0 0
422 2 9.8440000000000012e+00 2.4154603212086336e+01 3.2807902189100404e+00 0 0 0
424 2 9.8440000000000012e+00 2.1312885187134999e+01 3.2807902189100404e+00 0 0 0
426 2 1.1074500000000002e+01 2.2023314693372832e+01 3.2807902189100404e+00 0 0 0
446 2 1.1074500000000002e+01 2.3444173705848499e+01 3.2807902189100404e+00 0 0 0
189 2 0.0000000000000000e+00 1.2787731112280996e+01 6.2830533200529430e+00 0 0 0
226 2 2.4610000000000003e+00 1.2787731112280996e+01 6.2830533200529430e+00 0 0 0
187 2 0.0000000000000000e+00 1.4208590124756663e+01 6.2830533200529430e+00 0 0 0
222 2 1.2305000000000001e+00 1.4919019630994494e+01 6.2830533200529430e+00 0 0 0
224 2 2.4610000000000003e+00 1.4208590124756663e+01 6.2830533200529430e+00 0 0 0
267 2 3.6915000000000004e+00 1.4919019630994494e+01 6.2830533200529430e+00 0 0 0
271 2 4.9220000000000006e+00 1.2787731112280996e+01 6.2830533200529430e+00 0 0 0
318 2 7.3829999999999991e+00 1.2787731112280996e+01 6.2830533200529430e+00 0 0 0