LAMMPS data file via write_data, version 29 Oct 2020, timestep = 50000

6768 atoms
2 atom types

0.0 49.22 xlo xhi
0.0 49.019635930410494 ylo yhi
-1.038587897296182 61.10058789729662 zlo zhi

Masses

1 18.015
2 12.01

Atoms # atomic

4848 1 19.316998357380804 23.321348575410422 -0.9061162748390653 1 -1 1
6466 1 10.33352648822573 21.393311815485276 0.22375944907310674 0 1 1
1549 1 15.631801786525697 1.7092662924432573 12.708731289819488 -1 1 1
5335 1 10.216263601206704 12.069936205908144 0.11543068034947668 0 1 0
3483 1 14.65234578906139 8.485976345944682 -0.11962725606763036 -1 2 0
5534 1 5.768276204013724 2.3956236508654447 6.85859484387783 1 1 0
62 1 2.6216574910920705 19.937961588329884 10.630278060362846 0 -1 0
5590 1 6.4606352233417 22.628107961994576 14.392076755735383 0 -1 1
286 1 23.062559955954697 4.416275433631942 6.045589785579333 1 0 0
2199 1 1.9063026648868857 19.388715806354842 13.899171583710272 0 1 0
1373 1 15.29208599236192 21.75753656674142 18.796948483848524 0 1 1
2181 1 23.677095467431393 22.294221941524082 7.948835581226417 -1 0 0
11 1 18.139045925137008 0.7790237062212393 14.001708538696441 0 1 0
4972 1 24.519793738186518 7.51529136080787 6.025633123533067 1 1 0
6719 1 17.92656681483883 22.498164743775003 14.538879717536194 1 0 1
2064 1 15.376471777991444 11.069952986636936 -0.5899896914058953 0 0 0
1418 1 4.380638906480055 3.539387203049426 3.0354358977366447 1 0 1
4952 1 4.359065704990716 7.716281031085271 0.5941805557673556 0 0 1
6630 1 4.32368583652573 13.072987150080346 12.202105514670038 1 1 1
142 1 8.138036464480697 12.68895568243149 1.5124867945044334 0 0 0
3048 1 12.107183881750153 23.3593833622544 7.382308439129623 0 0 1
3585 1 23.18318054136273 17.263672378745046 5.711148914074571 -1 0 0
2114 1 1.745779759935248 16.975518209811366 11.623070930940665 1 0 1
3168 1 2.1373772433551506 13.261435332364238 10.026530184963567 0 1 0
5187 1 2.1849524230552198 18.04668812679549 0.7324231737379496 0 0 0
2142 1 23.956367978789796 7.681272607625784 15.985425536161461 0 1 0
3224 1 9.647864143521932 3.116220887956017 12.30354070744701 -1 2 1
110 1 10.344989792435848 21.70989862081077 6.482946743139057 1 0 0
5283 1 4.402401904969025 19.194695751656678 8.539673212029998 2 -1 0
3317 1 22.273152667737364 23.280317786336433 10.273373922924021 0 0 0
2244 1 12.874498290330505 6.727417905691271 17.012282142391065 0 2 1
1947 1 0.26373645097853937 8.495535564059397 8.68854824164295 -1 1 0
1456 1 10.869416504122576 9.694942991354763 6.432207181188233 1 1 1
403 1 16.311684242048493 3.3790044296853985 8.075271629614397 2 1 0
1902 1 11.999929397145388 13.675416185093026 1.4522231349843744 1 1 1
1866 1 24.464127151350166 1.243532812065619 15.332613613105373 0 0 0
546 1 0.004969274475599027 10.257206278624402 17.06027815273264 1 1 1
6451 1 19.641801017430478 12.082211197457495 1.0461472082499994 0 0 1
2226 1 17.46671556755609 0.9299199689987734 5.627436293581954 -1 1 1
3331 1 22.966560752380733 10.245269227878914 3.5832352353775194 1 1 0
3672 1 2.815061717003362 10.85501015054583 1.6735959497315807 1 0 1
5497 1 23.76983212287983 20.946477598012105 3.430141483581477 0 -1 0
2053 1 15.177729310894117 20.143582695190602 -0.3370699060855342 0 0 0
6761 1 23.390133517871796 15.519549014744673 8.881608846812137 0 1 0
3525 1 20.253007286313135 22.95116205621666 16.27455592501221 1 1 0
45 1 7.0421607026853765 8.802594249982134 0.7093757709474486 -1 1 0
1378 1 7.961536743832782 20.107837801621304 0.7788704917907519 0 0 1
3275 1 5.535623769880866 22.386134398692825 0.538453595504953 0 1 1
5049 1 22.111202648900537 17.36002632947835 3.054546854926654 0 1 1
5033 1 19.0952766783246 3.452454312289081 18.771697858667892 -1 -1 0
2128 1 14.47892020967634 13.288206400938549 17.452478794210588 1 0 0
508 1 17.50076631389898 22.590681667482194 5.725446022424518 1 0 1
1595 1 8.164158516485255 0.135965396591378 11.014873893263019 0 0 1
5411 1 20.016399853485368 11.72510582938154 3.6643926409148957 0 1 1
2014 1 18.711884527039896 15.575581007114495 8.718706969142513 0 0 0
4945 1 17.31614402371595 2.382904777522522 2.591286286507712 1 2 1
3409 1 3.278004350788353 21.33701657636783 4.654041397614096 0 0 0
6390 1 4.724908486659915 14.516746244085551 7.793182855474887 1 0 1
1982 1 9.995332166928526 7.995426195120581 10.416663076959543 0 2 1
3353 1 8.901834358870305 18.17366819324227 2.7316742335123623 0 0 1
42 1 9.758839574197392 15.61654065778647 9.33465167682411 -1 -1 0
3158 1 15.806213712181183 3.4678424308117832 0.0719039554357821 0 0 1
3762 1 17.176988542036256 13.566501674184664 1.695854538677148 0 -2 0
1606 1 21.916945510598328 14.14173573735694 6.634965263148222 2 1 0
1633 1 21.590969347694724 13.914616666505443 -0.026248617524073037 0 -1 0
1587 1 17.460112682299595 16.90314228640345 12.190383715525172 0 0 1
245 1 20.121238942705613 9.206840398752558 0.401898720976374 0 0 0
1436 1 3.842473774286359 11.539369383744386 -0.546477385218926 1 0 1
3619 1 10.212640278642052 15.013634517700194 6.112502781315571 0 2 0
161 1 13.972593184860013 2.8049077554809525 5.477102782204199 0 1 1
1807 1 9.640787101861413 12.427157287761661 7.785180473912858 0 1 0
103 1 12.364305172910472 8.248846729057416 3.9909797923925323 1 -1 0
5568 1 14.695594009193183 9.746092361601656 3.6147860829747893 1 0 0
5119 1 6.256872898995395 11.485543327532547 -0.31949524005284313 0 0 0
5481 1 10.161227957834166 11.600472046325127 4.609230520685855 0 -1 0
5482 1 9.93698718771912 20.087870917280476 8.184717056321487 1 1 0
6539 1 17.075372044822096 14.518132627905093 4.3384175025371015 0 1 1
3536 1 12.964901637654773 1.177747764457713 9.594645881525645 1 0 0
2066 1 21.547663436584415 4.797891472306663 1.1585988443233597 -1 -1 0
3993 1 16.460481844870646 16.270859394000183 -0.032010062157106 0 0 1
4969 1 24.026834169112934 0.9606925563900447 0.26891143018041075 0 1 1
6694 1 9.437542344692039 3.471514999311992 4.296484262133418 0 1 1
1392 1 4.8137353478438785 7.168447004975714 3.692421395777961 1 -1 1
5150 1 9.14937571568824 5.1694382198289235 1.2610298129859605 0 1 1
2263 1 2.318477839213482 8.931280154566517 7.2588559027550765 0 1 0
3918 1 12.000075171084811 2.18888677061048 3.1560387762526796 1 1 1
1401 1 0.6144122461565249 8.500244726556417 4.611066820741101 0 1 1
1961 1 17.38835112037595 7.809039197115552 18.221213199272032 -1 1 0
4783 1 18.347927817987127 5.35194021760135 0.7664294856718219 0 -1 1
3444 1 4.240986898839493 0.7168274002250746 12.551357343942836 0 1 0
2000 1 14.63229155668046 23.366978169118614 6.721915038884402 2 1 0
3625 1 4.073373079723436 15.885965404891413 2.781487977820451 1 0 1
1919 1 0.6029402463215003 21.01709558256648 1.6163508521303527 1 -1 0
1810 1 6.233201186971662 17.320011625528856 5.320482783106015 1 -1 0
6671 1 22.465666925191048 9.935109898068951 10.024223722778176 1 0 1
3276 1 7.300537937843643 11.07009030120022 7.216980736407249 1 0 0
2315 1 17.229224058284956 19.05970483678595 5.314064238100962 1 1 1
1483 1 13.495770940523892 4.983073631839007 7.397747266146421 0 1 1
1779 1 9.994164093125166 6.292035953318358 4.0950964315400284 0 1 0
4853 1 4.754950227498263 3.1186976208435375 9.481367070438706 0 0 1
1678 1 8.952941839553429 0.639563028376503 13.624060767019053 1 1 1
5023 1 15.951539749723093 8.379633127075603 8.723033429638965 -1 1 0
3041 1 3.988029200106365 3.9906908054596304 5.668933937346556 0 1 1
405 1 2.7403390957145892 3.075888854177672 13.182776043803372 -1 -1 0
5612 1 23.516945822222567 12.255896794138437 18.88832612559484 0 1 0
2321 1 1.4183052327394081 13.61822840831611 16.129154415605917 0 0 0
3469 1 21.55821979587834 4.464316656466857 17.7630246602987 1 1 0
4784 1 9.80435178372318 15.872576282461438 18.85994556595271 1 1 1
5554 1 11.034828488050168 9.610326753781514 0.8700733149512598 1 0 0
1682 1 9.331511285748721 0.46253285391303733 18.030336236734126 0 1 1
6479 1 18.96075940325288 8.449111884116435 12.288302455897517 0 2 1
3565 1 19.109189843407343 19.65283501276542 15.50979306387929 0 1 0
3455 1 7.55969573672488 14.288721307743792 8.753933154828008 -1 2 0
3792 1 18.808070691271062 22.03210930280024 9.74303946811563 1 -1 0
6712 1 9.98338769835141 21.591812854690875 18.241506793716578 0 -1 0
3763 1 23.42565182337761 3.012521700206188 13.377113620596601 -1 0 0
6359 1 1.2001613283226829 15.43469660650679 2.1878196628267066 1 -1 1
307 1 1.3962528467304587 6.315958424433607 3.123858147140627 2 -1 0
5330 1 18.98007653737594 9.715869893554965 4.855692569998107 0 0 0
6516 1 3.141403165272517 21.0296425874841 1.7059378195866755 1 -1 1
3852 1 7.858272102703761 7.871263712637506 3.45965070108865 0 1 0
22 1 0.6819036477487702 12.751451907984961 6.115834600363643 1 1 1
6613 1 10.27938494748258 20.985882210378534 3.747339457613963 -2 0 1
3242 1 10.104904759421157 17.846515729865 4.965950064445857 0 1 1
6692 1 21.094670093533008 15.363032725081158 11.009818137862446 2 -1 0
1933 1 13.843956358585581 3.7920644524501492 10.739912709309186 0 2 0
4826 1 5.075081287685477 18.79681235864709 12.186224562950976 1 -1 1
1571 1 24.356583388424966 4.077089824192542 1.1991534036311418 0 1 1
3174 1 12.639082205141817 16.01742933344531 3.9313669003197047 0 1 1
5487 1 21.20484639482262 14.92092371993921 13.951019963064821 0 0 0
6515 1 1.7677645501854298 15.846841135387038 18.178233304606373 0 0 0
3634 1 19.14008287057879 18.674018722094775 2.852731446065358 0 1 0
5249 1 22.8222104145005 6.466560307423491 19.213141598322654 -1 2 0
3860 1 9.187721436440661 7.410029074987909 -0.9396322526974232 1 0 0
2072 1 2.228790048761722 23.650923340103745 5.752174838882994 0 0 0
1899 1 5.9102969713533335 11.464328267317672 4.734116064307991 0 1 0
295 1 9.948537565176137 14.136575987836903 3.331773106787093 0 -1 0
330 1 6.576782339506991 22.154644467272313 3.3308082380188253 0 0 0
5215 1 17.696106965796766 0.05034681920431403 10.089370014861899 0 1 1
3906 1 6.6738171596051945 0.21185931487679516 8.232150439192246 0 1 1
3773 1 19.87192847875324 23.49770416046707 13.025321086726903 2 0 0
2004 1 6.815670188953118 0.7712980344140113 4.127936289701443 0 1 0
513 1 6.721953266252102 21.34775668753574 9.292444359897587 0 -1 1
6705 1 6.207430232874336 2.189037202274901 11.487211848488348 0 0 1
6657 1 14.101153827905874 15.70667945719275 8.870058326197153 1 0 1
348 1 16.82212420682329 23.08423788809496 2.7717095526757016 -1 -1 0
6595 1 5.723478744680623 19.66483796893182 3.779599734431689 0 0 1
2127 1 12.580480686451022 20.07504607769582 0.3302843701236797 0 0 0
3419 1 8.113036301109844 18.05359021084663 15.738986714576082 1 2 0
3870 1 21.03140042069737 18.56597420117198 14.03861864455892 1 0 0
5309 1 18.74773043304547 12.520386595180993 10.04007741993207 -2 1 0
1939 1 5.5180614416603495 2.0491321456271936 16.344736565758073 0 0 0
3412 1 20.143407153994954 6.335428581008804 14.999169696574626 0 1 0
5015 1 14.469088475804883 17.518068717422025 18.679482880217964 1 0 0
5397 1 2.7288389532645025 21.402197788630268 17.004944666054797 1 1 0
6690 1 17.51368659953499 5.701239562471313 14.162791256233808 1 0 1
2007 1 0.28204408546480236 21.30642860870255 19.1744026498335 1 0 1
3522 1 12.02433592721102 1.4564716765223578 19.487474658846367 0 0 1
1384 1 6.149237922371347 15.719143146714 17.552820095491704 0 0 1
1908 1 16.240023082427392 18.78911671973365 16.503052930327684 0 0 0
5166 1 18.647377723562574 6.75347443583592 5.985377189510377 1 1 0
422 1 15.797832269118327 5.618758245442999 10.38659281419804 1 0 0
5619 1 0.27987277168174185 17.721349490658305 19.511596585542943 0 0 0
2161 1 1.8637555354557005 8.404157037839976 12.281880287535545 1 1 0
5147 1 13.655562961850956 20.760078191531246 15.865166776365491 0 -1 0
6607 1 4.275789396330221 24.061200379652163 4.146526693043201 2 0 1
3605 1 2.059385586798317 15.616522913449636 14.089625814679293 1 1 0
1734 1 23.53467026368955 4.766122404387245 15.572004409657271 0 1 0
4727 1 6.20464924127805 5.999952628405043 7.6663218141469045 1 0 1
4981 1 10.180639015801749 2.9733328011313906 9.667603468845712 1 0 1
3731 1 5.034249009179783 6.17490815998982 10.411530868913172 0 1 0
3201 1 8.365169260688717 3.545634060691239 7.023713297560187 -1 0 1
3406 1 1.4400040590626177 3.5444164249586656 7.038529471599029 0 1 1
3336 1 5.199552246934937 22.795803456938067 16.80319352207186 0 2 0
1980 1 18.15235105650566 4.72679421649383 11.645775663151129 0 0 0
3416 1 18.95020585441166 1.5587446226295545 8.129251322094685 -1 1 0
5450 1 22.03242578121374 18.430775563938678 -0.08383755432906781 1 -1 0
5532 1 19.79474489003241 18.08370249179448 11.325330158079979 1 0 0
6601 1 14.611188505041936 13.773143741106987 4.514278766123719 0 0 1
1738 1 0.9158619154594467 2.4159567777738262 2.93330292066376 0 1 1
2193 1 7.754316480442432 7.5059679382271085 14.279144037429681 1 1 0
228 1 3.437345680782753 16.463464069154533 5.648268788111056 0 1 0
3506 1 6.9763170041176465 13.366835742871292 11.460815898124435 1 0 0
1831 1 9.530002397136556 7.976287336849892 7.7937183444165665 0 0 0
1974 1 10.24459027495191 2.164964464802412 15.88174193532847 0 1 0
3780 1 15.199558057514851 0.561017624962775 8.088670436813102 1 0 0
5222 1 16.47449318010836 4.219563642442346 5.081252117312897 1 0 1
352 1 15.877254537977661 7.348003679121248 5.724496277410374 1 0 0
1777 1 8.908967206363544 17.730162958354573 7.344593839649388 -1 0 0
3807 1 17.653708940477074 11.032232247960097 6.9363533292910216 1 -2 0
3247 1 16.26956733559478 7.8273794691607 2.10282135842732 0 1 1
5276 1 20.789199317542877 3.142369383086278 14.372040848434015 1 0 0
3830 1 18.060748721446043 9.890297113242008 9.536290705989234 0 0 0
3928 1 21.63683917455072 1.0912917517630385 8.376422472680215 -1 0 1
5377 1 3.165725198048215 10.740793870949728 16.469691266380067 1 0 0
3410 1 7.3166627047386585 8.231482698427586 6.2908162327859545 0 0 0
5038 1 5.209992889345647 11.569211366430242 9.32709450748533 0 1 1
3145 1 13.202205833310378 7.978904234322539 7.266233499066054 -1 1 0
5194 1 16.068062716179952 4.355232822467963 16.524573228888205 1 0 1
3829 1 10.806447688425024 10.327649294911502 11.707717311677364 0 1 0
5438 1 19.357161401649055 4.755411007027908 8.335568250632168 1 -1 0
3940 1 13.041438741260968 11.099099490908431 7.211547934162862 1 0 1
186 1 10.86901268603394 17.352778915738664 11.708462560710961 0 0 0
3359 1 21.45376668667454 9.475251867410682 12.475936588184796 0 1 0
3628 1 19.26499304907259 13.343124967699758 5.906196981836355 0 0 0
3087 1 21.57854935934977 12.781163208760915 8.907554665933759 0 0 1
559 1 14.392801955970004 6.068121810251519 3.2979875930694105 0 1 1
6418 1 1.6272525220081189 5.323193519832704 8.93284935012773 1 0 1
337 1 7.5188985092743605 22.919622010049743 6.180741501549839 -1 1 0
3648 1 4.4036399590204205 14.807860298761677 14.033921105534825 2 0 0
3521 1 6.873859742510425 14.896972144692645 15.315196038052733 2 -1 1
4997 1 4.260299326260775 13.679755991558999 4.774302470491717 1 0 1
1592 1 2.496972794022276 15.663858369701693 8.856906531145015 0 1 1
389 1 18.55148737140179 24.37133837747025 7.7824568565137735 0 -1 0
3373 1 12.133125153736957 19.08276104454491 9.620030960576619 0 0 1
1867 1 15.904585610579803 11.669542681608903 12.724152626217096 0 -1 0
1336 1 15.308544288881462 7.154295333297076 12.398570257234084 1 1 1
6467 1 23.36279648483623 12.576163054352342 13.801569335038554 0 1 1
249 1 7.768267470273872 17.34980364979692 18.6875936634313 2 0 0
6556 1 18.33357372856393 2.8906265870116994 16.28020780969467 0 1 1
3262 1 15.709839051556362 20.831021231610322 3.6233047230197117 0 1 1
1613 1 0.3111809725235452 15.436159050112494 6.952682987195067 0 0 1
5047 1 9.352931645999146 0.10526396088093137 5.78596265396438 0 0 1
5003 1 2.2396941428034074 22.642284321535328 13.915862210898469 1 0 1
1319 1 2.8285621959674607 19.156995885896382 6.161413041607036 1 2 1
3372 1 20.063554097355862 16.372333157696513 -0.3632057476076431 -2 -1 1
3501 1 6.362961290548785 17.081080274095804 9.532966779586154 1 1 0
562 1 21.035002549022987 20.964533074190545 11.532220586543596 1 0 0
5652 1 11.9940784063004 13.597452288371393 8.746190656166924 0 0 1
5643 1 14.20754529117866 11.707081361973657 10.499747889077662 0 0 1
5686 1 3.799376663080246 9.62571341871353 4.140882279205495 0 -1 1
2159 1 14.470266489125708 12.215439143210347 1.6816760121680216 -1 0 0
4813 1 6.189254508776544 5.652934877352103 1.2486064478750363 1 0 1
2051 1 22.59147986515266 4.415336195242744 10.905495486518511 0 0 0
2119 1 1.3234569433953773 4.831256711021838 15.231787228358137 0 1 0
3227 1 20.638842526512047 18.79480021904608 8.633642261859958 1 -1 0
59 1 19.001594006004982 19.550906586089585 0.04043156289954042 0 0 1
4862 1 4.982541296951061 0.3792056653502929 2.176151624028031 1 0 0
5350 1 3.890568590198226 19.68284362239056 15.631395630002654 1 0 0
5576 1 5.642812682953362 0.7748110023776185 19.14246106398057 1 0 1
5648 1 10.90505365245631 21.530267126152648 10.73935050502003 0 -1 1
2175 1 14.582870036392002 16.43535400653409 6.054869708284769 0 0 0
1450 1 14.156283122766315 4.837286492529558 19.46315731679049 2 1 1
411 1 19.724922615889923 16.04614037149737 3.6384182033853785 0 0 0
4886 1 15.066101097996142 20.00407618937094 9.307564320206502 0 -1 1
1586 1 2.000201485510682 12.708939916075899 3.401951087441029 1 0 1
185 1 19.77355742156425 20.744827562421623 5.294596374605609 -1 0 0
6530 1 21.15720488764889 22.291465970283475 3.220499735463676 1 1 1
3413 1 5.359039667376516 4.812492585784808 14.557083573128413 1 -1 0
4973 1 2.783900680869366 5.6130991053096855 11.754728180209916 0 1 1
3073 1 10.067455997107084 7.8095163347310725 18.963899036973032 -1 1 1
3532 1 11.419174206595109 4.60712709009759 14.896903429092522 1 1 1
196 1 13.866962721587557 2.7902526491670883 14.857899537735575 0 2 0
4950 1 10.859255337226175 24.37017224041304 1.0350490630039157 0 1 1
6658 1 0.3835125758575112 23.23788901767156 10.44036936684232 0 1 0
253 1 7.172644046276166 4.919917089041333 12.248523504751942 1 1 0
1907 1 23.964290943413783 19.961541407815226 1.0083076347112838 0 0 0
5663 1 1.9284493203041748 1.332832812698673 9.022308950635617 -1 1 1
6504 1 22.370820842716412 10.38615781218966 15.014594216373059 0 1 1
3340 1 4.180047201023171 13.26868751444564 16.84612511130114 2 0 1
2091 1 12.701911503584249 18.311153009659073 6.585048609595069 1 1 0
1814 1 5.444654418470575 11.341991899311976 14.35002960074206 1 2 0
54 1 11.509410122668308 5.301487553659919 9.74667288245489 1 0 1
3384 1 12.41698633067403 9.3060131745136 13.801357186530561 0 0 0
107 1 18.896963286509983 8.256132700720668 2.4789153462389812 0 1 0
6415 1 9.257576038678042 5.967508931283858 15.733491026999722 0 0 1
3489 1 15.266954219848747 9.235842076915223 14.679416533647624 0 0 0
1804 1 24.342600173974226 13.106258840399141 16.543187267443813 0 1 1
2999 1 8.0826597083403 10.487203195482152 3.353194816362868 1 1 1
3639 1 3.6163439287176096 6.6920346924126335 6.338119364288296 0 1 0
5284 1 13.966381855675632 23.651123924183555 10.573782420898997 1 0 0
6455 1 19.081985718751554 1.9825122031189475 11.735207629752223 -1 1 1
6590 1 5.4389133105287915 8.749607421884608 15.747563037191629 1 -1 0
347 1 2.91249483464562 11.392986981152555 7.444728753339254 0 -1 0
1963 1 8.677488153563855 10.939352266509312 18.457609582093202 -1 0 0
1843 1 11.070897292024265 16.51941709309382 16.807251060172156 0 0 0
1522 1 10.369820232438878 5.643632970746862 6.890188358218683 1 0 0
5524 1 11.501837973360788 12.762750467944489 11.410959754170745 2 1 0
3316 1 19.671137759188472 0.8274456076454217 0.2288719855577548 0 1 1
533 1 11.758758441337033 9.288331433396419 16.897682727553992 0 0 1
4740 1 15.444065808944858 7.223445863997177 16.778070577767853 0 0 1
2339 1 16.611931178231234 14.329896051608497 11.084339068393174 -1 0 1
3818 1 20.53953425965252 8.773655312797244 9.091908887710277 0 1 0
3306 1 9.34807634534263 12.943119327503842 14.449811436114512 0 2 1
3047 1 7.018291208365502 12.422069787555525 16.613928334899022 0 0 1
3697 1 3.8982246532670453 13.876866433221021 19.562954805391893 1 0 0
6677 1 10.398321079262152 19.722343861402194 16.187202261655727 0 0 1
17 1 13.392879155199115 8.82905928078295 10.214328665465274 0 0 0
2025 1 14.290577438521462 10.570994539215844 17.107824822467972 0 1 0
567 1 13.38835056098503 23.08539894446429 13.363866000876987 0 1 1
1944 1 21.041647586197705 15.371454000909342 18.438757219066744 1 2 0
4834 1 14.267845929116342 2.2830242691668605 18.179158727239006 0 0 1
2129 1 12.39363048192592 14.217817491430141 13.257502206994289 0 0 1
3146 1 13.82834819502696 16.37061174397165 11.695381089331322 0 2 1
5310 1 5.426993030662174 2.6030720270657994 -0.11084375096286492 1 0 0
3200 1 18.75641513994411 13.669943609651256 18.275415555077704 1 0 0
5114 1 22.84644862879474 20.626190967783003 13.723500220992477 1 0 1
6730 1 6.355960920791576 19.905065463539138 14.43611766157867 0 1 0
5645 1 18.664739538240443 17.16054974483697 17.78477249528427 0 0 1
2233 1 12.421441970954417 20.031235000530824 12.927207274310414 1 1 0
258 1 7.6211118637761945 16.410686244058667 12.477566954409138 0 1 0
3217 1 19.63023385540213 22.218784775371667 19.100521672049148 0 -1 1
5608 1 1.2270878858097205 1.6995508949095748 11.564687936623987 2 1 0
3771 1 2.024080324515567 23.692269269023143 18.747160639514206 0 -1 0
2041 1 8.169711547993844 11.081664420787765 12.570120966581733 0 1 0
388 1 18.721059583724692 16.289966681677978 14.703334017006746 1 0 0
3571 1 18.096763786489145 13.57301456492135 15.429126231840243 1 1 0
1330 1 10.77558376347889 3.082221054347578 0.7022232556154802 0 1 1
1383 1 14.012374928635293 23.702479695833617 1.289161010268213 0 0 1
2082 1 19.37970044533063 3.511300152013645 5.499486500417718 -1 1 0
375 1 19.199605595634644 22.03223990927971 1.2229186730639712 0 0 0
468 1 8.936802226822817 23.60779718994059 16.05266402179559 1 0 0
4896 1 1.2109896714509876 8.037971225427047 0.6944457737831995 1 0 1
6622 1 13.720451710636967 15.983294552320585 15.846448293084205 -1 2 1
1454 1 17.464673853297725 10.853498128152474 18.348809503007978 0 1 1
5445 1 7.32947256745767 22.767306523242734 18.575118948434593 0 1 1
3540 1 0.06971574953701497 18.90984657820532 3.6570191021189125 1 -1 0
6457 1 13.29793749281031 4.535555829058658 1.3179948196484697 0 0 1
1636 1 2.2979090869486054 11.11269578724884 13.932581511958329 1 1 1
5606 1 2.288794976325142 7.897848506004056 17.94801486969004 1 0 1
3086 1 2.636103929448426 1.5970378568975352 15.31232060037004 0 1 1
456 1 10.830862987983327 22.319117730564166 14.480328973674949 0 -1 0
3701 1 22.190496490089686 18.6138835376912 19.262230869864748 1 0 0
556 1 17.412348117394043 21.226725829479676 17.373930439451684 1 1 1
3033 1 22.966519826469252 22.939402422836892 16.303486900152897 0 1 1
6 1 18.289126434338986 9.75514946031863 14.73015642376571 0 0 0
3102 1 20.33568253381105 16.724475478720258 6.694228909579585 0 1 1
4788 1 22.50329256229102 6.917102895166042 12.916883243191581 -1 1 1
1723 1 6.76795011974997 19.99014903478434 7.101010271319948 0 1 1
252 1 16.51650321436297 17.578258461973626 8.152102054689378 0 0 0
290 1 20.549235019231407 2.5974672049621934 2.3354146683928896 -1 -1 0
2040 1 7.297165866729668 8.143797195462053 11.680192450741197 1 1 0
2345 1 21.354344308568706 1.1865285026334553 11.454921430557784 0 1 0
3404 1 11.533663182892793 17.523982441215825 1.453285460751256 0 -2 1
3581 1 14.583289726988701 23.83523275238412 15.828962740137328 1 0 0
3237 1 10.577444581617502 11.806242437076058 16.446732262805828 0 0 0
415 1 8.056801774939627 3.7949609462284153 17.062928292504917 2 1 1
4823 1 2.2234317267532724 4.483420269839981 1.640439977749503 1 0 1
3877 1 13.00556082578304 15.589650710087682 -0.21395013313663425 2 1 0
3266 1 3.7680067454572685 17.3734241703605 17.37781403274067 1 0 1
1761 1 7.203140486889762 15.888247036627204 3.15401437620352 0 0 0
3108 1 20.446016760595114 5.992170425110097 10.545128006437652 -1 0 1
4778 1 19.942693382180504 6.044284001328495 3.7047401489724505 0 1 1
6631 1 7.011979346694822 8.330317325124597 18.24067655473775 2 1 1
3036 1 23.304652771563376 3.1293812302396375 8.291651751451367 0 1 1
4840 1 3.687286550951048 8.772327460034994 10.054880642281693 0 -1 1
5196 1 23.490748987932268 1.5870561603954119 3.0145737072060887 1 1 1
3739 1 9.966893309485261 15.803602682718589 14.077516033545699 1 0 0
2220 1 12.597237703671274 6.351485416455207 12.353678581287205 1 0 0
3379 1 15.455442439551222 13.726607826492737 14.750797686047111 -1 -1 0
3131 1 22.372589218483466 20.090117027440794 7.0372912428552965 0 1 1
1425 1 23.334199033738063 18.046667046607762 10.462594741677458 0 0 1
2998 1 23.98372227658892 12.71705299877224 4.784198446933467 -1 0 1
1455 1 0.04855007038169984 19.523670565148016 6.752841162513438 0 1 1
5077 1 7.6011268507080025 2.7369799247158046 2.1010550014479548 0 1 0
1535 1 5.05320130936675 18.778158895545328 0.918324458167797 2 -1 1
6706 1 21.671572317938455 8.574557154776155 6.309092826298238 0 0 1
4975 1 23.49177429890766 16.316620953880346 14.378402249228657 1 0 1
5053 1 14.977106560146973 11.57297153405746 5.694671746726433 1 0 1
577 1 7.4640678359044585 20.113083826326072 11.139668382781998 0 0 1
51 1 11.951733907166226 13.62392861287956 18.231183573954414 1 2 0
3137 1 8.634253109615582 4.942848057164795 19.35487701515469 1 0 1
1322 1 16.10162500084218 21.313654642407233 13.641751504904414 2 1 1
6653 1 23.603301361368146 15.786646807571223 16.89810581850361 0 0 0
5091 1 19.09227243523339 12.044418238044612 13.54163332759712 1 0 1
3375 1 9.088992422430925 22.20309623536448 12.779933548773686 0 1 1
2206 1 20.55807033438393 9.786873450917561 16.522863246232124 0 0 0
2121 1 19.991108549836216 7.395123949662676 17.31912494058791 0 2 0
4746 1 21.087317532939853 0.20937768532267673 4.87540461667932 0 1 1
5577 1 14.952335450688558 18.315388893649747 13.582126158524325 0 1 1
466 1 9.270532793423344 23.8241242361644 3.6439930107278053 0 0 1
1815 1 16.515809435612077 19.0578129207171 1.7298327450834892 1 0 0
4966 1 22.35041835880897 8.032512305020324 1.000823644861918 0 1 1
6447 1 2.822839492329846 22.726494769239007 11.280754364293607 0 0 1
210 1 12.977660510577735 21.73623891374935 2.9725832639331644 0 0 0
3287 1 3.097386763745789 6.827622947067507 14.82638315062088 0 1 0
6709 1 21.03029271301631 11.471478720402269 18.6319219628115 1 1 0
254 1 3.5804996764105663 24.394829050440702 15.404792934080447 1 0 0
3820 1 23.80633207275171 24.335879530528832 18.665945845417493 1 0 0
5240 1 16.49772719924258 21.977897787258694 10.840207115441316 1 1 0
18 1 14.740614587075214 20.536595964530136 6.543688890191708 0 0 0
1708 1 12.507735882469126 18.9104121314279 17.91346007034705 1 -1 1
6488 1 5.620821348842801 24.327318557698085 10.449147144041682 -1 -1 1
230 1 22.498109846316407 6.5659561587320345 4.088995056763697 0 0 0
4745 1 12.88739321762748 22.477466695614858 18.31476239572312 0 1 1
5502 1 16.712981387444895 1.623212346349054 19.215123792337398 -1 1 0
2168 1 22.90382541402907 14.838530867101618 2.3184794666091 0 -1 1
1379 1 24.16515888792194 22.19085531407898 -0.8180648603356204 -1 1 1
6672 1 8.906207560044436 0.586430331836281 0.6997102528212669 -1 0 0
5257 1 16.906715026779203 0.1645598794521853 1.209024869520536 0 1 0
5362 1 21.027004498861103 24.314806477928418 5.858605837155105 0 1 0
1984 1 0.058014867739317945 23.064292854906817 4.369525932961338 -1 1 0
1870 1 12.272564971952175 24.362860374363215 4.419194701623981 -1 0 0
1778 1 1.0181009540204233 0.17337692636580287 0.7622427566031718 0 0 0
6623 1 23.7847618907084 3.535119198810489 19.624990146969544 0 0 1
3439 1 7.186125631532253 0.6921650036323447 36.80916657381476 0 -1 -1
3421 1 1.4783932660888177 19.734771716809114 37.66622357617472 1 0 -1
554 1 8.849117979576672 9.408828623343766 23.1947186302544 0 0 1
5631 1 3.6508374701179314 11.163109448093023 19.945535087256868 0 1 0
2285 1 8.095399749103413 20.197444628186663 23.23181755762429 0 0 1
3652 1 14.760977378505716 1.3652198873409442 39.469428848427015 0 2 -1
1661 1 15.497396328336192 16.386300744719513 40.147570899637586 0 -1 0
5456 1 3.2592126540129316 2.178473658393801 24.169642951836824 1 0 1
3960 1 10.42966876121005 3.5812017848456197 22.838722485341407 0 0 1
2076 1 23.865640655233797 16.463635054454638 23.786485193227282 0 1 0
1746 1 16.963281686087118 17.32371235478074 20.011968521576637 -1 1 0
4792 1 8.03847902046482 5.254202180742818 38.813290856717806 0 0 0
5046 1 1.4988276179382642 14.660580551856564 37.48961372033776 0 1 -1
2027 1 15.077923538601217 10.275494575251646 20.282375243862415 0 0 0
2318 1 18.56239854851352 0.3938039856117329 21.970970672905462 0 0 1
6534 1 7.117462942541836 16.177733362239238 21.737888627041045 0 1 1
5236 1 0.5968057912444653 18.402835939922156 40.17946926387795 0 -1 -1
6406 1 7.476225427098387 13.062944585492438 39.710556135541616 0 -1 0
3584 1 2.5499981667407443 8.042728293927153 24.36572146582147 0 0 0
495 1 2.916892699782333 14.79613127846897 23.117826206027825 -1 0 1
6738 1 12.829191334428073 8.566095388524378 22.741865289038692 0 1 0
6382 1 15.951375839217851 13.674228270780276 36.571558191927764 2 1 0
2239 1 11.544723224717453 0.9177865700400336 23.121562371764952 0 0 0
3887 1 17.977374180101684 14.427260452044804 22.820671762395047 0 2 0
3886 1 22.507822117593687 2.52101626249505 36.96138614796702 0 -1 -1
4967 1 17.950975887048887 4.5370470052317815 23.830052686308804 0 0 1
455 1 24.369913703859385 7.321566976841926 35.871884296387876 1 0 -1
3062 1 21.411542298154156 21.291055341900265 36.98573646838605 1 0 0
6621 1 4.682936300294406 14.818036094945688 35.80687495991896 0 0 0
494 1 13.329704452000035 13.036914590457748 37.3599676034254 0 -1 -1
3134 1 2.463944905188395 0.8226774840672498 19.867340020058077 0 0 1
4887 1 22.751581384832132 6.170735277361773 38.15781986314111 1 1 0
339 1 4.056423783356711 19.262314093175178 23.020333405427184 0 0 0
1547 1 8.175630473080508 16.440808666607065 24.138616019091476 1 0 1
1458 1 13.209683573995362 11.109838085688516 23.357535492598046 0 0 1
4859 1 14.418513078000915 17.313220067972562 23.76295252641944 0 1 1
3832 1 15.22264537065832 19.626333552503894 39.91845614240614 -1 0 -1
3012 1 22.08352986153826 16.466155430740635 20.791705974882316 -1 1 1