
# Create simulation box and atoms

read_data data.ML_graphite_1atm_240K
  orthogonal box = (0 0 1.76685) to (49.22 49.0196 31.8685)
  8 by 4 by 4 MPI processor grid
  reading atoms ...
  4545 atoms
  reading velocities ...
  4545 velocities
group water type 1
1785 atoms in group water
group graphite type 2
2760 atoms in group graphite

# Define potential

pair_style sw
pair_coeff * * MLC_e.sw mW C


# Fix graphite atoms in place

fix 5 graphite setforce 0.0 0.0 0.0
velocity graphite set 0.0 0.0 0.0


# Equilibration of molecular water

# Add velocity/set timestep

velocity	    water create ${TEMP} ${SEED} rot yes dist gaussian
velocity	    water create 240 ${SEED} rot yes dist gaussian
velocity	    water create 240 21507 rot yes dist gaussian
timestep	    5.0

# Define output

compute			1 water msd
compute			3 water temp
thermo	    	50
thermo_style	custom step temp press vol etotal ke pe c_1[4] c_3

# Neighbor lists

neigh_modify    delay 0 every 1 check yes

# Set fixes

fix             1 water momentum 10 linear 1 1 1 rescale
fix             2 water nve
fix             3 water temp/csvr ${TEMP} ${TEMP} 500.0 ${SEED}
fix             3 water temp/csvr 240 ${TEMP} 500.0 ${SEED}
fix             3 water temp/csvr 240 240 500.0 ${SEED}
fix             3 water temp/csvr 240 240 500.0 21507
fix             4 water press/berendsen z ${PRES} ${PRES} 1000.0 modulus 20000
fix             4 water press/berendsen z 1 ${PRES} 1000.0 modulus 20000
fix             4 water press/berendsen z 1 1 1000.0 modulus 20000

# Run 0.5 ns equilibration

dump		    1 all atom 2000 ${DIR}/eq.${NAME}-${TEMP}.dump
dump		    1 all atom 2000 run_18/eq.${NAME}-${TEMP}.dump
dump		    1 all atom 2000 run_18/eq.het_freeze_18-${TEMP}.dump
dump		    1 all atom 2000 run_18/eq.het_freeze_18-240.dump

reset_timestep  0

run	            100000
Neighbor list info ...
  update every 1 steps, delay 0 steps, check yes
  max neighbors/atom: 2000, page size: 100000
  master list distance cutoff = 6.67472
  ghost atom cutoff = 6.67472
  binsize = 3.33736, bins = 15 15 10
  1 neighbor lists, perpetual/occasional/extra = 1 0 0
  (1) pair sw, perpetual
      attributes: full, newton on
      pair build: full/bin/atomonly
      stencil: full/bin/3d
      bin: standard
Per MPI rank memory allocation (min/avg/max) = 4.073 | 4.194 | 4.482 Mbytes
Step Temp Press Volume TotEng KinEng PotEng c_1[4] c_3 
       0    94.225352   -657.89738    72627.636   -17236.286    1276.2636    -18512.55            0          240 
      50    92.061451   -420.43952    72632.722   -17248.316     1246.954    -18495.27   0.51498713    234.48836 
     100     94.46958    -418.0116    72655.258   -17242.427    1279.5717   -18521.999   0.87673676    240.62207 
     150    95.034666   -428.30403    72633.582   -17214.924    1287.2256   -18502.149    1.1489042    242.06139 
     200     93.88263   -568.15284    72596.962   -17267.417    1271.6215   -18539.038    1.4278264    239.12706 
     250    91.291115   -407.19842    72606.156   -17273.656      1236.52   -18510.176    1.7028718    232.52625 
     300    91.067608   -354.22515    72596.281   -17293.685    1233.4926   -18527.178    1.9493559    231.95696 
     350     93.45472   -621.16506    72579.772   -17270.021    1265.8256   -18535.846    2.1608827    238.03713 
     400    94.675325   -609.78181    72599.509   -17285.052    1282.3584    -18567.41    2.3796741    241.14612 
     450     91.91369   -485.80699    72550.425   -17288.008    1244.9526    -18532.96    2.5728005      234.112 
     500    92.088478   -450.21652    72552.975   -17278.317    1247.3201   -18525.637    2.8497344     234.5572 
     550    92.570501   -677.34751    72562.207   -17266.595     1253.849   -18520.444    3.0383171    235.78495 
     600    94.662036   -522.35981    72586.243   -17253.747    1282.1784   -18535.925    3.2513158    241.11227 
     650    92.583087   -110.18712    72640.167   -17253.272    1254.0195   -18507.291    3.5031601    235.81701 
     700    93.262477    -286.4711    72703.105   -17251.276    1263.2217   -18514.498    3.7444199    237.54747 
     750    93.662622   -648.46951    72709.552   -17269.591    1268.6416   -18538.232    3.9758313    238.56668 
     800    97.500766   -547.11981     72704.81    -17249.66    1320.6285   -18570.288    4.2621066    248.34276 
     850     91.88377   -670.31875     72614.43   -17231.166    1244.5474   -18475.713    4.5157323    234.03579 
     900    95.154958   -792.08858    72580.831   -17245.808     1288.855   -18534.663    4.7620245    242.36779 
     950    93.528492   -610.68056    72533.472   -17278.129    1266.8248   -18544.954    4.8787505    238.22504 
    1000    93.671669    36.568749     72550.72   -17245.392    1268.7641   -18514.156    5.0948496    238.58972 
    1050    95.273348   -715.59597    72550.336   -17273.226    1290.4585   -18563.685    5.3379975    242.66933 
    1100     92.84998   -669.91031    72582.526   -17250.346    1257.6345    -18507.98    5.5978151    236.49681 
    1150    98.075817   -461.22605    72603.484   -17215.708    1328.4174   -18544.126    5.7998812    249.80746 
    1200    95.385012   -367.17176    72615.556   -17206.876     1291.971   -18498.847    6.0486207    242.95375 
    1250    94.638831   -207.96752    72577.356   -17188.802    1281.8641   -18470.666    6.3063026    241.05316 
    1300    92.530814   -565.94764    72581.559   -17235.885    1253.3115   -18489.197    6.4920507    235.68387 
    1350    91.791015   -532.21887    72552.654   -17276.421     1243.291   -18519.712    6.6469566    233.79954 
    1400    91.911799   -575.85088    72543.578   -17269.223     1244.927    -18514.15    6.9664607    234.10718 
    1450    95.733816   -514.85334    72517.471   -17241.857    1296.6955   -18538.553    7.1056431    243.84219 
    1500    92.881411    -636.7204    72554.813   -17261.997    1258.0602   -18520.057    7.3103009    236.57687 
    1550    90.883906   -395.72204    72580.796   -17299.038    1231.0044   -18530.042    7.4876057    231.48905 
    1600    94.973331   -397.88475    72544.277   -17267.924    1286.3949   -18554.319    7.6559486    241.90517 
    1650    96.746324    -435.8569    72560.603   -17267.688    1310.4097   -18578.097    7.7946043    246.42113 
    1700    94.086574   -382.39783    72544.629   -17271.763    1274.3839   -18546.147     8.052975    239.64652 
    1750    97.179804   -466.14208     72484.49   -17261.207    1316.2811   -18577.488    8.2530301    247.52524 
    1800    94.830814   -287.39096    72547.487   -17305.908    1284.4645   -18590.373    8.5023666    241.54216 
    1850    95.596594   -747.55417    72519.978   -17305.653    1294.8368    -18600.49    8.8241665    243.49267 
    1900    93.464507   -352.02169    72562.555    -17257.02    1265.9581   -18522.978    9.1365083    238.06206 
    1950    96.491464   -378.74147    72565.917   -17239.082    1306.9577   -18546.039    9.3226955    245.77198 
    2000    96.458129   -108.01905    72570.134   -17230.592    1306.5061   -18537.098    9.5384581    245.68707 
    2050    95.466124   -69.784938    72587.502   -17226.453    1293.0696   -18519.523    9.6428272    243.16035 
    2100    96.728036   -88.617245    72569.085   -17233.287     1310.162   -18543.449    9.7991148    246.37455 
    2150    97.639526   -397.86354      72547.9   -17219.196    1322.5079   -18541.704    10.170295    248.69619 
    2200    95.481111   -818.63714    72567.364   -17238.298    1293.2726    -18531.57    10.425145    243.19852 
    2250    97.092728   -345.99208    72537.169   -17219.126    1315.1017   -18534.227    10.569272    247.30345 
    2300    96.519394    -495.5935    72484.519   -17223.951     1307.336   -18531.287    10.822212    245.84312 
    2350    96.141989     -329.073    72483.682   -17191.564    1302.2241   -18493.788    11.009872    244.88184 
    2400    96.517665    -368.9759    72457.879   -17231.851    1307.3126   -18539.163    11.241373    245.83872 
    2450    96.574776   -457.30895    72536.212   -17224.368    1308.0861   -18532.454    11.416197    245.98418 
    2500    96.964816   -333.96205    72525.861   -17222.056    1313.3691   -18535.425    11.593359    246.97765 
    2550    96.012977   -801.36728    72541.037   -17229.391    1300.4766   -18529.868    11.767844    244.55323 
    2600    93.155203   -604.44941     72535.85   -17250.191    1261.7687    -18511.96    11.910498    237.27424 
    2650    96.113732   -811.73789    72497.469   -17244.628    1301.8414   -18546.469    12.052374    244.80986 
    2700    97.337702   -400.65123    72510.483   -17281.044    1318.4198   -18599.464    12.287862    247.92742 
    2750    95.002926   -295.96981    72429.771   -17258.159    1286.7957   -18544.955    12.471429    241.98055 
    2800    95.359937   -399.63524    72417.116   -17261.382    1291.6314   -18553.014    12.537887    242.88989 
    2850    96.143338    -144.8389    72466.792   -17235.991    1302.2424   -18538.233    12.693645    244.88527 
    2900    93.873882   -309.77603    72519.391   -17254.728     1271.503   -18526.231     12.97677    239.10478 
    2950    92.503814   -511.43705    72529.732   -17288.293    1252.9457   -18541.239    13.423799     235.6151 
    3000    96.249715   -549.07918    72508.574   -17270.244    1303.6832   -18573.927      13.7086    245.15623 
    3050    91.723269   -495.18608    72474.762   -17278.129    1242.3734   -18520.502    13.881167    233.62698 
    3100    92.662418    -393.8038     72477.47   -17299.315     1255.094   -18554.409    14.194062    236.01907 
    3150    93.218405   -749.12682    72403.118   -17297.211    1262.6247   -18559.835    14.403124    237.43522 
    3200    91.336384   -678.23329    72364.858   -17314.124    1237.1331   -18551.258    14.724971    232.64155 
    3250    89.953484    -489.0301    72344.426   -17303.453     1218.402   -18521.855    15.091357    229.11919 
    3300    92.964462   -461.29896    72389.122   -17267.256    1259.1851   -18526.441    15.395496    236.78841 
    3350     93.64117   -556.03369    72394.729   -17246.111     1268.351   -18514.462    15.735049    238.51204 
    3400     91.14806   -753.59938     72368.59   -17269.539    1234.5823   -18504.121    15.968245    232.16187 
    3450    93.624977   -876.88387    72264.998   -17276.954    1268.1317   -18545.086    16.253249    238.47079 
    3500    92.373053    -486.4015    72191.786   -17266.213    1251.1746   -18517.387    16.607296    235.28204 
    3550    91.304912   -605.72681    72173.339   -17258.852    1236.7068   -18495.559    16.903003    232.56139 
    3600    91.064671   -601.04059    72203.565   -17277.458    1233.4528    -18510.91    17.161198    231.94947 
    3650     92.62227   -420.55342    72148.548   -17273.402    1254.5502   -18527.952    17.449754    235.91681 
    3700    95.648612   -388.57047      72098.4   -17286.161    1295.5414   -18581.702    17.397829    243.62516 
    3750    96.135559   -191.95593    72163.392   -17251.501     1302.137   -18553.638     17.56066    244.86546 
    3800    91.690399   -449.18315    72158.375   -17254.143    1241.9282   -18496.072    17.862383    233.54326 
    3850    94.463416    -323.2151    72155.998   -17304.659    1279.4882   -18584.147    17.918003    240.60637 
    3900    92.489627   -560.01606    72174.648   -17278.553    1252.7536   -18531.306    18.110209    235.57896 
    3950    95.789553   -287.29412    72186.604   -17242.476    1297.4504   -18539.926    18.322326    243.98415 
    4000     94.02445   -84.995292    72236.107   -17224.723    1273.5425   -18498.265    18.436889    239.48829 
    4050    98.195318   -383.05748    72338.855   -17227.798     1330.036   -18557.834    18.649923    250.11184 
    4100    99.463055   -132.32126    72393.938    -17206.69    1347.2073   -18553.897    18.966244    253.34088 
    4150     96.14835   -335.45076    72386.588   -17240.569    1302.3103   -18542.879    19.409003    244.89804 
    4200    93.380426   -674.59361    72330.879   -17239.604    1264.8193   -18504.424     19.65538     237.8479 
    4250    91.824758    -160.9272    72354.794   -17288.057    1243.7481   -18531.805    19.675435    233.88548 
    4300    96.517531   -421.58243    72324.124   -17250.468    1307.3107   -18557.779    20.005578    245.83838 
    4350    93.285783   -297.19316    72310.823   -17262.399    1263.5374   -18525.937    20.322712    237.60684 
    4400    95.278949   -688.28552    72387.306   -17255.341    1290.5344   -18545.876    20.571216     242.6836 
    4450    91.468392    -185.7693    72351.518   -17305.887    1238.9212   -18544.808    20.578565    232.97779 
    4500    91.730893   -229.49619    72374.262   -17279.135    1242.4767   -18521.611    20.639838     233.6464 
    4550    96.714769   -293.77413    72389.194    -17237.99    1309.9823   -18547.972     20.79547    246.34076 
    4600    95.976348   -493.40583    72404.841   -17225.492    1299.9805   -18525.473    20.806653    244.45993 
    4650    96.329476   -185.83138    72384.391   -17237.583    1304.7636   -18542.347    20.862354    245.35938 
    4700    93.839332   -572.49994    72377.112   -17227.807    1271.0351   -18498.842    21.092061    239.01677 
    4750    97.238943   -220.35001    72366.925   -17225.626    1317.0821   -18542.709     21.47882    247.67587 
    4800    96.025403   -463.92153    72378.999   -17225.983     1300.645   -18526.628    21.791009    244.58488 
    4850    95.397159   -341.11387    72427.492   -17234.803    1292.1355   -18526.939    21.972151    242.98469 
    4900    92.700249    -285.0794    72400.535    -17259.86    1255.6064   -18515.466    22.321694    236.11543 
    4950    94.656373   -334.95291    72437.102   -17252.531    1282.1017   -18534.633    22.769874    241.09785 
    5000    95.589522   -342.49593    72462.884   -17228.458     1294.741   -18523.199    22.918642    243.47466 
    5050     94.76172   -299.66495    72450.022   -17206.115    1283.5286   -18489.644    23.251129    241.36617 
    5100    98.437958   -392.25238    72416.009   -17185.135    1333.3225   -18518.458    23.543832    250.72987 
    5150    99.433843   -489.58164    72431.243    -17137.08    1346.8116   -18483.891    23.616669    253.26647 
    5200    97.745837   -415.87119    72442.345   -17150.488    1323.9479   -18474.435    24.002862    248.96697 
    5250    94.148498   -297.58663    72404.574   -17178.264    1275.2227   -18453.486    24.141771    239.80425 
    5300    96.373352   -258.76438    72429.171   -17168.331    1305.3579   -18473.689    24.341251    245.47114 
    5350    96.446408   -307.64913     72458.94   -17214.594    1306.3474   -18520.941    24.707213    245.65722 
    5400    94.862387   -200.14492     72477.24   -17224.739    1284.8921   -18509.632    24.930482    241.62258 
    5450    94.454914   -505.20344    72492.256   -17226.178     1279.373   -18505.551     25.20058    240.58471 
    5500    94.110766   -623.38856    72528.451   -17230.357    1274.7116   -18505.068    25.502977    239.70814 
    5550    91.721906   -613.90554    72521.399   -17273.339    1242.3549   -18515.694    25.612039    233.62351 
    5600    91.348328   -531.36601    72520.574   -17319.802    1237.2949   -18557.097    25.637379    232.67197 
    5650    91.344646   -722.72839    72496.642   -17335.993     1237.245   -18573.238    25.747516     232.6626 
    5700    93.525841   -413.67761    72527.681   -17312.799    1266.7889   -18579.588    26.073842    238.21828 
    5750    91.307583   -448.34541    72538.454   -17262.337     1236.743    -18499.08    26.682756    232.56819 
    5800    95.773601   -320.67554     72532.98   -17243.456    1297.2343    -18540.69    27.189999    243.94352 
    5850    94.972837   -514.62779    72591.742   -17220.848    1286.3882   -18507.236    27.600353    241.90391 
    5900    94.741999   -257.99677    72648.416   -17229.011    1283.2615   -18512.272    27.897336    241.31594 
    5950    96.381982   -483.40711    72653.576   -17202.082    1305.4748   -18507.557    28.106649    245.49312 
    6000    97.130887   -339.86873    72646.891   -17175.251    1315.6185    -18490.87    28.081658    247.40064 
    6050    96.778626   -442.02765     72677.07   -17238.944    1310.8472   -18549.791      28.1133    246.50341 
    6100    96.634328    -420.5242    72679.829   -17239.048    1308.8927   -18547.941    28.318275    246.13587 
    6150      95.2583   -376.92492    72710.792   -17236.254    1290.2547   -18526.508    28.299703    242.63101 
    6200    95.367923    -552.9313    72698.223   -17234.062    1291.7395   -18525.802    28.448974    242.91023 
    6250    95.917039   -759.76559    72652.233    -17290.27    1299.1772   -18589.447     28.30164    244.30887 
    6300    94.245043   -422.90181     72639.18   -17288.411    1276.5303   -18564.941    28.239243    240.05015 
    6350    93.903867   -826.80778    72596.825   -17303.015    1271.9092   -18574.924    28.463874    239.18115 
    6400    96.511347   -360.73534    72594.525   -17284.418     1307.227   -18591.645    28.557754    245.82262 
    6450    94.703059   -710.46517     72579.26   -17260.855    1282.7341   -18543.589    28.756483    241.21676 
    6500    95.761054   -438.27398    72594.599   -17237.243    1297.0644   -18534.308    28.804555    243.91156 
    6550    96.078323   -552.18665    72586.769   -17249.137    1301.3618   -18550.499    28.858507    244.71967 
    6600    96.351271   -118.85408    72577.428   -17255.969    1305.0588   -18561.028    28.908823     245.4149 
    6650    92.221386   -323.77854    72638.297   -17279.947    1249.1203   -18529.067    29.086117    234.89573 
    6700    92.495073   -474.20681    72646.413    -17280.12    1252.8273   -18532.947    29.403012    235.59283 
    6750    93.585498   -590.00825    72642.131   -17255.328    1267.5969   -18522.925    29.538546    238.37024 
    6800    96.239904   -475.83337    72694.977   -17252.119    1303.5503    -18555.67    29.778468    245.13124 
    6850    94.638713     130.4666    72768.508   -17226.656    1281.8625   -18508.519    30.196689    241.05287 
    6900    96.010881   -490.79674    72800.784   -17263.743    1300.4483   -18564.191    30.626212    244.54789 
    6950    93.239439   -108.86927    72793.203   -17255.139    1262.9096   -18518.049     30.85613    237.48879 
    7000    94.617347   -764.48055    72777.733   -17236.235    1281.5731   -18517.808    31.121624    240.99845 
    7050    92.562875   -286.51534    72792.243   -17242.227    1253.7457   -18495.973     31.37631    235.76553 
    7100    92.409536   -317.00486     72787.24   -17220.008    1251.6688   -18471.677    31.607444    235.37496 
    7150    94.900945   -609.17452    72790.296   -17220.166    1285.4144    -18505.58    31.759062    241.72079 
    7200    97.506184   -593.11682    72778.588   -17227.269    1320.7018   -18547.971    32.030255    248.35656 
    7250    94.901499   -281.11385    72790.965   -17224.174    1285.4219   -18509.596    32.177663     241.7222 
    7300    96.146466   -512.80537    72767.329   -17262.932    1302.2847   -18565.217    32.532203    244.89324 
    7350    94.610183   -613.94504    72707.243   -17254.561    1281.4761   -18536.037    32.691783     240.9802 
    7400    92.894445   -383.51462    72732.512   -17257.049    1258.2368   -18515.286    32.816876    236.61007 
    7450    94.542043   -242.33954     72773.09   -17273.781    1280.5531   -18554.334    32.962133    240.80664 
    7500    94.177906   -341.77258    72845.677   -17241.094     1275.621   -18516.715    33.103287    239.87915 
    7550     96.18065   -578.06697     72873.75   -17236.811    1302.7478   -18539.559    33.227614    244.98031 
    7600    95.330076   -286.01462      72801.7   -17264.302    1291.2269   -18555.529    33.329066    242.81383 
    7650       94.663    -602.7284    72800.656   -17277.781    1282.1915   -18559.973    33.552818    241.11473 
    7700    91.160844    -546.1157    72810.476   -17296.068    1234.7555   -18530.823    33.509514    232.19444 
    7750    94.441647   -998.04806    72776.886   -17287.584    1279.1933   -18566.777     33.69473    240.55092 
    7800    92.214852   -777.61684    72713.221   -17280.532    1249.0318   -18529.563    33.855221    234.87909 
    7850    92.369393   -664.69084    72696.473   -17287.515     1251.125    -18538.64    34.116374    235.27271 
    7900    94.790428   -293.01585    72738.572   -17212.162    1283.9175   -18496.079    34.756778     241.4393 
    7950    93.888009   -493.29547    72718.243    -17202.04    1271.6944   -18473.734    35.134607    239.14076 
    8000    93.274117   -897.01094    72678.787   -17193.393    1263.3793   -18456.773    35.380591    237.57712 
    8050    95.138162   -314.92076    72708.657   -17187.107    1288.6275   -18475.734    35.538842      242.325 
    8100    94.855378   -326.40253    72696.382   -17213.087    1284.7972   -18497.884    35.751068    241.60473 
    8150    94.132451   -534.55569    72704.869   -17197.182    1275.0053   -18472.188    36.168849    239.76337 
    8200    94.274313   -151.17822    72755.744   -17205.084    1276.9268    -18482.01    36.589664    240.12471 
    8250    93.572287   -359.58348    72787.481   -17192.346     1267.418   -18459.764    36.804131    238.33659 
    8300    97.930696   -64.624595    72836.003   -17152.427    1326.4518   -18478.879    36.962776    249.43783 
    8350    98.662617   -546.01652    72797.173   -17120.829    1336.3655   -18457.194    37.231447    251.30209 
    8400    96.651132   -751.99909    72779.704    -17156.85    1309.1203    -18465.97    37.639433    246.17867 
    8450    96.219963   -564.23609     72755.78   -17161.196    1303.2802   -18464.476    37.961929    245.08044 
    8500    96.558756   -111.46895    72786.083    -17174.13    1307.8691   -18481.999    38.618556    245.94338 
    8550    97.521727   -537.56719    72781.923   -17184.943    1320.9124   -18505.855    39.113348    248.39615 
    8600     97.24164   -506.01336    72786.137   -17168.815    1317.1186   -18485.934    39.303038    247.68274 
    8650    96.912811   -515.29664    72692.798   -17152.064    1312.6647   -18464.728    39.678914    246.84519 
    8700    96.514287   -703.09208    72622.549    -17161.41    1307.2668   -18468.677    39.848275    245.83011 
    8750    96.072879   -570.53611    72582.051   -17162.493     1301.288   -18463.781    40.342966    244.70581 
    8800    95.957983   -221.46529    72613.084   -17142.512    1299.7318   -18442.243    40.671929    244.41316 
    8850    96.710153   -336.17498    72655.092   -17141.998    1309.9198   -18451.918     40.78099      246.329 
    8900     96.33623   -444.55501    72704.697   -17167.897    1304.8551   -18472.752    41.158685    245.37659 
    8950    96.211105    -445.2247    72670.171   -17182.183    1303.1603   -18485.343    41.118367    245.05788 
    9000     94.76635   -347.67837     72681.11   -17212.926    1283.5913   -18496.518    41.124106    241.37797 
    9050    94.436206   -585.80706    72659.126   -17217.201    1279.1196    -18496.32    41.181978    240.53706 
    9100    94.987262   -488.52455    72612.556   -17204.757    1286.5835   -18491.341    41.492935    241.94065 
    9150    93.444297   -496.98179    72628.199   -17218.607    1265.6844   -18484.291    41.706922    238.01059 
    9200    95.260098   -465.18202    72619.368   -17183.757    1290.2791   -18474.036    41.680977    242.63559 
    9250    92.128893   -527.09698    72601.047   -17237.153    1247.8675   -18485.021    41.791999    234.66014 
    9300    95.473989   -110.18547    72666.922   -17227.921    1293.1762   -18521.097    41.949315    243.18039 
    9350    92.356933   -272.47047    72712.094   -17211.751    1250.9563   -18462.708    42.121856    235.24098 
    9400     94.12922   -322.66142    72774.311   -17192.779    1274.9615    -18467.74    42.306982    239.75514 
    9450    95.089604   -118.92324    72782.569   -17194.665    1287.9697   -18482.635    42.373357    242.20132 
    9500    96.655509   -476.00457    72820.274   -17197.231    1309.1796    -18506.41    42.624453    246.18982 
    9550    94.014562   -353.70779    72797.432    -17223.52    1273.4085   -18496.929    42.814082     239.4631 
    9600    95.224927   -323.23694    72737.079    -17204.81    1289.8027   -18494.612      43.1361      242.546 
    9650    95.234179    92.144353    72805.416   -17198.562     1289.928    -18488.49    43.358182    242.56957 
    9700    95.940318   -635.46969    72857.932   -17215.661    1299.4925   -18515.154    43.756116    244.36816 
    9750    92.395036   -434.74552    72846.669   -17209.768    1251.4724    -18461.24    43.763513    235.33803 
    9800    94.236867   -655.80203    72846.188   -17205.204    1276.4196   -18481.624    43.872114    240.02933 
    9850      95.2278   -312.36297    72869.601   -17200.045    1289.8416   -18489.887    44.323953    242.55332 
    9900     94.17119   -396.80841    72841.549   -17205.739      1275.53   -18481.269    44.477665    239.86204 
    9950    95.573569   -365.85247    72816.444   -17187.058     1294.525   -18481.583    44.610433    243.43402 
   10000    96.652343   -511.23782     72853.99   -17201.656    1309.1367   -18510.793    44.892832    246.18175 
   10050    98.290495   -928.40627    72834.467   -17191.402    1331.3252   -18522.727    45.202298    250.35427 
   10100    96.660417   -215.89043    72863.602   -17201.044    1309.2461    -18510.29    45.416965    246.20232 
   10150     95.06752   -686.71407    72931.137   -17234.682    1287.6706   -18522.353    45.562636    242.14507 
   10200    95.415963   -410.73586    72915.141   -17223.852    1292.3902   -18516.243    45.956332    243.03259 
   10250    96.742738   -871.40477    72948.604   -17232.147    1310.3611   -18542.509    46.270388      246.412 
   10300    93.936986   -819.11771    72965.181   -17238.565    1272.3578   -18510.923    46.600594    239.26551 
   10350    93.623962   -587.51705    72914.379   -17231.212    1268.1179    -18499.33    46.669602    238.46821 
   10400    93.868124   -528.56167    72862.976   -17206.322     1271.425   -18477.747    46.881314    239.09011 
   10450    94.298641   -139.93555    72874.009   -17228.296    1277.2563   -18505.552    46.996848    240.18667 
   10500    92.607435   -274.98979    72903.859   -17265.041    1254.3493    -18519.39    47.176864    235.87903 
   10550    95.159627   -428.74204    72901.261   -17234.824    1288.9182   -18523.742     47.48084    242.37968 
   10600    93.080974   -331.38964    72848.855   -17259.985    1260.7633   -18520.748    47.263207    237.08517 
   10650    92.133075   -470.40186    72794.536   -17290.646    1247.9242    -18538.57    47.268158    234.67079 
   10700    92.910802   -327.74994    72769.366   -17288.185    1258.4583   -18546.643    47.540024    236.65173 
   10750    92.815472   -230.59483    72818.698   -17245.982    1257.1671   -18503.149    47.644878    236.40892 
   10800    93.143438   -326.81788     72842.86   -17247.176    1261.6093   -18508.785    47.848763    237.24427 
   10850    92.366929   -307.25729    72830.338   -17251.236    1251.0917   -18502.328    47.852171    235.26644 
   10900    95.706622   -572.61678    72883.026   -17227.523    1296.3271    -18523.85    47.921733    243.77292 
   10950    93.538074   -469.24502    72848.591   -17188.365    1266.9546    -18455.32    48.367907    238.24944 
   11000    91.065106   -502.13555    72797.874   -17209.621    1233.4587   -18443.079     48.69293    231.95058 
   11050    94.247442   -624.26148    72754.851   -17210.563    1276.5628   -18487.126    48.944032    240.05627 
   11100    91.880565   -840.63411    72666.384   -17257.821     1244.504   -18502.325    49.160741    234.02763 
   11150    91.325274   -665.16281     72629.46   -17270.455    1236.9827   -18507.438    49.464587    232.61325 
   11200    91.998026   -551.75267    72684.859   -17247.032    1246.0949   -18493.127    49.571142    234.32681 
   11250     96.84066   -590.51676    72661.592   -17238.194    1311.6875   -18549.882    49.822804    246.66141 
   11300    95.149037   -474.43328    72648.978   -17214.747    1288.7748   -18503.521    50.225871     242.3527 
   11350    95.549619   -607.45131     72661.02   -17176.214    1294.2006   -18470.415    50.423053    243.37302 
   11400    94.623953   -645.07039    72659.925   -17203.697    1281.6626    -18485.36    50.703722    241.01527 
   11450    93.271569   -853.59887    72729.291   -17193.497    1263.3448   -18456.842    51.128531    237.57063 
   11500    93.762806   -396.81466     72663.63   -17212.851    1269.9985    -18482.85    51.174039    238.82186 
   11550    95.371925   -654.69354    72631.452   -17228.372    1291.7937   -18520.166    51.152353    242.92042 
   11600    93.568066   -528.72018     72627.69    -17229.79    1267.3608   -18497.151    51.304439    238.32584 
   11650    95.756454   -862.39206    72628.771   -17234.232    1297.0021   -18531.235    51.575746    243.89985 
   11700    92.885604   -530.32225    72685.951   -17249.196     1258.117   -18507.313    51.860206    236.58755 
   11750    93.886479   -582.59786    72687.545   -17237.148    1271.6737   -18508.822    52.005534    239.13686 
   11800    93.750579   -602.49194     72697.71   -17247.879    1269.8329   -18517.712    52.312072    238.79071 
   11850    91.882209   -331.88738     72660.79   -17221.335    1244.5262   -18465.861    52.465112    234.03181 
   11900    96.164964    -538.5099    72629.447    -17210.82    1302.5353   -18513.356    52.448926    244.94036 
   11950    94.967439   -407.89371    72574.895   -17182.422    1286.3151   -18468.737    52.740726    241.89016 
   12000    95.626486   -358.52706    72569.649   -17200.505    1295.2417   -18495.746    53.143311    243.56881 
   12050    93.794762   -310.59393    72581.299   -17224.085    1270.4314   -18494.517    53.657023    238.90325 
   12100    92.973274   -251.68471    72586.479   -17213.024    1259.3045   -18472.328    53.955426    236.81085 
   12150    95.328689   -180.59169    72612.893   -17240.897    1291.2081   -18532.105    54.261357    242.81029 
   12200    93.232972   -461.65916    72614.257   -17233.616     1262.822   -18496.438    54.559947    237.47232 
   12250    94.463448   -100.54396    72622.301   -17209.548    1279.4886   -18489.036     54.74855    240.60645 
   12300    96.519324    -337.9022    72676.943    -17183.86     1307.335   -18491.195    55.100123    245.84294 
   12350    96.259263   -417.00445    72689.191   -17186.356    1303.8126   -18490.168    55.267694    245.18055 
   12400     95.26584   -596.84287    72631.563   -17201.243    1290.3568   -18491.599    55.446764    242.65021 
   12450    95.932634   -495.34071    72532.883   -17231.033    1299.3884   -18530.421    55.629748    244.34859 
   12500    95.026102   -369.45952    72519.346   -17261.971    1287.1096   -18549.081    55.641936    242.03958 
   12550    91.875301    205.43841    72553.885   -17294.592    1244.4327   -18539.024    55.991214    234.01422 
   12600    93.285042    -373.5519    72586.037   -17271.141    1263.5273   -18534.668    56.618722    237.60495 
   12650    97.560782   -437.35088    72572.903   -17263.021    1321.4414   -18584.462    56.869342    248.49562 
   12700    91.316086   -32.764937    72671.607   -17272.286    1236.8582   -18509.144    57.185529    232.58985 
   12750    95.200418   -780.68591     72697.33   -17227.302    1289.4707   -18516.773    57.673264    242.48357 
   12800    95.624664   -258.64305    72683.656   -17187.055     1295.217   -18482.272    57.690493    243.56417 
   12850     96.24065   -541.99237    72681.487   -17189.983    1303.5604   -18493.544    57.887247    245.13314 
   12900    97.875021   -323.16472    72689.053   -17215.538    1325.6977   -18541.236    58.087147    249.29602 
   12950     95.02729   -392.53628     72674.84   -17239.618    1287.1257   -18526.744       58.231     242.0426 
   13000    93.792725   -483.73264    72735.268   -17215.332    1270.4038   -18485.736    57.977196    238.89806 
   13050    92.059055   -716.33183    72762.716   -17200.771    1246.9216   -18447.693    58.005619    234.48226 
   13100    95.531218   -706.71064    72731.286   -17179.316    1293.9513   -18473.267    58.004915    243.32615 
   13150    94.278939   -373.20429    72716.497   -17193.432    1276.9895   -18470.421    58.026624    240.13649 
   13200    95.495747    -312.4492    72690.419   -17188.944    1293.4709   -18482.415    58.387844     243.2358 
   13250    92.626311    -679.4254    72585.718   -17180.776    1254.6049   -18435.381    58.704688    235.92711 
   13300    93.280821   -519.07862    72556.813   -17209.457    1263.4701   -18472.927    58.982727     237.5942 
   13350    95.059838   -577.84738    72493.418   -17208.231    1287.5666   -18495.798    58.924803    242.12551 
   13400    94.461787   -363.14298    72450.003   -17229.426    1279.4661   -18508.892    59.248144    240.60222 
   13450    96.323604   -37.552249    72483.012   -17192.178     1304.684   -18496.862    59.646706    245.34443 
   13500    98.128709   -345.88422    72527.105   -17181.036    1329.1338    -18510.17    60.263323    249.94218 
   13550     93.72458   -255.65734    72550.661   -17180.182    1269.4808   -18449.663    60.211258    238.72449 
   13600    92.644589   -133.10114    72559.838   -17204.655    1254.8525   -18459.508    60.873893    235.97366 
   13650    92.162466   -122.52122    72613.215   -17211.972    1248.3222   -18460.294    61.109519    234.74565 
   13700    94.941323   -261.14502    72617.077   -17211.301    1285.9613   -18497.262    61.177012    241.82364 
   13750    91.738866   -389.93955    72631.183   -17224.198    1242.5847   -18466.783    61.307643    233.66671 
   13800     93.26411   -351.41025    72665.374   -17229.029    1263.2438   -18492.273    61.639654    237.55164 
   13850    93.262572   -35.305665    72728.343   -17220.668     1263.223   -18483.891    61.480949    237.54772 
   13900    94.202003    -487.4561     72769.29   -17241.022    1275.9474   -18516.969    61.561166    239.94053 
   13950    98.171674   -434.79971    72799.441   -17204.669    1329.7158   -18534.385    61.824869    250.05162 
   14000    96.179273    -650.2852    72827.066   -17223.425    1302.7291   -18526.154    61.910444     244.9768 
   14050    93.289406   -736.91148    72833.615   -17231.192    1263.5864   -18494.778    62.190772    237.61607 
   14100     95.70731     -314.752     72800.94    -17266.58    1296.3365   -18562.917    62.213927    243.77467 
   14150     94.02689   -739.92182    72727.018   -17242.721    1273.5755   -18516.297    62.407751     239.4945 
   14200     94.07659   -324.42776    72788.579   -17297.066    1274.2487   -18571.315    62.693764    239.62109 
   14250    94.132014   -358.77704    72803.328    -17292.17    1274.9994   -18567.169    62.829156    239.76226 
   14300    89.077574   -351.85658    72809.536   -17323.491     1206.538   -18530.029     62.90337    226.88817 
   14350    90.637681    -321.8594    72781.636   -17290.698    1227.6693   -18518.367    63.077018     230.8619 
   14400    93.211449   -130.35314    72764.859   -17256.164    1262.5305   -18518.695    63.111766     237.4175 
   14450    91.416162   -594.41385    72813.986   -17269.038    1238.2137   -18507.252    63.104078    232.84475 
   14500    93.454011    -231.3728    72862.642   -17257.939     1265.816   -18523.755    63.321671    238.03533 
   14550    95.264131    -393.6206    72868.589   -17263.083    1290.3337   -18553.416    63.607299    242.64586 
   14600    94.843761   -552.50355    72774.619   -17266.899    1284.6399   -18551.538    63.827701    241.57514 
   14650    94.227603   -271.91753    72772.661   -17257.601    1276.2941   -18533.895    64.040599    240.00573 
   14700    95.115517   -297.48143    72780.511   -17237.052    1288.3207   -18525.373     64.25184    242.26733 
   14750    93.117465   -428.68676    72813.112    -17232.86    1261.2575   -18494.118    64.676263    237.17812 
   14800    93.118436    -813.9186    72737.328   -17241.189    1261.2707    -18502.46    64.571637    237.18059 
   14850    95.310855   -607.69635    72724.794   -17262.074    1290.9666   -18553.041    64.825579    242.76487 
   14900    95.688472   -331.66138     72675.15   -17237.544    1296.0813   -18533.625    65.160851    243.72669 
   14950     93.02031    93.007351    72609.981    -17254.22    1259.9416   -18514.161    65.307623    236.93065 
   15000     93.55144   -438.02048    72641.653   -17266.034    1267.1356    -18533.17    65.512507    238.28349 
   15050    93.171065    -123.5933    72631.327   -17277.427    1261.9835   -18539.411    65.564049    237.31464 
   15100    94.278104   -243.56064    72619.641   -17241.104    1276.9781   -18518.082    65.379125    240.13436 
   15150    94.367702   -580.45437    72575.765   -17245.452    1278.1917   -18523.644    65.261168    240.36258 
   15200    95.598941   -82.347178     72532.83   -17254.261    1294.8686   -18549.129    65.347837    243.49865 
   15250    94.303793    -761.4105    72479.889   -17233.245    1277.3261   -18510.571    65.568711     240.1998 
   15300    94.083977   -564.29537     72468.97   -17263.146    1274.3487   -18537.495    65.568672    239.63991 
   15350    94.729472   -490.59986    72479.886   -17264.685    1283.0918   -18547.777    65.906755    241.28404 
   15400    93.095271   -526.60175    72456.576   -17245.978    1260.9569   -18506.935    66.266266    237.12159 
   15450    93.297008   -323.92791     72485.54   -17262.755    1263.6894   -18526.444    66.706214    237.63543 
   15500    94.999812   -176.63445    72535.303   -17251.685    1286.7535   -18538.439    67.354784    241.97262 
   15550    94.903473   -515.27916    72589.362   -17278.303    1285.4486   -18563.752    67.852613    241.72723 
   15600    92.270492   -347.19647    72549.101   -17322.012    1249.7854   -18571.798    68.043315     235.0208 
   15650    90.817916   -422.91557    72485.467    -17327.01    1230.1106    -18557.12    68.388327    231.32097 
   15700    92.879071    -331.4523    72460.405   -17327.417    1258.0285   -18585.445    68.172829    236.57091 
   15750    90.429302   -302.96318    72406.097   -17350.312    1224.8469   -18575.159    68.153634    230.33114 
   15800    92.100446   -216.73538    72412.582   -17341.302    1247.4822   -18588.784     68.44589    234.58768 
   15850    93.093094   -285.19472     72435.75   -17340.878    1260.9274   -18601.805    68.563067    237.11604 
   15900    91.797239   -613.87855    72452.923    -17341.46    1243.3753   -18584.835    68.770134    233.81539 
   15950    92.215027   -50.106521    72441.294   -17296.758    1249.0342   -18545.792    68.705799    234.87953 
   16000    96.706508   -190.50807    72467.052   -17264.606    1309.8704   -18574.476    68.595655    246.31972 
   16050    95.161881   -516.18342    72509.184    -17306.48    1288.9487   -18595.429    68.655038    242.38542 
   16100    95.159106   -368.84445    72509.022   -17301.384    1288.9111   -18590.295    68.711323    242.37835 
   16150    96.015636   -323.64039    72432.368   -17278.978    1300.5127   -18579.491    68.830518    244.56001 
   16200    92.035918   -457.11588    72483.431   -17295.456    1246.6082   -18542.064    68.919332    234.42333 
   16250    95.414956   -361.69759    72467.741   -17285.575    1292.3766   -18577.952    69.259007    243.03002 
   16300    91.196183   -86.166403    72463.526   -17270.667    1235.2341   -18505.901    69.658143    232.28445 
   16350    94.909879   -157.72819     72501.97   -17251.843    1285.5354   -18537.378    69.853391    241.74355 
   16400    93.185666   -191.91983    72535.694   -17273.299    1262.1813   -18535.481    69.945122    237.35183 
   16450     93.75434   -231.23238    72588.266   -17246.871    1269.8839   -18516.755    70.009783    238.80029 
   16500    92.520846   -481.30386    72615.052   -17209.947    1253.1764   -18463.124    70.378339    235.65848 
   16550    96.124516   -288.95786    72642.599   -17199.077    1301.9874   -18501.064    70.232669    244.83733 
   16600    95.229194   -314.22039    72708.799   -17241.983    1289.8605   -18531.843    70.300634    242.55687 
   16650    92.744676   -258.87157     72679.73   -17255.084    1256.2082   -18511.292    70.254567    236.22859 
   16700    95.365851   -346.36817    72726.206   -17258.118    1291.7115   -18549.829     70.48017    242.90495 
   16750    95.001911   -58.269721    72767.924   -17265.191     1286.782   -18551.973    70.834174    241.97796 
   16800    92.820282    -333.7988    72788.552   -17302.847    1257.2322   -18560.079    70.961621    236.42117 
   16850    93.965752   -156.64811    72783.935   -17273.737    1272.7474   -18546.484    71.500153    239.33878 
   16900    96.265032   -366.10676    72820.178   -17214.039    1303.8907    -18517.93    71.530843    245.19524 
   16950    94.097475    77.674468    72845.165   -17205.037    1274.5316   -18479.568    71.753716    239.67429 
   17000    96.732752   -372.23931    72840.646   -17213.048    1310.2259   -18523.274    71.911809    246.38656 
   17050    92.691758   -137.32566    72723.765   -17224.418    1255.4914   -18479.909    72.110396    236.09381 
   17100    92.791402    -299.1178    72705.952   -17240.394    1256.8411   -18497.235    72.199858    236.34761 
   17150    96.000986   -353.51416    72684.027   -17247.377    1300.3142   -18547.691     72.15725    244.52269 
   17200    96.981486   -480.16706    72749.782   -17213.703    1313.5949   -18527.298    72.594293    247.02011 
   17250    94.128306   -410.41808    72718.623   -17238.168    1274.9492   -18513.117     72.99026    239.75282 
   17300    96.768576   -491.90231    72750.458   -17218.558    1310.7111   -18529.269    73.316211    246.47781 
   17350    96.186804   -517.94151    72738.246   -17232.149    1302.8311    -18534.98     73.81002    244.99599 
   17400    95.282707   -157.52834    72771.732   -17242.421    1290.5853   -18533.006    73.972018    242.69317 
   17450    95.220583   -353.52832    72843.395   -17229.757    1289.7438   -18519.501    73.892567    242.53494 
   17500    96.559187   -443.03935    72899.836    -17252.42     1307.875   -18560.295    74.002174    245.94448 
   17550    92.035461   -944.06261    72870.574   -17270.084     1246.602   -18516.686    74.070614    234.42216 
   17600    92.970868   -461.81243    72842.507   -17288.826    1259.2719   -18548.098    74.370054    236.80472 
   17650    94.221851   -537.64464    72840.856   -17262.673    1276.2162   -18538.889    74.660325    239.99108 
   17700    94.137901   -520.37434     72870.58   -17296.825    1275.0791   -18571.904    74.905291    239.77726 
   17750    95.872622   -452.86969    72845.562   -17266.934    1298.5756    -18565.51    74.815779    244.19574 
   17800    94.447842    -279.8696    72823.548   -17256.929    1279.2772   -18536.206    74.991417     240.5667 
   17850    93.306383   -566.22037     72761.88   -17213.474    1263.8164    -18477.29     74.85948    237.65931 
   17900    97.908929      -247.93    72830.703    -17203.96    1326.1569   -18530.116    74.842561    249.38238 
   17950     97.77677   -111.04377    72867.169    -17201.32    1324.3669   -18525.687    75.068568    249.04576 
   18000    95.852758   -523.72484    72871.608   -17190.432    1298.3065   -18488.738    75.248744    244.14514 
   18050    91.325014   -690.36879    72828.766   -17252.661    1236.9791    -18489.64    75.473811    232.61259 
   18100    95.158054   -788.72992     72807.18   -17261.848    1288.8969   -18550.745    75.500437    242.37567 
   18150    91.161297   -533.76728    72697.221   -17285.958    1234.7616   -18520.719    75.935263    232.19559 
   18200    92.908815   -423.58086    72637.535   -17287.304    1258.4314   -18545.736    75.633903    236.64667 
   18250    93.977614   -342.53061    72683.248   -17258.104    1272.9081   -18531.012    76.051684    239.36899 
   18300    94.650146   -493.73285     72659.93   -17244.329    1282.0174   -18526.346    76.653919    241.08199 
   18350     95.58182   -500.10815    72652.982   -17240.893    1294.6367    -18535.53    76.939986    243.45504 
   18400    92.353592   -155.60259    72627.587   -17271.103     1250.911   -18522.014    77.379429    235.23247 
   18450    95.438808   -150.89722    72650.341   -17234.575    1292.6996   -18527.275    77.379889    243.09078 
   18500    92.922822    -125.2476    72685.859    -17241.49    1258.6211   -18500.111    77.688281    236.68235 
   18550    96.241086   -556.13647     72703.85   -17223.581    1303.5663   -18527.148    78.009123    245.13425 
   18600    92.461195   -293.82395    72690.029     -17232.9    1252.3685   -18485.269    78.547741    235.50654 
   18650    97.373789   -115.60592    72710.364   -17172.716    1318.9086   -18491.625    78.487361    248.01934 
   18700    98.264206   -403.26156    72712.728   -17201.853    1330.9691   -18532.822    78.615728    250.28731 
   18750    94.605211   -409.01878    72752.529   -17204.888    1281.4087   -18486.297    78.935547    240.96753 
   18800    95.975859   -179.17904     72798.11    -17231.52    1299.9739   -18531.494    79.202143    244.45869 
   18850    96.062948   -286.97416    72848.323   -17231.235    1301.1535   -18532.388    79.131657    244.68051 
   18900    94.305983   -570.09079    72852.908   -17249.963    1277.3558   -18527.318    79.150653    240.20537 
   18950    92.635364   -586.12396    72766.312   -17234.238    1254.7276   -18488.966    79.364095    235.95016 
   19000    96.962661   -424.67244     72761.45   -17206.512    1313.3399   -18519.852    79.356258    246.97216 
   19050    93.879534   -328.39475    72815.819   -17228.804    1271.5796   -18500.384    79.296789    239.11917 
   19100    95.666921   -245.84188    72830.963   -17198.452    1295.7894   -18494.242    79.665882     243.6718 
   19150    93.165919     37.52685    72825.074   -17209.369    1261.9138   -18471.283    80.290152    237.30153 
   19200     92.46608   -532.06839    72857.577   -17237.026    1252.4346   -18489.461     80.79969    235.51898 
   19250     92.28711   -177.87568    72836.641   -17239.857    1250.0105   -18489.868    81.054079    235.06313 
   19300    93.189856   -329.01486     72847.62   -17248.599     1262.238   -18510.837    81.195183     237.3625 
   19350    93.338416   -325.26652    72861.006   -17263.212    1264.2503   -18527.463    81.466144     237.7409 
   19400    95.320772   -757.58867    72834.204   -17218.711    1291.1009   -18509.812    81.746123    242.79013 
   19450    94.192314   -220.18954    72797.136   -17217.208    1275.8161   -18493.024    81.649448    239.91585 
   19500    92.916735   -482.15342    72722.731   -17215.748    1258.5387   -18474.287    81.812122    236.66684 
   19550    93.672838   -388.06601     72635.28   -17263.947    1268.7799   -18532.727    81.905097     238.5927 
   19600    92.750062   -47.115933     72691.63   -17255.766    1256.2811   -18512.047    82.211795    236.24231 
   19650    93.100384   -278.58693    72712.384   -17216.253    1261.0262   -18477.279    82.411968    237.13461 
   19700    96.441891   -474.72317    72759.454   -17223.478    1306.2862   -18529.765    82.513929    245.64571 
   19750    94.404282   -270.73195    72744.717   -17205.276    1278.6872   -18483.963    82.764736    240.45575 
   19800    98.032974   -76.877941    72846.073   -17157.233    1327.8371    -18485.07    82.897284    249.69834 
   19850    92.964374   -577.93231    72875.949   -17185.728    1259.1839   -18444.912    83.186931    236.78818 
   19900    95.190112   -301.61156    72931.477   -17187.904    1289.3311   -18477.236    83.491293    242.45733 
   19950    94.304745   -792.21368    72906.814   -17225.482     1277.339   -18502.821    83.881599    240.20222 
   20000    94.089541   -753.29189    72841.403   -17198.236    1274.4241    -18472.66    83.877754    239.65408 
   20050    97.394492    -362.5544    72794.971   -17209.761     1319.189    -18528.95    84.222476    248.07207 
   20100    93.341497   -353.53341    72737.726   -17216.064     1264.292   -18480.356     84.57672    237.74875 
   20150    92.335921   -327.61982    72716.827   -17236.583    1250.6717   -18487.254    84.607358    235.18746 
   20200     94.06208   -595.62885    72716.661   -17243.273    1274.0521   -18517.325    84.745996    239.58413 
   20250    93.667211   -463.73374    72681.367   -17217.166    1268.7037   -18485.869    84.915734    238.57837 
   20300     95.00189   -555.52761    72663.184   -17247.186    1286.7817   -18533.967    84.952224    241.97791 
   20350    93.845524   -623.06671    72609.352   -17245.705    1271.1189   -18516.824    84.949766    239.03254 
   20400    95.055965   -434.99688    72513.433   -17246.473    1287.5141   -18533.987    84.730118    242.11564 
   20450    94.837419    -684.6137    72575.873   -17276.549     1284.554   -18561.103    84.964208    241.55899 
   20500    94.255581   -161.46122    72650.938   -17273.164    1276.6731   -18549.837    85.072613    240.07699 
   20550    91.312012   -364.77543    72691.276    -17255.66     1236.803   -18492.463    85.265698    232.57947 
   20600    93.910411   -325.74674    72679.373   -17266.731    1271.9978   -18538.728    85.393916    239.19782 
   20650    92.529277   -150.68608    72660.192   -17288.783    1253.2906   -18542.073    85.778014    235.67995 
   20700    93.953379   -397.12796    72661.401   -17257.069    1272.5798   -18529.649    86.149767    239.30726 
   20750    96.305256   -315.47571    72686.273   -17239.393    1304.4355   -18543.829    86.519156    245.29769 
   20800    94.491733   -180.87418    72759.259   -17265.895    1279.8717   -18545.767    86.640575     240.6785 
   20850    94.487707    -573.9459    72845.928    -17269.55    1279.8172   -18549.367    86.951059    240.66824 
   20900    95.893376   -406.70486    72836.026   -17209.798    1298.8567   -18508.655    86.706434     244.2486 
   20950    97.879126   -492.84572    72819.027   -17205.084    1325.7533   -18530.837    86.772155    249.30647 
   21000    93.447108    116.77205    72780.729   -17230.027    1265.7225    -18495.75    86.779498    238.01775 
   21050    94.999355   -174.25202    72847.805   -17218.049    1286.7473   -18504.797    86.684778    241.97145 
   21100    96.613441    -230.8943    72854.738    -17227.33    1308.6098    -18535.94    86.837948    246.08267 
   21150    95.708725    -452.7717    72917.984    -17240.23    1296.3556   -18536.586    87.549491    243.77828 
   21200    93.144117    -403.0088    72944.932   -17252.467    1261.6185   -18514.086    87.888108      237.246 
   21250    94.051477   -554.27726    72947.662   -17251.036    1273.9085   -18524.944    87.700723    239.55712 
   21300    93.994608   -291.69303    72900.451   -17228.684    1273.1383   -18501.822    87.905329    239.41228 
   21350    91.851852   -371.82035    72908.454   -17244.276    1244.1151   -18488.391    88.377961    233.95449 
   21400    93.954479    -369.7587    72896.434   -17275.585    1272.5947    -18548.18    88.212936    239.31006 
   21450    95.653347   -326.08058    72964.306   -17269.372    1295.6055   -18564.977    88.442943    243.63722 
   21500    93.515606   -386.21416    72976.194   -17244.414    1266.6503   -18511.064    88.711112    238.19222 
   21550    94.999115   -531.70193    72917.284   -17253.669    1286.7441   -18540.413     88.47864    241.97084 
   21600    95.781711    -322.9962    72941.297   -17171.883    1297.3442   -18469.227     88.77425    243.96418 
   21650    93.844044   -701.84456    72992.791   -17178.767    1271.0989   -18449.866    88.909041    239.02878 
   21700    99.014693   -592.81639    73004.726   -17197.055    1341.1343   -18538.189    89.433363    252.19886 
   21750    94.689958   -450.02414     72954.91   -17222.739    1282.5566   -18505.296    89.653874    241.18339 
   21800    95.342557   -402.08665    72953.702   -17229.269    1291.3959   -18520.665    89.652341    242.84562 
   21850    92.934884   -212.76144    72902.402   -17265.646    1258.7845   -18524.431    90.026901    236.71307 
   21900    94.540553   -373.39367    72903.101    -17254.04     1280.533   -18534.573    90.495088    240.80284 
   21950     91.55942   -357.42591     72787.59    -17305.54    1240.1541   -18545.694    90.706018    233.20964 
   22000    95.432667   -151.60436    72793.299   -17276.362    1292.6165   -18568.979    90.767215    243.07513 
   22050    92.860869   -477.33378    72747.374   -17271.969     1257.782   -18529.751    91.122926    236.52454 
   22100    93.845236   -477.92673    72720.346   -17268.044     1271.115   -18539.159    91.360223    239.03181 
   22150    93.094144   -510.63142    72668.212   -17294.376    1260.9416   -18555.317    91.805648    237.11872 
   22200    92.055062   -584.32452     72625.16   -17307.787    1246.8675   -18554.655    92.089248    234.47209 
   22250    92.418731    -396.3448      72637.9   -17323.777    1251.7933    -18575.57    92.318624    235.39838 
   22300    93.736598   -653.57099     72637.27   -17321.271    1269.6436   -18590.914    92.194329     238.7551 
   22350    92.315944   -496.35357    72616.254   -17324.851    1250.4011   -18575.253    92.363212    235.13658 
   22400    93.953647   -587.45688    72629.024   -17270.199    1272.5834   -18542.782    92.554866    239.30794 
   22450    95.332001   -182.66276    72613.066   -17244.674     1291.253   -18535.927    92.781557    242.81873 
   22500     96.97707    -183.1891    72712.119   -17250.725    1313.5351    -18564.26    92.994333    247.00886 
   22550    94.925068    16.950603    72734.423   -17266.933    1285.7411   -18552.674     92.91534    241.78224 
   22600    96.071802   -494.86073    72760.928   -17274.658    1301.2734   -18575.931    93.315216    244.70307 
   22650    92.709207   -705.47827    72732.217   -17313.335    1255.7278   -18569.063     93.51135    236.13825 
   22700    95.118209   -76.115818    72732.337   -17346.885    1288.3572   -18635.242    93.895887    242.27418 
   22750     92.34087   -471.14419    72757.809   -17356.064    1250.7387   -18606.802    93.855146    235.20006 
   22800    92.479237    -256.5059    72825.944   -17343.623    1252.6129   -18596.236    93.967251     235.5525 
   22850    93.861107   -154.24307    72840.288   -17272.304      1271.33   -18543.634     94.24754    239.07224 
   22900    94.590685    -399.7952    72876.938   -17265.378     1281.212    -18546.59     94.50102    240.93053 
   22950    93.635314   -656.67972    72891.679    -17280.96    1268.2717   -18549.232    94.834107    238.49712 
   23000     94.54243   -303.46585    72932.786   -17298.109    1280.5584   -18578.668    95.175383    240.80763 
   23050    91.732296    -734.3618    72884.877   -17342.889    1242.4957   -18585.385    95.440923    233.64997 
   23100     92.53454   -35.814624    72871.787   -17345.795    1253.3619   -18599.156    95.620242    235.69336 
   23150    95.685182   -511.47868    72872.367   -17287.486    1296.0367   -18583.523    96.113613    243.71831 
   23200    92.265656   -524.54878    72866.203   -17292.398    1249.7199   -18542.118    95.908752    235.00849 
   23250    93.269129    -530.3768    72923.061   -17292.749    1263.3118   -18556.061    96.066182    237.56442 
   23300    92.608674    -702.6644    72893.266   -17248.809     1254.366   -18503.175    96.167387    235.88218 
   23350    95.172433   -559.83495    72908.467   -17250.802    1289.0917   -18539.893    96.201423     242.4123 
   23400    92.443941   -622.32107    72935.565   -17247.915    1252.1348    -18500.05    96.327742     235.4626 
   23450    94.853374   -680.89298    72895.917   -17257.192    1284.7701   -18541.962    96.508536    241.59963 
   23500    97.208651   -414.60311    72901.431   -17238.859    1316.6718   -18555.531    96.807395    247.59872 
   23550    95.670158   -490.43327    72870.655   -17239.828    1295.8332   -18535.661     97.08427    243.68004 
   23600    95.113112   -46.372723    72833.118   -17264.081    1288.2882    -18552.37    97.178484     242.2612 
   23650     90.44263    -753.4467    72813.292   -17273.408    1225.0274   -18498.435    97.788726    230.36508 
   23700      94.4094   -341.58903    72833.275   -17248.833    1278.7565    -18527.59    97.957458    240.46879 
   23750    93.778502   -519.49331    72866.571   -17272.181    1270.2111   -18542.392    98.051885    238.86184 
   23800    93.155602   -708.20877    72861.776   -17288.172    1261.7741   -18549.946    98.279058    237.27525 
   23850     91.23967   -279.14135    72901.556   -17257.995    1235.8232   -18493.819    98.589282    232.39521 
   23900    91.798817   -124.31412    72884.645    -17280.84    1243.3967   -18524.236    98.664562    233.81941 
   23950    93.286344   -657.10668    72865.315   -17238.197     1263.545   -18501.742    98.726646    237.60827 
   24000    93.337641   -560.89639    72836.601   -17241.824    1264.2398   -18506.064    98.539381    237.73893 
   24050    94.798018   -187.56138    72894.108   -17242.982    1284.0203   -18527.002    98.899072    241.45863 
   24100    97.502014   -330.27857    72932.067   -17230.552    1320.6454   -18551.197    99.521502    248.34594 
   24150    94.811983   -137.57471    72963.715   -17211.009    1284.2094   -18495.219    99.791327     241.4942 
   24200    95.141927   -290.33957     72998.62   -17215.784    1288.6785   -18504.462    99.916496    242.33459 
   24250    93.321882   -489.54247    73010.314    -17206.34    1264.0263   -18470.366    99.832782    237.69879 
   24300    94.232408   -445.40516    72992.057   -17200.582    1276.3592   -18476.941    100.24012    240.01797 
   24350    94.923515   -387.83562    72956.331   -17220.726    1285.7201   -18506.446    100.42806    241.77828 
   24400    94.264574     -615.039    72991.972   -17249.115    1276.7949   -18525.909    100.41866     240.0999 
   24450    91.026895   -666.70053     72952.55   -17254.696    1232.9412   -18487.637    100.76293    231.85326 
   24500    94.528724   -486.05295    72950.642   -17249.066    1280.3727   -18529.439    100.88701    240.77271 
   24550    94.794327   -347.12639    72973.512   -17229.237    1283.9703   -18513.207    101.17981    241.44923 
   24600    93.023369   -402.04565    73002.601   -17266.828     1259.983   -18526.811    101.32511    236.93845 
   24650    95.284663   -801.16201    73005.122   -17243.573    1290.6118   -18534.184    101.35979    242.69815 
   24700    90.701468   -347.17207    72979.137   -17280.612    1228.5333   -18509.145    101.46521    231.02437 
   24750    94.644079   -396.11012    72963.393   -17274.345    1281.9352    -18556.28     101.6375    241.06653 
   24800    90.636924    -653.4196    72971.304   -17312.501    1227.6591    -18540.16    101.82264    230.85997 
   24850    91.831055   -305.87521     72935.47   -17292.784    1243.8333   -18536.617    102.38592    233.90152 
   24900    91.489364   -469.66898    72949.199   -17319.342    1239.2052   -18558.547    102.59314     233.0312 
   24950    92.499605   -782.81757    72917.781   -17314.111    1252.8887   -18566.999    102.68204    235.60438 
   25000    94.816862   -579.52528    72889.735   -17285.088    1284.2755   -18569.363    102.94468    241.50663 
   25050    93.565423   -357.83731    72902.547   -17255.702     1267.325   -18523.027    103.03001     238.3191 
   25100    92.184943    -370.3645    72957.641   -17274.924    1248.6267   -18523.551    103.63985     234.8029 
   25150    94.101847   -236.19224    73012.318   -17270.491    1274.5908   -18545.082    103.77722    239.68542 
   25200    94.470084   -172.19912    73027.924   -17201.264    1279.5785   -18480.842    103.96733    240.62335 
   25250     97.30042   -168.07013     73001.48   -17161.421    1317.9148   -18479.335    104.12526    247.83246 
   25300    94.533255   -280.95835    73015.816    -17206.91    1280.4341   -18487.344    104.20688    240.78425 
   25350    96.707526   -179.59343    73025.195   -17246.353    1309.8842   -18556.237    104.75597    246.32231 
   25400    91.298628      -314.58    73034.244   -17273.783    1236.6217   -18510.405    104.91217    232.54538 
   25450    93.756128   -381.84064    73073.997   -17266.115    1269.9081   -18536.023    104.97884    238.80485 
   25500    91.760554   -603.84411    73129.463   -17282.122    1242.8784   -18525.001     105.2685    233.72195 
   25550    92.013299   -146.68922    73090.598   -17283.361    1246.3018   -18529.663    105.68869    234.36571 
   25600    92.325292   -264.16338    73147.362   -17316.004    1250.5277   -18566.532    105.86316    235.16038 
   25650    91.944103   -409.69337      73101.6   -17322.188    1245.3646   -18567.552    105.75697    234.18946 
   25700    94.343281   -285.69636    73095.765   -17304.127     1277.861   -18581.988    105.96972    240.30038 
   25750    93.103409   -296.97042    73086.869   -17337.567    1261.0671   -18598.634    106.42068    237.14231 
   25800    90.592803   -389.88514    73092.661   -17347.336    1227.0615   -18574.398    106.48618    230.74759 
   25850    90.915185   -283.47868     73084.47   -17324.821    1231.4281   -18556.249    107.04361    231.56872 
   25900    89.834284   -541.98658    73033.024   -17350.212    1216.7875   -18566.999    107.31092    228.81557 
   25950    92.003724   -501.15121    73011.696   -17295.904    1246.1721   -18542.076    107.55373    234.34132 
   26000    92.517104   -191.24146    73028.937   -17295.099    1253.1257   -18548.225     107.7857    235.64895 
   26050    92.939159   -301.63022    73013.847   -17268.709    1258.8424   -18527.551    107.88967    236.72396 
   26100    95.196451   -261.62505     72974.74   -17220.106     1289.417   -18509.523    108.50067    242.47347 
   26150    96.157488   -585.22028    73007.022   -17178.742     1302.434   -18481.176    108.80807    244.92132 
   26200    99.193294   -550.67026    73026.151   -17180.755    1343.5534   -18524.308    108.67588    252.65377 
   26250    93.288831   -819.51365    72925.651   -17215.103    1263.5786   -18478.682    109.11706     237.6146 
   26300    95.197205    -575.4274    72859.753   -17203.971    1289.4272   -18493.398    108.98735    242.47539 
   26350    93.730081   -273.43549     72852.15   -17212.643    1269.5553   -18482.198    109.27291     238.7385 
   26400    95.137933   -406.74442    72861.755   -17215.293    1288.6244   -18503.918    109.21579    242.32442 
   26450    92.044393   -208.86484    72869.342   -17240.764     1246.723   -18487.487    109.07376    234.44491 
   26500    96.823563   -375.42328    72918.664   -17234.377    1311.4559   -18545.833    109.51088    246.61786 
   26550    94.169427   -547.01679    72907.776   -17256.386    1275.5061   -18531.892    109.88222    239.85755 
   26600    96.013675   -711.15917    72872.615   -17226.525    1300.4861   -18527.011    109.91481    244.55501 
   26650    95.363544    -497.2765      72834.8   -17229.984    1291.6802   -18521.665     109.9405    242.89907 
   26700    93.614493   -630.57196    72831.022   -17214.529    1267.9897   -18482.518     110.1268    238.44409 
   26750    95.396212   -363.02453    72827.122    -17221.96    1292.1227   -18514.083    110.25577    242.98228 
   26800    96.616985   -833.01794    72847.647   -17180.021    1308.6578   -18488.679    110.33695    246.09169 
   26850    99.635751   -364.63423    72821.468   -17132.739    1349.5464   -18482.285    110.57006    253.78075 
   26900    97.877161   -487.36457    72808.496   -17124.691    1325.7267   -18450.418    110.88769    249.30147 
   26950    99.105434   -872.18769    72805.825   -17114.744    1342.3634   -18457.108    111.56546    252.42999 
   27000    97.840625   -122.03996    72831.058   -17143.299    1325.2318    -18468.53    111.75009    249.20841 
   27050    97.607144   -457.63589    72841.418   -17133.348    1322.0693   -18455.417    112.07826    248.61371 
   27100    95.947583   -193.83898    72902.693   -17185.542    1299.5909   -18485.133    112.33108    244.38667 
   27150    92.755865   -677.25249    72909.377   -17169.268    1256.3597   -18425.628    112.65947    236.25709 
   27200    93.758539    -168.0089    72878.001   -17160.488    1269.9407   -18430.429    112.96469    238.81099 
   27250    95.773343   -314.33416     72899.26   -17217.087    1297.2309   -18514.317    113.27545    243.94286 
   27300    97.470543   -512.60792    72859.644   -17221.004    1320.2191   -18541.223    113.41518    248.26578 
   27350    92.356022   -477.29816     72823.61   -17231.161    1250.9439   -18482.105    113.29808    235.23866 
   27400    95.174156   -744.15915    72805.213   -17249.504     1289.115   -18538.619    113.20748    242.41668 
   27450    96.025284   -560.24691    72777.056   -17224.329    1300.6434   -18524.973    112.98464    244.58458 
   27500    93.944163   -555.79833    72774.637   -17249.666     1272.455   -18522.121    112.81727    239.28379 
   27550    94.485145   -452.57537    72716.192   -17216.667    1279.7825    -18496.45    113.36988    240.66172 
   27600    93.762232   -423.55667     72719.63   -17222.894    1269.9908   -18492.885    114.07144    238.82039 
   27650    96.479623   -568.63671    72691.614   -17239.153    1306.7973    -18545.95    114.47674    245.74182 
   27700    93.653075   -450.97709    72643.997   -17256.589    1268.5123   -18525.102    114.32261    238.54236 
   27750    94.236219   -670.16155     72595.03   -17254.062    1276.4108   -18530.473    114.40451    240.02768 
   27800     93.80636   -414.86977    72505.614   -17276.306    1270.5885   -18546.894    114.24249    238.93279 
   27850    90.569334    -240.7197    72529.011   -17249.683    1226.7436   -18476.427    114.77449    230.68781 
   27900    97.007837   -276.49753    72567.609   -17226.566    1313.9518   -18540.518    115.45272    247.08723 
   27950    93.670523   -319.62101    72663.366    -17252.45    1268.7486   -18521.199    115.75164     238.5868 
   28000    94.717943   -355.62493     72727.96   -17305.719    1282.9357   -18588.655    115.63345    241.25467 
   28050    93.876203   -209.97907    72763.456   -17287.699    1271.5345   -18559.234    115.81092    239.11069 
   28100    94.470991   -255.68982     72812.78   -17290.058    1279.5908   -18569.649    116.11187    240.62566 
   28150    97.798285   -323.93634    72789.225   -17231.834    1324.6583   -18556.492    116.33803    249.10056 
   28200    98.181967   -375.12425    72818.539    -17230.45    1329.8552   -18560.305     116.2881    250.07784 
   28250      97.0959   -286.38071    72855.371   -17244.917    1315.1446   -18560.062    116.56011    247.31153 
   28300     96.23529   -698.32609    72890.176   -17244.927    1303.4878   -18548.415    116.53133    245.11948 
   28350    93.100866   -432.40902    72830.739   -17260.485    1261.0327   -18521.518     117.0512    237.13584 
   28400    95.393808   -722.57804    72793.827   -17246.577    1292.0901   -18538.667    117.42748    242.97616 
   28450    94.219902   -758.57429    72783.338   -17256.613    1276.1898   -18532.803    117.85751    239.98612 
   28500    95.764247    -644.2369    72826.485   -17285.698    1297.1077   -18582.806    117.72345     243.9197 
   28550    96.453758   -390.15233      72826.7   -17237.287    1306.4469   -18543.734    117.68405    245.67594 
   28600    98.749813   -507.50049    72826.853   -17275.219    1337.5465   -18612.765    117.96325    251.52419 
   28650    92.180371   -288.47288    72823.478   -17323.788    1248.5648   -18572.353    118.50617    234.79126 
   28700    93.784451   -374.55957    72837.434   -17309.987    1270.2917   -18580.279     118.5348    238.87699 
   28750    92.504656    -402.2911      72879.1    -17315.64    1252.9572   -18568.597    118.79781    235.61724 
   28800    94.358303   -408.63982    72891.241   -17305.218    1278.0644   -18583.283    118.68339    240.33864 
   28850    92.117232   -701.18866    72865.229    -17310.36    1247.7096    -18558.07    118.68746    234.63044 
   28900    89.611633   -217.40024    72847.243   -17314.867    1213.7717   -18528.639    119.29494    228.24846 
   28950    94.683861    -480.3767    72818.866   -17315.649     1282.474   -18598.123    119.41827    241.16786 
   29000    94.030939   -514.74905     72794.02   -17275.322    1273.6303   -18548.952    119.80438    239.50481 
   29050    94.730533   -360.10452    72767.779   -17255.427    1283.1062   -18538.533    119.69656    241.28674 
   29100    94.446909    -439.8976    72781.141   -17278.322    1279.2646   -18557.586    119.61236    240.56432 
   29150    93.292101   -414.63806    72739.689   -17262.977    1263.6229     -18526.6     120.0263    237.62293 
   29200    94.350154   -510.63446    72728.672   -17262.635     1277.954   -18540.589    120.33324    240.31788 
   29250    92.521399   -371.50723    72667.517   -17285.984    1253.1839   -18539.168    120.45051    235.65989 
   29300    92.263752    62.675796    72681.427   -17273.404    1249.6941   -18523.098    120.39443    235.00364 
   29350    95.724601    -476.1939     72736.57   -17237.836    1296.5707   -18534.407    120.28102    243.81871 
   29400    94.487034   -555.54858    72795.905   -17260.028    1279.8081   -18539.836    119.96494    240.66653 
   29450    97.531099   -444.11599     72846.45    -17231.92    1321.0393   -18552.959    120.17555    248.42002 
   29500    92.311761   -533.59213    72859.782   -17271.593    1250.3444   -18521.937    120.54292    235.12592 
   29550     93.64723   -195.72051    72822.909   -17305.746    1268.4331   -18574.179    120.40269    238.52747 
   29600    93.295432   -389.54685    72789.883   -17294.641     1263.668   -18558.309    120.37755    237.63141 
   29650    93.036004   -81.499269    72758.365   -17291.151    1260.1541   -18551.305    120.40894    236.97063 
   29700    91.770732    -514.4552    72743.838   -17310.702    1243.0163   -18553.718    120.70798    233.74787 
   29750    96.223223   -443.64021    72733.299   -17291.891    1303.3244   -18595.216    120.98692    245.08875 
   29800    93.772135   -265.13926    72714.658   -17307.306    1270.1249   -18577.431    121.21654    238.84562 
   29850    94.134323   -542.77109    72773.356   -17344.221    1275.0307   -18619.251    121.45987    239.76814 
   29900    92.087357   -595.08957    72826.026   -17351.634    1247.3049   -18598.939    121.60307    234.55435 
   29950     92.82094   -240.04189    72809.654   -17346.978    1257.2411   -18604.219    121.77518    236.42284 
   30000    92.454015   -531.70432     72779.28   -17352.175    1252.2712   -18604.447    121.54767    235.48825 
   30050    89.838596   -688.47041    72811.406   -17343.654    1216.8459     -18560.5    121.95065    228.82656 
   30100    90.863283   -452.30278    72775.032   -17346.989    1230.7251   -18577.714    122.19312    231.43652 
   30150    92.847266   -710.19103    72751.955   -17340.614    1257.5977   -18598.212    122.34074     236.4899 
   30200    93.491927   -670.20403    72779.891   -17311.081    1266.3295   -18577.411    122.55906     238.1319 
   30250    94.020562   -565.91862    72795.244   -17308.331    1273.4898   -18581.821    123.06209    239.47838 
   30300    91.684468   -805.35426     72838.16   -17317.033    1241.8479   -18558.881    123.07143    233.52815 
   30350    91.789736   -571.66357    72826.333   -17287.581    1243.2737   -18530.854    123.48453    233.79628 
   30400     93.94694   -522.34648    72837.341   -17243.299    1272.4926   -18515.792    124.11846    239.29086 
   30450    92.706408   -450.43648    72791.502    -17240.51    1255.6898     -18496.2    124.03668    236.13112 
   30500    94.114233   -686.60501     72724.32   -17239.894    1274.7585   -18514.653    123.95286    239.71697 
   30550    89.598002   -467.78778     72684.57   -17255.228    1213.5871   -18468.815    124.15022    228.21374 
   30600    94.523116   -298.61944    72687.943   -17266.354    1280.2968   -18546.651    124.14666    240.75843 
   30650    94.080456    -524.1305    72713.852   -17261.929     1274.301    -18536.23    124.38833    239.63094 
   30700    91.665375   -508.33981     72706.55   -17267.321    1241.5893    -18508.91    124.18046    233.47952 
   30750    94.189455   -538.04094    72661.362   -17306.047    1275.7774   -18581.824    124.29837    239.90857 
   30800    91.224512   -248.70029    72728.808   -17290.499    1235.6178   -18526.117    124.24132     232.3566 
   30850    93.218551   -532.41904    72837.682   -17278.573    1262.6267   -18541.199    124.09725    237.43559 
   30900    90.681407   -806.84756    72884.116   -17291.243    1228.2616   -18519.504    123.99235    230.97327 
   30950    93.411839    -334.6712    72879.164   -17266.164    1265.2448   -18531.409    123.81699    237.92791 
   31000    92.897771   -310.08344    72889.124   -17254.815    1258.2818   -18513.097    123.76387    236.61854 
   31050    94.579266   -307.07898    72917.314   -17226.845    1281.0573   -18507.903    123.53119    240.90145 
   31100    94.868633   -805.29756    72960.623   -17238.248    1284.9767   -18523.225    123.86462    241.63849 
   31150    95.853591   -407.56532    72974.338   -17210.159    1298.3178   -18508.477    124.33519    244.14726 
   31200    93.731897   -501.29639     73081.53   -17247.628    1269.5799   -18517.208      124.554    238.74313 
   31250    93.031061   -614.84356    73071.585   -17265.947    1260.0872   -18526.035    125.31544    236.95804 
   31300    91.281377    -243.5706    72993.099   -17222.765    1236.3881   -18459.154    125.32097    232.50144 
   31350    93.690102   -294.95404    73024.249   -17169.025    1269.0138   -18438.039    126.05359    238.63667 
   31400    95.405152   -609.41987    73043.395   -17218.417    1292.2438   -18510.661    125.74457    243.00505 
   31450    94.021862   -644.27807     72999.52   -17241.238    1273.5074   -18514.746    125.76188    239.48169 
   31500    94.610186    -628.5311    72959.613   -17246.968    1281.4761   -18528.444    125.99936    240.98021 
   31550    95.714583   -782.88696    72911.422   -17277.296     1296.435   -18573.731    126.27307     243.7932 
   31600    94.223634   -482.51059    72904.533   -17262.877    1276.2404   -18539.117    126.46341    239.99562 
   31650    94.826199    -101.0152    72942.346   -17228.377     1284.402   -18512.778    126.28726    241.53041 
   31700     95.74885   -165.97648    73031.828   -17214.492    1296.8991   -18511.391    126.11299    243.88048 
   31750    94.315218   -572.95168    73002.596   -17230.613    1277.4808   -18508.094    126.13635     240.2289 
   31800    94.820952   -311.18038    72998.911   -17240.896    1284.3309   -18525.227    126.23642    241.51704 
   31850    97.093422    -364.1418     72985.75   -17230.016    1315.1111   -18545.127    126.66124    247.30522 
   31900    97.216589   -172.50234    73014.732   -17247.517    1316.7793   -18564.296    126.89206    247.61894 
   31950     94.24646    -29.34366    73066.597   -17254.199    1276.5495   -18530.749    127.02503    240.05376 
   32000    92.375843   -242.49576    73096.006   -17275.726    1251.2124   -18526.939    127.30364    235.28914 
   32050    92.795227   -560.54464    73102.161   -17275.484    1256.8929   -18532.377    127.77469    236.35735 
   32100    92.887266   -778.73402    73061.206   -17296.171    1258.1395   -18554.311    127.85228    236.59178 
   32150    91.925708   -296.28401    73032.604   -17282.334    1245.1154    -18527.45     128.0746    234.14261 
   32200    97.201237    -645.9211    73014.765   -17293.396    1316.5714   -18609.967    128.56528    247.57983 
   32250    93.982968    -702.0203    73001.094   -17309.061    1272.9806   -18582.041    128.79358    239.38263 
   32300      94.4878   -479.04331    73009.398   -17282.893    1279.8184   -18562.711    129.02521    240.66848 
   32350    94.844511   -923.56627    72935.938   -17291.393      1284.65   -18576.043     129.5249    241.57705 
   32400    95.118294   -606.54841    72872.457   -17298.683    1288.3584   -18587.041    129.59447     242.2744 
   32450    92.093945   -638.79435    72891.297   -17331.835    1247.3941   -18579.229    130.24143    234.57112 
   32500    92.255123   -540.16582    72910.075   -17317.932    1249.5773   -18567.509    130.89518    234.98166 
   32550    97.191629   -283.17632    72924.923   -17255.503    1316.4413   -18571.945    130.81882    247.55536 
   32600    97.298396   -600.87328    72906.236   -17225.972    1317.8874    -18543.86     130.6291    247.82731 
   32650    98.854102   -384.36938    72948.364   -17240.017    1338.9591   -18578.976    130.79495    251.78982 
   32700    90.301279   -270.28805    72976.718   -17275.802    1223.1128   -18498.915    130.80716    230.00505 
   32750    92.046507    -311.6723    72995.348   -17264.842    1246.7516   -18511.593    130.86106     234.4503 
   32800    93.002635   -473.80413    73001.344   -17263.789    1259.7022   -18523.491    130.94391    236.88563 
   32850    94.083527   -418.74515    72959.486   -17261.477    1274.3426   -18535.819    131.17932    239.63876 
   32900    94.916331   -829.96562    72866.591   -17254.482    1285.6228   -18540.105    131.35165    241.75998 
   32950    95.567765   -575.50014    72850.828   -17275.991    1294.4463   -18570.437    131.50241    243.41924 
   33000    92.402083   -198.59593    72842.428   -17280.611    1251.5678   -18532.179    132.25931    235.35598 
   33050    94.599771   -53.636563    72885.143   -17253.785    1281.3351    -18535.12    132.66555    240.95368 
   33100    92.776834   -766.35404    72895.094    -17282.82    1256.6437   -18539.463    132.74641     236.3105 
   33150    95.059174    -730.4861    72856.875   -17268.991    1287.5576   -18556.549    132.94389    242.12382 
   33200    95.530052   -397.10571    72851.804   -17251.452    1293.9355   -18545.387    133.08445    243.32318 
   33250    95.156129    -633.8895    72853.583   -17249.437    1288.8708   -18538.308    133.28845    242.37077 
   33300    95.864349   -626.70233    72817.202   -17248.343    1298.4635   -18546.806      133.503    244.17466 
   33350    91.398213   -640.93756    72729.079   -17277.586    1237.9706   -18515.556    133.90821    232.79903 
   33400    92.697877   -402.06781    72747.017   -17306.443    1255.5743   -18562.017    134.19569    236.10939 
   33450    94.045567   -497.58212    72766.961   -17244.399    1273.8285   -18518.227    134.56829    239.54207 
   33500    94.750054   -869.26921    72793.398   -17281.517    1283.3706   -18564.887    135.05683    241.33646 
   33550    96.136434   -321.14917    72832.352   -17271.348    1302.1489   -18573.497    135.24606    244.86769 
   33600    90.717541   -397.12916    72833.955   -17294.452     1228.751   -18523.203    135.35352    231.06531 
   33650    95.572148    -266.1162     72876.36   -17315.429    1294.5057   -18609.935    135.51642     243.4304 
   33700     94.44267    -482.6348    72961.404   -17306.974    1279.2072   -18586.181    135.77533    240.55353 
   33750    95.042306   -394.50051     72957.38   -17298.082    1287.3291   -18585.411    135.65345    242.08085 
   33800    94.168015   -415.62109    73026.358   -17308.675     1275.487   -18584.162    135.74828    239.85396 
   33850    93.063792     130.4008    72988.943   -17310.717    1260.5305   -18571.248    136.04373    237.04141 
   33900    92.052107   -402.40504    72981.134   -17338.867    1246.8275   -18585.694    136.30357    234.46456 
   33950    91.055809   -438.35986     72999.05   -17362.631    1233.3328   -18595.964    136.70847     231.9269 
[...]
   92000    95.079823   -378.81744    73184.032   -17182.192    1287.8373   -18470.029    362.85078    242.17641 
   92050    94.349447   -656.50582    73153.179   -17204.126    1277.9445    -18482.07    362.54629    240.31608 
   92100    92.572492   -480.80281    73129.232   -17236.583     1253.876   -18490.459    363.58667    235.79002 
   92150    93.953426   -318.10584    73132.017    -17243.28    1272.5804   -18515.861    363.74891    239.30738 
   92200    96.502329   -454.33386    73125.201   -17243.706    1307.1048   -18550.811    364.53906    245.79965 
   92250    94.532693   -305.88281    73077.862    -17227.23    1280.4265   -18507.656    364.65929    240.78282 
   92300    94.781811    -693.5669    73028.986   -17215.372    1283.8008   -18499.173    364.23729    241.41735 
   92350    95.253503   -654.56664    72980.718   -17241.787    1290.1897   -18531.977    363.91076    242.61879 
   92400    91.400809   -833.91943    72902.637   -17254.243    1238.0058   -18492.249    363.39823    232.80565 
   92450    94.888369    -505.8185     72915.52   -17259.614    1285.2441   -18544.858    363.73191    241.68876 
   92500    93.938771   -534.72508    72898.002   -17218.889     1272.382   -18491.271    364.32096    239.27005 
   92550     91.23171   -689.01977    72904.243    -17245.95    1235.7153   -18481.665     364.4454    232.37494 
   92600    93.180017   -540.38246    72955.048   -17232.466    1262.1048   -18494.571    364.66518    237.33744 
   92650    95.086356   -640.74296    72905.068   -17234.909    1287.9258   -18522.835    365.12054    242.19305 
   92700    94.647988   -493.40454    72934.086   -17226.699    1281.9881   -18508.687    364.94888    241.07649 
   92750    93.959034     -525.917     72914.17    -17225.87    1272.6564   -18498.527    364.34521    239.32167 
   92800    95.879279   -356.93497    72970.532   -17236.744    1298.6657   -18535.409    363.98133    244.21269 
   92850     92.68963   -574.34234    73059.706   -17217.453    1255.4626   -18472.916     363.7112    236.08839 
   92900    94.477928   -329.16099    73078.448   -17247.808    1279.6847   -18527.493    363.81101    240.64333 
   92950    93.833094   -684.34089    73046.082   -17233.699    1270.9506    -18504.65    364.29737    239.00088 
   93000    92.967353   -153.47326    73078.115   -17217.239    1259.2243   -18476.463    364.09371    236.79577 
   93050    96.667685   -413.34993     73092.67   -17209.056    1309.3445   -18518.401    363.90829    246.22083 
   93100    94.441912    -293.3194    72995.184   -17238.941    1279.1969   -18518.137     364.4807     240.5516 
   93150    97.156301    -167.5464    72942.948   -17236.171    1315.9627   -18552.134    363.69022    247.46538 
   93200    93.625485   -246.15477    72970.677   -17282.768    1268.1385   -18550.906    364.27974    238.47209 
   93250    96.018589   -461.20697    73033.317   -17238.305    1300.5527   -18538.858    364.27936    244.56753 
   93300    95.163908   -248.98528    73059.132    -17277.37    1288.9762   -18566.346    364.36107    242.39058 
   93350      91.9055   -616.18253    73048.129   -17305.292    1244.8417   -18550.134    364.79217    234.09114 
   93400    91.420215   -434.56309    73059.938    -17324.98    1238.2686   -18563.249    364.33328    232.85508 
   93450    90.523203   -570.67329    73141.879   -17287.603    1226.1188   -18513.722    363.89554    230.57031 
   93500     92.64984    -471.3098    73158.856   -17283.996    1254.9236   -18538.919     364.1991    235.98704 
   93550    93.352551   -378.36846    73121.335   -17305.933    1264.4417   -18570.375    364.67921     237.7769 
   93600    94.584838   -711.65454    73088.533   -17261.609    1281.1328   -18542.742    365.05657    240.91564 
   93650    93.041483   -428.51715     73078.38   -17245.494    1260.2284   -18505.722    364.47197    236.98458 
   93700    92.468708   -422.06018     73051.15   -17241.648    1252.4702   -18494.118    364.71091    235.52568 
   93750    95.774125   -698.15702    73048.301   -17229.266    1297.2415   -18526.507    364.79664    243.94486 
   93800    95.113429     -569.407    73073.778   -17218.012    1288.2925   -18506.305     365.7695    242.26201 
   93850    97.071387   -280.79121    73087.767   -17209.661    1314.8126   -18524.474    365.99094    247.24909 
   93900    93.765532   -564.49485    73094.882   -17215.467    1270.0355   -18485.503    366.01058     238.8288 
   93950    92.504379   -545.77989    73093.124   -17254.662    1252.9534   -18507.615    366.40635    235.61653 
   94000    94.638878   -802.03718    73073.694   -17273.542    1281.8648   -18555.407    366.49766    241.05329 
   94050    91.830925   -546.64885    73047.826   -17288.933    1243.8316   -18532.765    366.65495    233.90119 
   94100    92.088475   -388.13482    73074.694   -17306.052    1247.3201   -18553.372    366.65652    234.55719 
   94150    97.069227   -694.28524    72988.735   -17287.896    1314.7833   -18602.679    366.59384    247.24359 
   94200    92.202162   -481.13224    72974.894   -17302.875    1248.8599   -18551.735    366.38239    234.84676 
   94250    90.594288   -201.60299    72949.333   -17321.776    1227.0816   -18548.858    367.06665    230.75137 
   94300    92.225622     -424.409    72996.021   -17299.977    1249.1777   -18549.155     367.3151    234.90652 
   94350    96.315897   -429.69761    73096.506   -17261.827    1304.5796   -18566.406    368.03775    245.32479 
   94400    96.067371   -37.323671     73195.06   -17231.774    1301.2134   -18532.988    368.30081    244.69178 
   94450     96.44586   -258.01152    73223.657   -17214.754      1306.34   -18521.094    368.34405    245.65582 
   94500    95.221112   -658.79059    73169.114   -17230.507     1289.751   -18520.258    368.43851    242.53629 
   94550     98.40892   -603.36017    73137.141   -17214.986    1332.9292   -18547.915    368.66315     250.6559 
   94600    93.994389   -326.39368    73158.804   -17208.634    1273.1353   -18481.769    368.93476    239.41172 
   94650    97.157117   -757.08932    73192.663   -17225.035    1315.9738   -18541.009    368.82487    247.46746 
   94700    93.566997   -377.10223    73189.052   -17224.184    1267.3463    -18491.53    368.76423    238.32311 
   94750    96.335844   -659.60077    73198.305   -17239.489    1304.8498   -18544.339    368.81745     245.3756 
   94800    94.445473   -639.60807    73188.401   -17251.596    1279.2451   -18530.841    368.33278    240.56067 
   94850    95.590772   -390.77998    73226.611   -17236.693     1294.758   -18531.451    368.05591    243.47784 
   94900    98.450454   -545.94325    73234.468   -17244.346    1333.4918   -18577.837    368.77181    250.76169 
   94950    98.024496   -514.24163    73245.691   -17202.619    1327.7223   -18530.341    368.36624    249.67674 
   95000    97.726303    -675.5231     73230.93   -17197.445    1323.6833   -18521.128    368.29754    248.91722 
   95050     95.34149   -576.22589    73179.431   -17213.806    1291.3815   -18505.187    368.22133     242.8429 
   95100    96.071602   -384.83515    73187.863    -17210.87    1301.2707   -18512.141    367.99176    244.70256 
   95150    97.059892   -312.69136     73136.63   -17224.802    1314.6569   -18539.459    368.36674    247.21981 
   95200    94.197106   -503.93089    73106.644    -17260.87     1275.881   -18536.751    368.63604    239.92805 
   95250    95.093729   -465.76905    73027.446   -17267.782    1288.0256   -18555.808    368.93562    242.21183 
   95300    91.165603   -339.55092    73023.966   -17269.692    1234.8199   -18504.512    369.31481    232.20656 
   95350    95.268437   -334.53599    72982.359   -17264.268     1290.392    -18554.66      369.484    242.65683 
   95400    94.454136    -245.2007     72956.48   -17270.696    1279.3625   -18550.058    369.73498    240.58273 
   95450    92.472447   -403.49293    73032.129   -17283.518    1252.5209   -18536.039    370.04113     235.5352 
   95500     93.84622   -355.23696    73022.888    -17334.21    1271.1284   -18605.338    370.67709    239.03432 
   95550    93.537262   -484.54195    73021.342   -17326.117    1266.9436   -18593.061    371.17371    238.24738 
   95600    89.815569    -383.1757    73052.294   -17303.236     1216.534    -18519.77    371.14684    228.76791 
   95650    94.054879   -509.97528    73042.016   -17338.806    1273.9546    -18612.76    371.30074    239.56579 
   95700    92.761685   -116.85037    73060.035   -17331.575    1256.4386   -18588.013    371.31193    236.27192 
   95750    91.465733   -430.66058    73091.809   -17354.176    1238.8851   -18593.061    371.94616    232.97102 
   95800    93.379101   -58.135469    73101.004   -17367.802    1264.8013   -18632.604    371.38802    237.84453 
   95850    91.759648   -720.03676    73125.496   -17363.865    1242.8662   -18606.731    371.50891    233.71964 
   95900    91.939443   -61.673512    73133.466   -17322.519    1245.3014   -18567.821    372.37366    234.17759 
   95950    90.869672   -459.38561     73167.16   -17287.701    1230.8116   -18518.513    373.07538     231.4528 
   96000     92.72662   -442.59135    73191.289   -17245.254    1255.9636   -18501.218    373.22741     236.1826 
   96050    95.173185   -503.75842    73191.188   -17252.631    1289.1018   -18541.733    374.03963    242.41421 
   96100    94.947339   -197.52383    73154.729   -17204.076    1286.0428   -18490.118    373.77837    241.83896 
   96150    97.413718   -148.57537    73238.784   -17200.435    1319.4494   -18519.884    374.06668    248.12104 
   96200    98.781544   -74.705565    73271.371   -17186.065    1337.9763   -18524.042    374.13037    251.60501 
   96250    95.418179    -452.0921    73300.229   -17215.073    1292.4202   -18507.493    374.15673    243.03823 
   96300    96.198115   -529.66076    73306.786   -17211.019    1302.9843   -18514.003    375.04006     245.0248 
   96350    96.237598   -597.23629    73277.843   -17212.911    1303.5191    -18516.43    374.97467    245.12536 
   96400    95.929801   -522.87852    73271.704   -17248.519      1299.35   -18547.869    375.12575    244.34138 
   96450    94.742998   -323.33573    73270.486   -17259.651     1283.275   -18542.926    375.55823    241.31849 
   96500    95.050855   -615.83902    73263.225    -17301.01    1287.4449   -18588.455    375.71094    242.10263 
   96550    95.032497   -193.98739    73230.056   -17305.318    1287.1963   -18592.514      375.314    242.05587 
   96600    95.496027   -429.11743    73200.026   -17289.811    1293.4747   -18583.286    375.57076    243.23652 
   96650    94.072844    -522.3372     73154.13   -17309.368    1274.1979   -18583.566    375.81746    239.61155 
   96700    91.111317   -381.82341    73190.132   -17322.141    1234.0846   -18556.226    375.83174    232.06829 
   96750     94.35056   -258.23716    73294.166   -17302.672    1277.9595   -18580.631    376.23628    240.31892 
   96800    94.570382   -461.69012    73307.813   -17295.599     1280.937   -18576.536    376.50723    240.87882 
   96850    90.714291   -334.58246    73283.381   -17308.302     1228.707   -18537.009    376.75178    231.05703 
   96900     93.94521   -260.67911    73242.351   -17262.371    1272.4692    -18534.84    377.05687    239.28646 
   96950    93.734042   -413.70407    73243.306   -17298.857    1269.6089   -18568.466    377.55056    238.74859 
   97000    94.353612   -385.73014    73273.915   -17302.587    1278.0009   -18580.588    377.37889    240.32669 
   97050    91.005162   -475.39377    73256.451   -17320.629    1232.6468   -18553.276    377.65852     231.7979 
   97100    90.538886   -294.50698    73269.449   -17336.366    1226.3312   -18562.698    377.34089    230.61026 
   97150    92.336076   -342.63955    73298.772   -17345.701    1250.6738   -18596.374       377.37    235.18785 
   97200    90.316782    -80.20734    73323.443   -17354.464    1223.3228   -18577.787    376.85522    230.04454 
   97250    92.721586   -690.20377    73369.882   -17323.674    1255.8954   -18579.569    377.30132    236.16978 
   97300    94.687636   -547.22687    73313.683   -17315.575    1282.5252     -18598.1     377.3272    241.17748 
   97350     93.46486   -312.11242    73325.851   -17331.078    1265.9629   -18597.041    377.66426    238.06296 
   97400    92.494163    -377.8945    73300.161   -17319.902     1252.815   -18572.717    377.99318    235.59051 
   97450    93.759937   -125.43863     73307.24   -17326.821    1269.9597   -18596.781    378.20977    238.81455 
   97500    94.470883   -380.47735    73348.484   -17295.689    1279.5893   -18575.279    378.20652    240.62539 
   97550    93.690969   -278.88027    73385.027    -17310.71    1269.0255   -18579.736      377.884    238.63888 
   97600    92.678648   -513.49896    73394.391    -17332.67    1255.3138   -18587.984    377.49007    236.06041 
   97650    95.124652   -220.21089      73402.3   -17334.603    1288.4445   -18623.047    377.77487    242.29059 
   97700    93.752357   -456.60071      73433.2   -17326.978     1269.857   -18596.835    377.94761    238.79524 
   97750    92.264853   -301.60298    73440.822   -17322.526    1249.7091   -18572.235     377.7699    235.00644 
   97800    93.826541   -521.46855     73434.56   -17314.963    1270.8618   -18585.825    377.84472     238.9842 
   97850    96.565986   -320.68458    73497.924   -17315.333    1307.9671     -18623.3    378.10459    245.96179 
   97900    94.184141   -612.01523    73543.752   -17295.867    1275.7054   -18571.572     378.5121    239.89503 
   97950    94.575113   -432.69337     73549.56   -17283.207    1281.0011   -18564.208    378.12562    240.89087 
   98000    92.061828   -529.76161    73567.015   -17285.584    1246.9591   -18532.543    379.02025    234.48932 
   98050    94.044095    -679.0227    73506.236   -17288.717    1273.8085   -18562.526     378.9335    239.53832 
   98100     91.57949   -542.63227    73523.741   -17291.926    1240.4259   -18532.352    379.19139    233.26076 
   98150    93.366799   -886.96446     73492.55    -17320.18    1264.6347   -18584.815    378.52276    237.81319 
   98200    89.716239   -465.78368    73399.521   -17344.335    1215.1886   -18559.524    379.02208     228.5149 
   98250    91.694363   -659.95258    73354.772   -17315.467    1241.9819   -18557.449    378.93238    233.55336 
   98300    94.366219   -593.71137        73301   -17317.297    1278.1716   -18595.469    378.33168     240.3588 
   98350    93.005052   -549.60816    73250.268   -17313.477    1259.7349   -18573.211    378.41558    236.89179 
   98400    93.240816    -860.1382    73181.486   -17327.543    1262.9283   -18590.471    378.71053     237.4923 
   98450    96.308407   -759.76154     73112.07   -17309.719    1304.4782   -18614.197     378.8414    245.30572 
   98500    94.346835   -850.90025    73063.457   -17328.242    1277.9091   -18606.151    379.07741    240.30943 
   98550    92.075445   -122.76351    73034.716   -17317.407    1247.1436    -18564.55     378.2756      234.524 
   98600      93.6608   -252.50183    73029.314   -17304.308    1268.6169   -18572.925    379.04075    238.56204 
   98650     93.15966   -186.58972    73086.981   -17306.133     1261.829   -18567.962    378.51205    237.28559 
   98700    94.659664   -574.48978    73167.575   -17321.692    1282.1463   -18603.838    378.88667    241.10623 
   98750    93.995359   -567.48793    73176.345   -17298.505    1273.1484   -18571.653    378.94819    239.41419 
   98800    95.700906    -250.4372    73241.474   -17315.895    1296.2497   -18612.144    379.10626    243.75836 
   98850    93.505115   -589.43385    73204.717    -17293.53    1266.5082   -18560.038     379.6496     238.1655 
   98900    98.572389   -398.66945    73197.084    -17270.51    1335.1434   -18605.654    379.72253    251.07227 
   98950    93.633947   -409.80548    73203.456   -17315.751    1268.2532   -18584.004    380.05902    238.49364 
   99000    92.666117   -461.80402    73265.845   -17338.715    1255.1441   -18593.859    379.74014     236.0285 
   99050    92.685359   -501.08385    73266.621   -17340.133    1255.4047   -18595.538    379.91149    236.07751 
   99100    94.386474   -726.54588    73275.681   -17328.944     1278.446    -18607.39    380.24189    240.41039 
   99150    94.877285   -567.99414    73254.838   -17346.889    1285.0939   -18631.983     380.7142    241.66053 
   99200    90.972761   -473.48223    73298.715   -17336.501    1232.2079   -18568.709    380.68756    231.71537 
   99250    96.038411    28.826604    73377.382   -17278.977    1300.8212   -18579.798    380.48226    244.61802 
   99300    93.949482   -927.87241     73411.02   -17288.508     1272.527   -18561.035    381.14881    239.29734 
   99350    93.181003   -685.47324    73365.625   -17286.696    1262.1181   -18548.814    381.78103    237.33995 
   99400    93.423705   -548.95189    73405.903   -17329.604    1265.4055    -18595.01    382.33682    237.95814 
   99450    92.120892   -620.61969    73432.331    -17290.12    1247.7591   -18537.879    382.52983    234.63976 
   99500    94.751698   -213.93715     73443.35   -17317.657    1283.3929    -18601.05    381.76794    241.34065 
   99550    94.498191   -415.71484    73487.919   -17325.873    1279.9592   -18605.832    382.15243    240.69494 
   99600    94.279701   -262.66877    73475.638   -17309.071    1276.9998   -18586.071     382.0799    240.13843 
   99650    93.874125   -652.59605    73493.516   -17347.153    1271.5063   -18618.659     382.0231    239.10539 
   99700    96.936927   -752.71058    73535.551   -17318.344    1312.9914   -18631.336    382.28532    246.90661 
   99750    91.298632   -490.04924    73493.477   -17341.499    1236.6218    -18578.12    381.75594    232.54539 
   99800    95.180659   -834.87404    73468.609   -17308.827    1289.2031    -18598.03    382.06791    242.43325 
   99850    92.241638   -773.95762    73334.367   -17315.379    1249.3946   -18564.773    381.87657    234.94731 
   99900    94.412957   -384.07126    73354.838   -17318.137    1278.8047   -18596.942    382.18999    240.47784 
   99950     93.23211     -781.726    73317.618   -17282.523    1262.8104   -18545.333    381.86945    237.47013 
  100000    91.896317   -703.61079    73329.862   -17259.302    1244.7173    -18504.02     381.6753    234.06775 
Loop time of 85.4493 on 128 procs for 100000 steps with 4545 atoms

Performance: 505.563 ns/day, 0.047 hours/ns, 1170.285 timesteps/s
99.3% CPU use with 128 MPI tasks x no OpenMP threads

MPI task timing breakdown:
Section |  min time  |  avg time  |  max time  |%varavg| %total
---------------------------------------------------------------
Pair    | 12.413     | 36.204     | 57.787     | 314.6 | 42.37
Neigh   | 0.26174    | 0.71639    | 2.0466     |  78.1 |  0.84
Comm    | 17.042     | 38.58      | 64.15      | 323.5 | 45.15
Output  | 0.14583    | 0.15007    | 0.28479    |   3.1 |  0.18
Modify  | 6.3292     | 8.86       | 11.932     |  59.5 | 10.37
Other   |            | 0.9381     |            |       |  1.10

Nlocal:    35.5078 ave 95 max 13 min
Histogram: 85 11 0 0 0 0 0 2 14 16
Nghost:    606.969 ave 786 max 329 min
Histogram: 32 0 0 0 0 2 30 4 28 32
Neighs:    0 ave 0 max 0 min
Histogram: 128 0 0 0 0 0 0 0 0 0
FullNghs:  3597.03 ave 12438 max 591 min
Histogram: 96 0 0 0 0 0 0 2 12 18

Total # of neighbors = 460420
Ave neighs/atom = 101.303
Neighbor list builds = 5662
Dangerous builds = 0

write_data		${DIR}/data.eq-${NAME}-${TEMP}
write_data		run_18/data.eq-${NAME}-${TEMP}
write_data		run_18/data.eq-het_freeze_18-${TEMP}
write_data		run_18/data.eq-het_freeze_18-240
undump          1

reset_timestep  0

unfix           2
unfix           3
unfix           4


################################################
#######         Run Simulation         #########
################################################

log				${DIR}/log.run_${NAME}
log				run_18/log.run_${NAME}
log				run_18/log.run_het_freeze_18
