LAMMPS data file via write_data, version 29 Oct 2020, timestep = 100000

6750 atoms
2 atom types

0.3042972171724543 48.91570278282867 xlo xhi
0.30305848842830585 48.71657744198145 ylo yhi
-0.14048822921020587 60.202488229211255 zlo zhi

Masses

1 18.015
2 12.01

Atoms # atomic

159 1 1.1661264794565664 1.4186804888199307 4.285532129423167 1 -1 0
2049 1 1.1942144632908964 4.053766688887416 4.497557264519117 1 1 0
5244 1 24.60751064119325 8.107818843442324 15.846016540910194 0 -1 0
4701 1 18.841106354660162 24.168188763628226 5.727853753920896 1 -1 1
4995 1 6.052774217299903 3.5304885779840296 1.7724846811907524 1 0 0
5106 1 6.568159665704723 1.6414491683337507 3.3360326903308395 -1 1 0
3783 1 8.387913540851246 4.167584350216206 1.0884007218715313 -1 0 0
3474 1 11.982122144908944 2.041585275667011 4.686950356710708 1 0 0
3122 1 0.7278690068261002 3.7804660408034345 8.605449268240273 1 1 1
3437 1 23.264384771725183 8.33682044752913 18.53100502941976 -1 0 1
4729 1 15.838175926055998 13.216037045744965 0.6337426904330491 1 0 1
4994 1 23.633016494470866 2.7318302396662877 2.6974247736725827 -1 1 0
2032 1 11.216478923463475 1.099826904272477 17.724043049960144 1 1 0
3277 1 24.071902248412382 13.646572744210594 8.847164418274938 -1 1 1
110 1 4.046946421679159 7.559161976652009 1.6059525271501522 0 1 0
3882 1 15.790071532175224 16.009832561723393 -0.02754509283078367 1 0 1
3327 1 5.551972009077457 5.609832363489637 3.3862444800831843 1 1 0
391 1 7.3377585557479685 7.77903656519849 3.08728604873161 1 1 0
5371 1 8.893031564415939 6.71626060748218 0.942761060514997 1 1 0
3568 1 11.343335159931579 7.622634742010425 2.6563631580843063 0 0 0
5421 1 24.220478696551872 23.722508705824133 17.520592280046703 1 -1 0
3802 1 10.546852840408835 3.7722143566272943 2.7073610388447564 1 1 1
3918 1 16.014627164018933 7.49167549244617 1.6114866074452125 1 0 0
227 1 14.884553141311235 5.1757630410144415 2.187756954821391 1 0 0
1491 1 21.459300301562934 1.3997015162555289 10.778566152248926 0 0 1
1616 1 19.713502377738177 8.754484588339782 0.6668443940670092 -1 0 0
3923 1 24.450858468803816 21.009438000804252 14.519966662014989 0 -1 0
4865 1 22.253412352235507 9.360847243170255 1.2840030890895375 0 0 1
3027 1 5.5556377323022375 23.005945997147414 14.9157004074049 1 0 1
2118 1 1.3947192985811663 18.403638806348564 0.30405657746226483 0 0 0
3637 1 6.532759532830203 9.803879164691603 1.0412786883535523 2 1 1
47 1 0.34487820278940406 13.519379698322563 0.8800538330384744 1 0 0
6525 1 9.195499168619824 1.885956992959518 9.881156130107787 0 0 0
2316 1 9.843672862817833 12.472858952594263 1.7558019108700775 0 0 0
5219 1 14.115151370094123 8.566432047149448 3.0547564288616758 0 2 0
3602 1 14.766704563848611 0.5132505633096355 14.022607661217789 0 1 1
1984 1 18.725703673486056 12.375261248299392 1.5807748563809982 -1 1 1
1395 1 20.884603842067047 16.881447529735844 1.0227213358631302 0 0 1
1945 1 14.364502713550657 0.3559517787399926 0.4423006761470444 0 1 0
142 1 4.122212402306086 15.473610594775494 1.8799912042139337 -1 0 0
1781 1 4.379456464491778 12.48228079884672 2.8554207079535554 1 0 1
2111 1 21.048791455746297 23.53079341855378 12.902942159806834 1 1 0
5572 1 6.935241103756298 15.13615834626898 3.388356476795624 1 -1 1
5041 1 10.668630421598703 14.417731955572325 6.073435242645648 1 2 1
3188 1 18.63350187529651 0.9046118519551172 17.51487713316133 1 0 0
2179 1 18.994203924993627 15.214612173073473 0.9714850938084787 -1 -1 0
1390 1 13.71787773404961 11.182090559727808 2.3089527217488173 0 0 1
3289 1 21.792259759634607 15.96986012229946 3.7547238817646957 1 -1 1
3288 1 16.68258285079703 13.898109612503609 3.4861132168146955 0 1 1
6392 1 24.252926025528417 7.06157280243458 11.79236940990226 -1 0 1
129 1 23.566778584500977 13.610527395209914 2.9962413167068873 0 0 0
5030 1 3.519398369821385 19.30617132223176 4.06622369195654 0 1 0
3800 1 23.000776848311705 20.299813396477617 16.666197718568597 0 1 0
3164 1 4.2701028481136 18.440290820492745 1.629211631893602 1 -1 1
293 1 12.540234837739925 13.806664792184494 1.7240894795916546 0 -2 1
4705 1 10.555666816115377 20.242437124783606 0.6752595117762565 0 1 1
5440 1 0.6899903768293566 15.014212074788675 5.9015715959335076 1 0 0
3272 1 13.420084215258193 16.597143423992986 2.8462738610156806 1 1 1
5223 1 17.06665668252438 17.26076123355728 2.064230948411442 1 0 0
6338 1 19.871121461682986 19.279964381457244 5.208456240583896 -1 1 1
5358 1 19.11674584706698 19.001432627047844 2.6450135144265916 1 0 0
1809 1 23.285970607718614 19.938920453901996 1.5686702615339427 2 1 0
5023 1 22.875276125223486 18.250507499568013 4.006140467882245 -1 0 0
5336 1 4.318437933558357 21.77658725448671 12.931956282888295 1 1 0
201 1 24.3248632133056 0.4157981945034237 3.883762617826643 1 0 0
1549 1 5.5017937912860315 16.760148888022584 19.7918805907703 0 0 0
5482 1 5.958121713939165 20.758483237990806 2.710342097422796 2 -1 0
5076 1 1.2979634508573445 8.92867502889718 5.407462070393477 1 2 1
375 1 11.85643539626173 22.723681748099043 3.2837515417023977 0 1 0
5090 1 14.182464134024752 22.796686297045518 0.5357395673331589 0 0 0
4791 1 18.874861411056575 1.3339114838498836 6.55788282156328 0 0 1
3479 1 14.333954891175685 19.38412114501395 3.1079892851763993 1 -1 1
1858 1 20.695466169298427 21.315198023427413 1.637893167791991 0 0 0
1652 1 19.62722416121919 23.179085550376595 17.254712758350312 0 -1 0
1381 1 3.0546908523422576 2.2901515216040256 8.130356102368221 0 1 0
5409 1 15.659613826977523 18.862381146898123 17.34531843759517 -1 0 0
6472 1 7.736657825720876 2.588905067881259 5.63704166950618 2 1 1
3774 1 12.509359829253333 4.941018411890239 1.4037750857372562 1 0 0
3695 1 5.04176157611408 3.780238631306648 7.249047138797557 1 0 0
3280 1 23.690336038730095 10.710485430300348 15.138774485830778 0 0 1
5081 1 7.465592138829555 5.3622082235339 5.610155618948835 -1 0 1
1478 1 13.349485716009903 4.037028585956905 6.088577825947908 0 0 0
1877 1 23.58612127285053 21.7919200088318 5.9469495860372 1 -1 0
591 1 17.063386141623806 2.536369100399195 3.1918897926810947 0 0 1
4958 1 1.1499451745034428 16.075707685457076 1.9084515770970758 0 1 1
3612 1 16.09243167862975 2.113270582464358 6.616896054437253 1 0 0
522 1 3.504882184574112 5.365678631713662 5.405943649223174 0 0 1
203 1 2.8899600740258196 7.42794263452488 7.213077868075259 1 -1 0
4845 1 7.217055592182268 7.0443840475415325 7.767467861017443 1 0 1
5543 1 9.937492126817446 5.858149950690398 4.443960140819059 0 1 0
5220 1 11.272540864498474 6.2530705263087745 6.914472273418099 1 1 1
1403 1 15.780619329455234 4.710432205890434 4.760103666213839 0 0 1
1889 1 18.275388676125125 7.279733424672822 5.0932288460995885 0 0 0
1710 1 19.299316210485458 3.546004503415996 1.9667794886590055 -1 0 1
1962 1 19.137525635463465 6.561548919798164 2.193597179113392 1 1 0
4704 1 21.331131321910767 4.239137023491673 3.8316428447058426 -1 1 1
3091 1 22.199594884789843 6.783840480389454 4.116621995281845 1 -1 1
3138 1 23.10038862189931 19.80954814469617 12.258469709160744 -1 0 0
6371 1 2.3815141075220416 11.344821055482855 4.527837652112033 0 0 1
1948 1 3.2469928074272976 12.591499145581801 6.62994544317833 2 0 0
5660 1 7.972988143394512 12.17420051705596 5.420068995860612 0 1 0
1772 1 8.841676758707026 9.278045270023673 4.722573566922945 0 1 1
1556 1 5.69973311155805 11.552445020627054 7.050995685374055 0 0 1
1649 1 5.018204865979069 8.82776024653424 8.221132989834116 1 -1 1
5595 1 11.006131221199645 10.470476525595316 3.1402753971947632 0 0 0
6642 1 11.429382254765027 12.044407528809902 5.5008625069508374 0 -1 1
1909 1 13.814249798791842 6.851515206194518 7.809742194530248 1 1 0
3203 1 15.009390888976327 7.788542298328222 5.544661046324464 0 0 1
388 1 19.009409352221336 10.0561536952254 3.2423046513277147 0 -1 0
5249 1 16.13820477611138 10.342259540949817 6.2441881921945495 0 0 0
3756 1 18.262137561443957 11.868368461097898 5.40686100855177 1 -1 0
442 1 23.227861763546155 11.892673226262866 4.940008084041229 1 0 0
1867 1 21.639619556501735 9.67798650574634 3.9672420982951655 1 1 0
4740 1 4.535451368445475 15.016410999589011 5.296958670392644 1 0 1
3250 1 7.0576191379959425 11.715436882751735 2.893623595353204 1 1 0
484 1 8.83192783033851 12.942692734256696 8.579817330827952 1 0 0
3462 1 13.540859712219703 15.374816432956795 5.580743873251315 0 -2 1
1518 1 14.388993291398881 12.432153187463358 4.869992778667922 0 0 0
5001 1 16.070649602862186 16.460969108924242 4.611233279005652 1 1 1
4898 1 14.681301990868494 13.12132157388282 7.870910961962508 1 0 1
3687 1 18.058134933672402 14.561592446368529 6.205681441735566 -1 -1 0
5010 1 16.653636638007555 14.890362864453559 8.608275681861633 0 1 1
348 1 20.50846955402862 15.429485762438954 6.097059622354656 1 0 0
5269 1 22.22502799349539 13.182814654336937 7.052558729214095 0 1 0
4697 1 2.6157379839769903 16.56819906004731 4.57597034624443 1 0 1
6745 1 23.642058318302134 6.719573573325491 6.552484504121374 1 1 0
5490 1 7.813399247194648 20.83559986662903 4.49945117799832 1 0 0
5475 1 9.029332598614456 18.43087230385719 4.069574505502003 1 2 0
28 1 13.056844639425004 17.622637519816426 7.546101548060633 0 0 1
3734 1 11.915299384773544 15.761105580185589 9.964180196077525 1 0 0
2256 1 11.958436184638705 19.785952501602512 3.1584549090325247 0 1 1
382 1 14.119743349849408 20.12494184499819 6.013021631920718 0 1 0
3032 1 16.3302637294093 19.6697473961318 9.224815844712804 0 -1 1
284 1 16.55621087735485 18.646148816526885 5.948060699899157 -1 0 0
2322 1 17.90621591257283 17.39617391662334 8.5085000655018 -1 0 1
3905 1 23.312672562301508 18.811118643928545 6.820584764591749 0 1 0
3257 1 3.1500172452420943 23.205218024409014 3.8049483242076305 1 0 1
2189 1 6.489465317027569 21.77193013495122 6.5721004206706 2 2 0
6554 1 4.12210422056029 23.04421608694092 6.388210954812071 1 -1 1
1346 1 9.134801445442156 23.195957212008086 4.318498820081642 0 0 1
3418 1 1.8919222345150424 1.6241179662277818 18.850873386911477 0 0 0
3697 1 12.732674271788122 22.784077448859183 5.824555769982489 0 -1 0
5364 1 11.210504856490905 19.37156508981753 6.010500174454382 1 -1 0
1911 1 14.192192398977905 14.904148559541046 19.857493383036577 1 -1 0
3887 1 16.346040807115283 23.81577343594103 8.054483988008123 0 0 0
3056 1 0.6245053494175745 14.171009164720024 13.15459745432553 0 0 1
5260 1 16.340965969589764 21.992878413156422 6.106262409316633 1 0 1
1744 1 18.885375566001205 20.912872106474573 7.286992551687068 0 0 0
5239 1 8.137242831643249 14.068746333186164 18.960919800383138 1 0 0
5021 1 21.206008886486885 21.912323577635608 4.558370651255764 1 -1 1
5122 1 6.459848877992387 1.9937644547084434 10.307905770331942 1 0 0
4985 1 3.487915568902114 2.026805171548622 10.622966362855081 -1 1 1
423 1 8.748565884176639 5.537013563331973 9.921933475798795 0 0 1
1726 1 6.224341084898522 4.600453109493953 9.680361896210412 0 2 1
3262 1 17.428602683384717 23.2652608199375 19.132327774259217 0 1 1
1548 1 10.720005762606739 3.9189058076357592 8.888094897162134 1 1 1
1942 1 24.26496044322361 1.9574712922108775 19.410613651619812 0 2 0
3499 1 16.74115516521186 14.367882928049832 18.461444942992586 1 -1 1
3779 1 17.225943074297387 3.0071282349464448 10.66773873375736 -1 -1 0
139 1 14.460963649490301 23.710337821359428 12.37847148255579 0 -1 1
6628 1 20.477263788220533 0.5261248721775249 15.379916339449101 0 1 1
1461 1 17.045590828620405 6.4736459703204385 10.638235332167163 0 1 0
5609 1 20.366512271309695 3.6928468343460383 6.622610290070802 -1 0 0
1512 1 8.228803439722391 23.320186907429687 0.25180977220931644 0 -1 1
3455 1 10.536294684371535 12.928617139090493 18.392276952138346 1 -1 1
5408 1 2.345823576324989 4.9007568049228185 11.194169184514564 0 1 0
5111 1 4.537048569222775 6.191201262082393 11.759614529536222 0 -1 0
3332 1 4.38602831836371 9.01702589115503 11.070103910771703 -1 1 1
1335 1 13.185012328582916 3.416667622511622 9.16651787487291 0 0 1
367 1 9.625840753392545 8.358293551526707 7.352444118748933 -1 1 0
1723 1 8.5757459767373 6.511857432015373 12.42696844844961 -1 0 0
5258 1 16.114011675627633 4.602268607943348 8.354407277183638 -1 0 0
6375 1 18.607677729894707 5.546737971315019 6.756147948904004 0 1 1
2166 1 20.99034922988665 3.82696334218444 11.789292813048482 0 0 0
1473 1 19.598002823060174 9.285255478765908 6.72094097305653 -1 0 1
6625 1 19.87725043891339 6.844557559195933 8.599351544151933 -1 1 1
1622 1 5.043489754685716 23.45680111841993 2.222110230459136 0 -1 0
243 1 21.947864717578845 5.738500011694713 10.055399555169048 -1 1 0
5559 1 1.7306419316512596 9.157307645841104 11.560767919604737 1 0 0
267 1 1.7222188633717437 11.970188266987067 11.479532870225444 0 0 0
4964 1 6.126577375714692 11.057898325591754 11.510809019625958 1 1 1
1349 1 9.416872959028796 10.26001134118984 9.618199265887444 1 0 0
3366 1 11.72279218033326 10.95981415849595 8.163323242086083 1 -1 1
3052 1 8.164714397838921 9.13753103963151 11.959568949519957 -1 1 1
3349 1 13.603174861156658 9.251783030973687 9.00809631814845 0 1 1
3035 1 16.104151612626232 10.482983939702763 8.78969599008004 -1 1 1
3949 1 18.361305094258427 8.87052473230223 9.664292479209571 0 0 1
2327 1 20.24713760731865 11.911577236079825 8.334180610166818 1 1 1
3815 1 21.977561721505108 9.864298520434543 9.634352900717857 1 -1 0
5206 1 23.54525653400215 11.713043425623223 11.18694338949493 -1 -1 1
564 1 21.36700857112381 1.0880260163517417 1.6236492764411703 -1 1 1
5221 1 2.891679400089169 13.184656044570964 9.602287360648956 1 0 0
3927 1 1.6897488895304782 15.8694044687241 8.94868829053804 1 0 0
2135 1 10.534543807539206 12.54333732794175 15.36824997043532 0 0 0
2173 1 5.867234841429613 12.913655812264743 9.430932377278205 0 1 1
3868 1 5.575343608177954 15.61195534927653 9.442726466637973 0 0 1
538 1 8.507321505077668 13.090680638628294 11.744042639720336 1 0 0
6543 1 12.237910639969439 13.129954610795858 10.187784689141644 0 1 1
5124 1 14.702361815813402 17.583942182375655 10.207702314120668 1 1 1
3718 1 14.824380906308997 12.234651818665023 11.135297075884337 0 1 0
6637 1 13.485687492470879 15.191163779207951 13.166514153477369 0 0 0
1561 1 15.818659808473036 15.217048844306442 11.333337947116668 0 1 1
5018 1 18.16265732456955 12.513056227659117 9.804516261000227 1 0 1
6536 1 21.865379001819974 16.029686867932398 9.585608349617793 0 0 1
3934 1 20.820405754079303 19.996611581528015 19.918151510415836 1 0 0
5208 1 4.8807010456652895 19.169627595043377 6.539854733644673 0 0 0
5337 1 1.2837787913238103 20.353735571116065 14.144319985107861 0 0 0
3134 1 5.751795894954283 16.790951371023937 6.86973414003606 0 2 1
93 1 5.066744339772986 23.449000781522855 10.880203796959254 1 1 0
5050 1 1.5015053399091336 20.78906624021121 9.563273423581748 0 0 0
3162 1 8.527882441770183 16.612769037562895 6.184938328074502 0 1 1
3497 1 10.1522165022654 17.320150433988783 8.604387433335164 0 0 1
2239 1 10.270077468677675 20.013703434367038 10.078821126831937 1 1 0
1733 1 12.783874690117107 19.327302513218395 11.323871624004235 0 1 1
1768 1 18.10756840471093 15.305215622064912 12.813805776498874 -1 0 1
3566 1 18.303659106197504 20.999595071014667 10.902100568451317 0 -2 0
1449 1 21.176652304909112 20.82072804852307 9.53953000140798 0 -1 1
5028 1 20.717653092707 17.46799235555091 7.642706326576179 0 1 0
5436 1 1.4088877782300147 18.184373287135333 7.058334973054178 0 0 0
503 1 20.49423123557821 20.603835640991036 17.10725122308114 0 1 0
1378 1 24.271561676691206 8.526218359615655 8.841809053875672 -1 1 1
4943 1 14.975218233574486 1.7447490818979556 11.445710522822624 0 1 1
593 1 10.422420056430273 21.70486232690577 7.570829575973475 0 -1 1
1764 1 7.9928396254884015 21.16798773953318 11.042945205990689 1 0 0
1914 1 8.801863958121489 23.747328414764194 11.604836655404164 2 0 0
5056 1 1.8101549174112077 21.882216624946388 7.2813114578441205 0 -1 0
4840 1 13.850762968088947 20.84730493862917 8.840707017769867 0 -2 1
3171 1 18.493033521535263 23.19661807967808 9.826426502686589 0 1 1
5334 1 24.563370270245294 23.103083000433088 1.4510445254714248 0 0 0
497 1 13.206184834940156 22.7578054512355 19.170566170914487 3 -1 0
6578 1 20.837638840937814 20.852326976525173 12.479316902762696 1 0 1
5384 1 0.6678171954308862 2.40186079986392 14.597030076790514 1 0 0
1607 1 3.5853736587717706 1.861955432758009 15.294294958229148 0 1 0
3325 1 7.277793167064529 1.292785379276803 13.017704011889238 0 1 1
6591 1 6.143949448015958 2.9429579964021255 14.930715856639482 0 0 1
478 1 9.903212125501577 1.9831173769819712 12.585606916366999 -1 1 0
1444 1 12.595967354752414 1.9452517029042886 15.478493948314382 0 -1 1
5511 1 11.973614505678496 4.378747059430627 15.051900822512168 1 1 0
5585 1 1.9645639150068848 8.525813620306971 14.437369970418368 1 2 1
5404 1 9.627499942982684 15.09702906363151 2.978155113239718 3 -2 0
1636 1 15.78817459887845 3.9080733158518126 16.258342542222536 -1 1 1
3409 1 20.518471714790053 3.500915132677309 16.221693842442793 0 2 0
3343 1 18.486415818658696 4.7623593744069606 12.706384144608016 0 0 0
3463 1 22.07390837904424 4.611345494861402 14.254224805311697 0 -1 0
1716 1 14.061435949504075 23.2830408785997 9.683622963247377 0 -1 0
6353 1 0.7770736874861233 4.786762221362247 13.35319547202588 1 1 1
5506 1 1.8664029677756133 5.653487796029964 16.080601373130868 0 0 0
50 1 6.067886611602966 5.6947001479492245 13.977288752677126 0 1 0
1748 1 10.923234048756843 4.601695412812154 12.709257325293303 -1 2 0
6514 1 14.091950813406386 5.959668313315539 14.916462417817215 0 0 1
2073 1 12.802233662785074 5.711215727634948 11.08047601792534 0 0 0
6467 1 14.871165621274 7.084223996479741 12.292990459389248 0 0 0
5022 1 18.981382495621837 6.816511360569646 14.136563554148493 0 0 1
1524 1 24.070640694694042 21.546063191982732 18.771669276847124 0 0 0
6584 1 19.424763257912876 5.782210367281249 16.7168768653464 0 0 1
6725 1 22.614724400392124 5.380688198280346 19.077706006721694 0 0 1
3514 1 2.8843724425895423 12.475893182254609 14.650314589675048 1 1 1
1678 1 3.6094596002737505 10.485263132812166 0.8811833851392079 1 0 1
3929 1 3.3536435604764714 10.553160064472372 16.36854294078654 0 0 1
3042 1 5.105333710304121 12.75014042407978 13.356416840148025 0 0 0
3087 1 7.50587638987234 7.580429692797909 16.64979456206517 0 1 0
4720 1 8.545218936490802 9.653515068084282 14.774380819967778 0 1 1
610 1 11.342466087445898 10.135604371302943 12.512825587168225 2 0 1
1944 1 14.057331501143757 9.629181381851305 11.750685971390856 -1 1 0
3015 1 15.51642631423876 9.67545902618487 15.10532569461998 -1 0 0
3788 1 18.928247242420117 11.094309023482548 12.61884696395923 1 1 0
3397 1 17.347635884451208 8.831748286932815 13.118475933545351 0 0 0
1845 1 7.720592735820953 8.991277536955364 19.11076325215357 1 1 0
3964 1 20.667701097836538 8.309914874616885 11.741270454185663 0 2 1
3099 1 21.89342529049186 13.256666030514534 13.08216922759327 0 0 1
3359 1 21.14768460276512 10.39400877117919 14.177862933678503 -1 0 1
6647 1 4.274296782908658 17.101929639037735 11.546234150583722 0 1 0
6575 1 18.55450559590028 16.042194423023716 19.656706098530325 -1 0 1
5453 1 8.467607742378666 15.654486761610235 10.312219667593283 0 1 0
5064 1 6.140101547566518 15.170722792553452 12.93411657086012 1 0 0
5259 1 8.075747986098044 16.611219658849162 17.401133767635837 1 1 0
6474 1 11.07362717009631 13.0439752341454 12.6246021944971 1 1 1
4788 1 8.48054777236374 16.974835075014603 12.842449686625184 1 0 1
186 1 8.8292852956836 14.892651767347825 14.957352721753791 0 0 0
5228 1 15.064812738904392 12.070446586618138 13.988816748012805 0 0 0
1713 1 18.544219293187634 13.613022777662579 16.324674805304618 0 0 0
5320 1 17.555477806035434 12.899809730812482 13.719658983959269 0 -1 0
379 1 20.147812600377705 14.237699447421669 10.930925874772578 1 1 0
2247 1 1.0649951186324773 10.593594002807242 1.412459485390543 0 2 1
3307 1 8.893728992088306 1.525292201368056 19.341543149151093 0 0 1
4991 1 22.27741286195762 15.67739077569461 15.390401944072071 2 1 0
1950 1 1.836310177906983 16.15407546858055 11.609994717537857 1 -1 0
3210 1 1.2787937808479994 16.89122483503898 16.67374881986559 1 1 1
6721 1 3.7242586956678267 18.82757115749628 9.20596438150298 1 0 1
1718 1 5.45526348564137 21.149616479093787 9.471974092837115 0 0 0
476 1 5.891129071399303 16.938584569846174 15.31663919959627 0 1 1
5368 1 11.382494906208471 16.192167632300475 15.484062794847711 0 1 1
2026 1 11.455055205419937 17.10842475490221 12.567409492764273 2 0 0
3221 1 17.9379778385157 16.402086929983852 15.490062277796907 1 1 1
3880 1 20.679852339936225 16.9290765748277 13.203516524148291 0 0 0
100 1 17.42808735756556 21.15599664371674 13.990565818804226 0 -1 0
5588 1 23.0094030300005 17.272248550607895 12.009710212384846 0 1 0
1580 1 19.584587086121477 19.194906916845365 14.654208530959432 0 0 0
3576 1 1.6378764744377616 22.216225024803094 12.084538281445635 2 -1 1
124 1 6.526434746999289 0.6794143643289073 7.576988884951414 0 0 0
5526 1 3.364111490609594 19.50468322458983 16.182620298778815 0 1 0
3077 1 5.266320402652009 19.196334029500427 13.484332470516495 1 0 1
2125 1 8.779472255595902 23.611090815375906 18.588569873648854 1 -1 0
5164 1 7.897870913328911 23.100466803543124 15.992995899737114 0 1 0
3836 1 7.931649542537842 19.765923016948555 13.437034829839245 1 1 0
4835 1 16.58659866206011 22.069419158842038 3.194369258977764 0 0 1
6711 1 14.3055490615014 21.081958823483088 12.963809332442628 0 0 1
5215 1 13.83101759837578 20.926526647593274 15.489008292974939 1 0 0
3337 1 1.5673250441190665 6.996504351535282 9.480314209824009 0 0 0
5087 1 18.499268029716447 23.46369138720933 14.736765462269025 1 -1 1
3061 1 0.5998835414637445 13.305734578221752 3.78153075806904 1 2 1
534 1 15.811817306489651 2.9776795563034613 0.4513458865158819 0 0 0
6738 1 1.6717974455712878 21.088007737830907 3.4774437878526747 1 0 1
5093 1 15.690956836109512 20.436455746748205 0.6149771284607671 0 1 1
1421 1 3.0093430740708653 3.606024856234759 17.626764029073232 1 0 1
5394 1 7.797951979138564 1.1083932986407368 16.662237887013692 1 1 0
247 1 23.27542692906274 6.8449638554671575 1.3017754174576628 0 1 0
5342 1 7.506970164301379 4.18332522552409 19.685700301570577 1 0 0
3907 1 12.215819104041305 4.3388455836179896 19.03838504926366 0 1 0
5466 1 14.412128595873753 1.970943092609479 17.854567303371077 -1 1 0
3664 1 1.6053131123904487 8.1636391068965 2.9072570171735017 0 1 0
1874 1 22.53987503899635 7.438468304930061 13.77598380027454 0 1 0
3413 1 17.90978560287173 3.0366642600470017 14.849877303846434 0 -1 0
6641 1 10.873974385820087 21.49611373656397 19.02298409399015 1 0 0
2284 1 7.701553738718989 4.692575203385253 17.083212382942506 0 -1 1
3430 1 4.5273210476532855 7.1916565808891315 15.653213825121872 1 -1 0
105 1 10.52772976124457 5.257436607293786 16.968328694193303 1 0 1
2309 1 10.825193603508394 7.92974918400993 17.437764170189027 0 2 1
5473 1 1.102946306435818 5.359384230707393 2.2783541559190623 0 -1 0
2204 1 22.93809420175471 4.443999226284005 7.856651026906966 1 -1 1
3313 1 13.722497783683293 7.93346419328417 16.704563581678475 -1 2 1
5596 1 18.350928988395083 3.144285555412789 18.926937250497588 0 0 1
5548 1 16.98987392287582 5.418932209806027 18.109539490756845 -1 -1 1
3240 1 15.210612873657935 7.25217877186785 19.04392395275355 0 0 1
380 1 20.742790036547316 7.93479365410297 17.890687951215114 1 0 0
3981 1 23.726608144987875 1.6099917255960732 14.408283646865458 1 1 1
5048 1 23.663727865111355 3.476660902589125 17.288148340146165 -1 0 1
11 1 23.114596015088438 22.256658730016017 8.543104308320697 0 1 0
5565 1 4.55314074826417 7.734032082538011 18.28661320388493 0 1 1
1696 1 5.925561915441531 11.968385153165785 17.470406956341208 0 0 0
3081 1 13.815257061115954 23.613848552552515 16.29520464107886 0 1 1
6551 1 18.855006010567052 0.9805961633382985 9.592683811929227 0 1 1
6633 1 23.227852043009406 11.897994652153836 0.5578214655770092 0 1 1
1915 1 7.172578733514757 12.367232958967552 15.074814444429416 0 2 1
3786 1 13.295919220611976 12.75983354924152 18.77864499613155 0 0 0
6398 1 11.710415812581433 8.807156054544249 19.925107721313573 0 1 1
6719 1 16.936584525227847 9.22585576712344 19.62775333740853 2 1 1
5151 1 17.325257506085006 10.558929397291424 16.94652583406528 0 0 0
6562 1 20.018984750558097 10.619150142664973 16.760164700229073 1 -1 0
2006 1 9.86172024854449 0.6107823775908016 5.82056477723555 -1 1 0
581 1 3.574474144002668 15.131759935099986 15.978279070674354 -1 -1 1
162 1 13.760481666353334 17.47523128241785 18.937054287994773 1 -1 1
3284 1 1.1015909566595827 11.067944095533266 18.00981909718915 1 1 0
6479 1 5.050482409420529 14.639009693604565 18.154311646533902 0 1 1
3022 1 23.785095419906398 2.4607565655022525 9.803120861508766 0 1 1
6593 1 11.244459586518266 9.687840180477979 15.420618762306123 0 0 1
339 1 8.138110552372725 23.74908651700103 7.043942739081139 0 0 0
1680 1 13.295694571265113 13.633896484760342 15.867283842713267 1 1 1
1504 1 20.89931805535874 14.157472605599482 17.013103260393382 1 0 1
2229 1 21.99548853935135 11.795213561345982 18.31766324191979 -1 1 0
3631 1 3.525283530088558 18.21915528887567 18.886068996177404 1 -1 1
481 1 22.872814772649065 24.11889809009284 3.3496904940368464 -1 1 1
1319 1 3.6295236315522725 5.558053025723617 19.712325144839557 0 2 1
5507 1 9.190325858318081 21.09541909485436 15.382734496919014 1 0 0
2202 1 11.50659896763694 17.64756522880738 17.998010605775335 0 1 0
1920 1 15.025606415253776 15.938734802330941 16.11733335588887 0 0 1
5431 1 3.0786537840546204 14.037624763722004 19.677076479463096 2 0 0
68 1 6.976385325369027 17.634767330565698 1.734597272359078 -1 0 1
3069 1 18.425293796469724 18.23754635124165 17.758517092385105 1 0 1
2195 1 23.234699839935057 17.62146371866897 17.521987387947398 0 0 0
2040 1 4.154313853534717 21.928393632604557 16.90363476748889 -1 -2 0
6394 1 19.032014854240717 23.91319279193947 3.1087401435581623 0 0 1
5203 1 1.67216897626602 23.593768883034127 17.68841673898062 0 0 0
3865 1 7.057640274776629 19.810488570351474 17.148770918821917 0 -1 0
6694 1 5.132032800025631 21.383927605420663 19.372467519665378 0 0 1
3222 1 11.308695144833345 19.916099070905144 16.449270524698555 2 0 0
3026 1 11.11812905869588 23.63197525739568 0.25505152180645324 2 -1 1
2307 1 10.846873097347357 17.13792579803971 1.6783388583856407 0 1 1
1807 1 15.093973600608482 24.436440012199533 3.432461994823882 1 0 0
3010 1 7.959531960396884 20.461646634823374 0.4816188094443946 1 1 1
6590 1 17.35974598073731 12.067555035033847 19.86259539828635 1 0 1
3103 1 20.97493481065118 14.952963938051068 19.563612938573005 0 0 1
437 1 7.406002970310352 18.977755815810365 19.858821101494964 1 0 0
3304 1 10.072046143650077 24.439129817434395 9.17635872170522 2 -1 1
1747 1 22.9421285092532 15.3442440129732 -0.046505388838137054 0 -1 0
2215 1 24.32752248125816 14.215532839340598 14.62974873998289 0 0 0
2013 1 0.5305415188768476 20.973047162520178 1.232585145315881 0 1 0
6663 1 1.2456011129687723 3.35173193314959 23.666322110640117 0 0 1
2200 1 0.31649549243829583 1.196740926839978 37.45383481301725 0 -1 0
345 1 8.863927801319909 3.0363934557200136 23.39139333071763 1 1 1
4727 1 6.410401445020416 3.2578553564417487 21.90868552205868 0 1 1
4860 1 23.583197103948024 17.37789578590407 39.083044017966195 0 0 0
3958 1 11.734457833712094 4.282166392064003 24.007311102319964 1 0 1
2206 1 12.418483656652928 1.4012302808503532 23.47128157917912 0 0 1
1370 1 16.154191714380566 3.6246668560426603 23.256557683253938 0 1 1
1628 1 4.53033504803551 0.5750709826588913 23.05987888336557 0 0 1
5080 1 15.998633812769551 2.7241121429802617 20.433689423366314 -1 1 0
6346 1 6.990327469196912 23.118683234614288 20.37091971425441 0 0 1
2201 1 19.120248099021637 3.413549738979617 24.1324423555541 -1 0 1
1523 1 22.021013298634745 1.472979530282319 20.85013218289839 1 -1 1
6432 1 1.2259806723658795 24.276223437385912 23.435239738708706 2 1 1
5607 1 19.577593033779863 0.8991456422783677 39.02219584886785 0 1 0
496 1 1.861997112982507 7.160537437192164 23.105475113644722 1 1 1
73 1 11.943165226220549 0.5094556990879815 36.43103206382926 0 -1 -1
6735 1 20.200165804303502 24.286243317107093 24.072292765619608 0 1 1
3780 1 4.517843030771271 5.2337317983415135 22.583647455922424 1 0 0
5649 1 6.748435802472701 7.14359276238243 23.055467695745243 1 1 1
3306 1 21.447975371416142 24.01839861049688 21.35869683270993 0 0 0
381 1 10.873152354205782 7.852931934150121 23.670545894525933 -1 -1 0
1487 1 10.260070478249204 10.491664025993199 23.208541954428092 1 1 1
4848 1 8.941063281251871 5.840118139756737 24.46625247368385 0 1 1
1348 1 8.373752778560762 6.879712871957164 20.768466558661512 1 0 1
6415 1 14.478412603896553 5.487990866210544 23.859262876250778 1 -1 0
6348 1 14.369129687075839 5.329680743966315 20.757100738894263 0 0 1
1721 1 16.232198375943177 8.006986431159966 22.54750241716153 1 0 0
5218 1 18.611506657923485 6.94180276353859 23.12812563094029 1 -1 0
3691 1 20.67765371300427 14.929169900610065 39.94097263767593 1 0 -1
5668 1 22.963379119463955 5.243058326248937 23.21971477411142 0 0 1
1582 1 24.23326735163761 13.946277734591 20.706066506978434 0 1 0
3075 1 24.058897260027464 16.387265422927722 24.27763502378548 -1 0 1
1702 1 2.8885737486821337 9.731560031495132 23.920687428188756 0 0 1
3725 1 2.6724619559342804 11.39109515979216 20.251975181369847 2 -1 0
3442 1 0.7978531250716767 5.936273679314732 24.826569678486315 1 1 0
6688 1 10.45577092078017 10.727284832531861 20.57955946646539 0 0 0
3115 1 7.90553902064496 10.771917240497114 23.787931547510293 0 0 1
6651 1 11.442435923197532 12.684574655612352 23.489114154612274 1 -1 1
5646 1 14.97490034795108 10.612132054111717 22.498056806754306 1 1 0
1846 1 24.173104733088255 24.170959242596908 23.699880282400635 0 -1 1
6356 1 13.226298632707325 10.966470296045847 24.633675601964015 1 0 1
3082 1 15.264639358557156 21.12841894483275 20.24903026528569 0 1 1
372 1 20.448604583294617 9.06192687241105 23.509430995364337 0 0 1
4803 1 22.941682735646264 7.765925153038872 23.748205434268826 1 0 1