LAMMPS data file via write_data, version 29 Oct 2020, timestep = 6000000

6750 atoms
2 atom types

0.2172065936844767 49.00279340628909 xlo xhi
0.21632239219361438 48.80331353820743 ylo yhi
-0.24859675604171017 60.310596756046294 zlo zhi

Masses

1 18.015
2 12.01

Atoms # atomic

3064 1 2.4933504070764885 1.5491551582416536 2.96522008469348 1 2 1
3250 1 0.8978283989000997 3.4220727648349407 1.841143601579935 2 1 0
562 1 5.007491176032406 2.093064629270833 2.117427994231898 3 -1 1
3204 1 5.613628157342485 0.2985671537119856 0.1250834096115479 1 4 1
6727 1 7.869994389276461 0.3692793287423407 3.1425954382578425 2 -1 1
3477 1 11.384029037835429 3.577009359653897 3.0267352386015776 1 0 1
5662 1 8.682247406588358 2.8309849254376704 2.7268950270066687 0 2 1
6492 1 8.861548888070326 2.7241002803927947 -0.11758797436556273 2 1 1
6491 1 13.058458310242123 1.5695886185772938 2.325208036747715 1 -1 1
5084 1 15.652034455560182 1.870174281916771 3.391590248905336 2 -1 1
1445 1 12.982604841539395 1.6540143684577229 -0.21710347427999466 -3 -2 1
5241 1 16.482626613283863 4.089782727891285 2.23252718200508 -2 0 0
3996 1 20.02174170197339 0.26696259974275355 2.9025552341936303 -3 0 0
556 1 16.84491959523592 3.912854122133246 -0.20671089602844006 1 1 0
2137 1 20.99533839560976 2.7343806783803757 2.410608120774205 0 2 0
3414 1 23.54549417250414 3.192813776987499 2.9807551124119778 1 0 0
6459 1 1.788602936145221 5.839097144694568 2.802947772209063 1 2 1
6552 1 4.232181876846126 6.660217377763238 1.7765600924580416 -1 3 1
348 1 6.740524616584564 4.787940641838623 3.067212426995892 0 2 0
3754 1 7.6019041807092576 7.039922534653766 2.1631277752953717 0 0 0
4916 1 4.612317507078704 4.401641456090546 0.26721393817237227 1 3 1
563 1 12.188018843821421 5.8762539326813705 2.345542647885618 2 1 1
1359 1 10.160158806171783 7.902920705576357 3.029498984841669 1 1 1
5052 1 15.014978552514423 6.067060085978937 3.1257336159425755 1 0 1
4983 1 19.046923524272362 4.672443841618927 3.0489298317676115 -2 0 1
3129 1 20.324676032967222 6.876439793780939 2.2557541539597854 0 1 1
3801 1 24.268988521585154 5.624878641108711 2.1356462835093053 -2 2 0
5095 1 22.402188664290367 7.545451365827923 3.2479260648360397 -3 2 1
3213 1 1.0141505607772239 10.25933680848612 3.050846698470849 0 -1 0
596 1 3.69811792099491 10.674095600424272 1.7102835081734145 0 1 1
3779 1 5.66629595315327 8.82171794166387 3.0902420682393203 -1 -1 0
6705 1 6.926780095257258 12.063305705429404 2.8774031983327566 2 1 1
1366 1 7.472167201532039 11.398614695189831 0.003259473823510106 -1 -1 1
3045 1 11.600847983952315 10.032120995861575 2.126822795742857 1 -1 1
3384 1 9.773371725906896 11.983783576535668 3.217028028939685 2 1 1
41 1 15.562796713051544 8.361114500141168 2.347693596617814 -1 1 0
3202 1 14.057063645528467 10.380610118161522 3.1072720639086575 4 -2 1
308 1 18.25273521260164 8.46718332098323 3.076321083866656 0 1 0
375 1 19.28375188811438 11.073685225541267 2.18536567601603 -1 4 0
3828 1 23.472715699672296 9.930766791515445 2.4298350618008073 -1 0 0
6501 1 21.823407943591572 11.904757906540587 3.1585765746799432 0 1 0
3739 1 23.709583987262054 9.742606431365209 -0.21601704634385044 -1 -1 0
12 1 0.4613640253503963 14.363920155853181 2.9235710273570743 1 0 0
3912 1 2.894395724003348 14.596288573876262 1.4478691491577569 -1 1 0
6526 1 3.6410893156222492 12.50359336230419 0.018962752552441176 0 1 1
29 1 5.974227784239711 15.00766846957302 2.6045628528924336 1 -1 1
602 1 6.686748476119391 15.70342579188044 -0.2436048680543579 1 2 1
3019 1 8.661647197207818 16.224104372653724 2.7142599716056517 1 2 1
6593 1 10.55225231211386 14.259605689741411 2.1993311002127016 -1 0 1
3094 1 14.912584730688716 12.47730754301873 2.3927772955971895 0 0 1
1 1 13.196663451219228 14.66159618064565 3.3578623491153814 0 -1 0
2051 1 15.261691345344827 12.565399895486966 -0.21759031635519932 0 2 0
3450 1 18.5875619022235 15.727452234974848 2.341638870325632 0 1 0
5609 1 17.601981637230452 13.20042481230414 3.032990415215675 -2 0 0
1462 1 22.831453989232656 14.50297858286726 2.0937901544225106 -1 3 1
3741 1 21.069932487627813 16.3175271362829 3.1412932220182763 3 1 0
1804 1 2.2091950049084943 18.760988162768708 2.4786974477252155 0 -1 0
6350 1 2.591542703241307 17.019859155426367 0.14781948569938314 1 1 0
2131 1 7.460159490618834 19.937334215717033 3.4245961440547847 -2 -3 0
3342 1 5.663776668505728 17.674211168246472 3.6525719618451085 -1 0 0
3753 1 9.56554686148654 18.87002907882775 2.058842202931677 3 2 0
164 1 12.178692118428744 19.030095641472304 2.957004080414379 0 -1 0
4854 1 14.283832381094411 16.76157234519357 -0.16721081309853458 0 1 1
1829 1 14.056247343140068 16.99534040268156 2.5681572472531986 0 -1 0
4876 1 16.486929259801403 17.47502331366921 2.9350398960448487 0 0 1
4933 1 17.40029336231505 20.14227017679439 2.318803232961708 -1 1 0
394 1 20.175535289775457 20.43547360104752 3.0064550122058167 -1 2 0
6530 1 17.994048087146922 19.694870613898605 -0.20507958878543775 3 0 1
3285 1 22.06403361158136 18.506533886314138 2.3958239372295145 -2 -1 0
3137 1 21.967158124966684 18.51413965107117 -0.19666498761286638 2 1 1
5642 1 24.475364631422362 18.58064718023767 2.9822236192208553 -1 1 1
5634 1 1.5423937884303076 23.37202516129279 2.199378996306991 3 0 0
1335 1 3.19143991725095 21.473378879706853 3.09832352598449 0 2 1
5381 1 6.6638948649580065 24.22765829334419 2.5162345080349 0 -1 0
3954 1 5.648868820211989 21.789749839253854 2.0218608653422714 1 0 1
3013 1 9.269155869907475 24.290072183363257 1.5888730187680047 2 1 1
1456 1 11.480344295101185 23.378544797972758 2.8840772041679754 -2 -3 1
3329 1 13.446187278034184 21.337187238200993 2.1966807819806724 2 0 1
3934 1 15.982281391376477 22.117862903735034 2.844073449470036 3 0 0
1743 1 17.106561928200083 24.163050567997086 2.2084840478999856 -1 0 1
1448 1 21.077606318992412 23.061645432433384 2.0734070605668813 0 4 1
447 1 23.72662066618463 23.241878406965633 3.09439421112507 0 -1 0
4927 1 1.2502361082869604 3.522620503012301 6.4585604256154845 -1 1 1
1563 1 2.931989889717737 1.5767571935446223 5.646305598965715 1 0 0
106 1 5.512586234708344 2.2908673736401584 6.2833076051802665 1 0 1
3257 1 7.13848846037391 0.3452571329228331 5.66030564565404 2 -1 1
3946 1 10.959372377519276 3.310906260068681 5.778926939869935 -1 -4 1
3985 1 9.593041071137911 1.0919858142036447 6.360243478849735 0 0 1
5553 1 15.294274207769014 1.6315609393204742 5.996604121539247 -1 3 0
6743 1 13.489393993485283 3.348583225913226 6.745948091339754 -2 1 1
5481 1 17.953292250923404 2.147716006697883 6.619390936575306 2 0 0
441 1 19.71520607764194 0.3552345907155825 5.521295104627492 0 0 0
3557 1 22.34947914300457 0.6664426526669578 6.462531322784453 0 0 0
6579 1 23.47050550456295 3.0490814883248927 5.657853875853518 1 -2 1
263 1 0.42713078363920953 7.634235034806411 6.722323954187012 1 4 0
1756 1 2.087249869805988 5.902785396554564 5.51509821342161 -1 1 0
1659 1 6.794911653812766 4.7718360086341765 5.891082892784587 -1 0 1
5294 1 4.6625860748630545 6.524950034422489 6.2471771067385955 1 -1 0
552 1 9.886734746740897 7.561071916319764 5.8336462876529565 0 1 1
365 1 9.241525096460466 5.227945843113183 6.7108546412511 3 0 0
1834 1 14.692284326256178 5.835111833060438 5.93751048005229 0 2 1
4756 1 12.733856269289161 7.725448534962665 6.665194868323423 -1 0 1
3387 1 19.26544898074393 4.89439061443104 5.69296397856426 -1 0 1
1995 1 17.103993384154442 6.43665513393058 6.67969563716534 2 1 0
1965 1 21.80640491477938 4.940159498330674 6.683746291857429 0 -1 0
383 1 22.729431467647288 7.371516567655568 5.767069767757879 1 0 0
512 1 1.6440740786427472 9.953258069200414 5.530990726010664 1 0 1
3417 1 4.151538141198059 10.887300629742882 6.158206678464797 -1 -1 0
1583 1 6.049740511092903 8.776902381329542 5.802725512560795 -1 0 1
1367 1 8.38876310970809 9.602596417107975 6.832033822257916 0 1 1
174 1 9.746982797251265 11.571450343008777 5.657746502927789 -1 2 0
1579 1 13.634216417692684 10.194885593889621 5.871022950572104 -2 2 0
3113 1 16.338247990754557 10.618142508303004 6.863300414503107 1 3 1
1779 1 18.432814659827056 8.76153623963628 5.767547897827406 -3 2 0
89 1 24.57231397807831 12.042213363657282 6.7154650687490225 -1 0 0
5050 1 21.097082795614757 9.251531006460167 6.877129355930372 -1 1 0
6464 1 21.93608186941889 11.685601063062208 5.9309845481211445 -3 0 1
1933 1 3.168266639404382 14.91235693711959 6.2713422118263225 1 1 0
4992 1 0.394433537698211 14.64706508872841 5.665213122198215 3 -1 1
5346 1 5.36133316137606 13.401401678659838 5.281202072192799 2 -1 0
3444 1 7.867737680211381 13.737716984541308 6.645039383487921 -1 0 1
1622 1 12.27189203736913 12.407987165377596 6.809782670083769 0 1 0
2257 1 8.611567084445877 16.0683662024283 5.544700509049144 1 0 1
1807 1 13.021002044522236 14.920020646780467 6.003346501597214 -2 1 0
5041 1 15.75369148552407 15.607940267202508 6.498716868000097 1 0 1
5435 1 17.345797266757973 13.412054512348874 5.8409219341636 3 -1 0
1453 1 19.98515123235732 13.817967473154294 6.710418377424006 3 -2 1
6580 1 20.944215946715985 16.00626740818003 5.649854654993417 0 -2 1
3360 1 2.2729560471822214 19.259083287924206 6.704078146523423 0 1 0
5659 1 3.147680332791916 17.283650714972715 4.913378282091189 -1 -2 1
3476 1 6.590977102906217 17.815498680456326 6.4390156596633 0 -1 1
163 1 7.821324870985238 20.19146448398668 5.975725306892886 3 0 0
5019 1 11.022379911311267 16.771736993083753 6.586480638288016 -2 0 1
1988 1 12.171296366628168 19.237720327963014 5.737219363300048 -1 1 0
3502 1 14.638507132318228 19.765347742074457 6.515055237598365 1 1 1
567 1 16.579549127563883 17.791046883350898 5.576696632495795 1 0 1
373 1 19.1757466286093 18.000055437077187 6.442915235973334 1 0 0
3932 1 23.360320322995893 16.46192143966821 6.606964269903603 0 -1 0
4961 1 24.284948910785694 18.70338405160474 5.974149119072626 0 1 1
3639 1 1.7415859695473517 23.573311089537487 6.509630313327265 1 -1 0
429 1 3.236003033906377 21.53130360116251 5.741401965384389 0 1 0
4865 1 7.507656863929935 24.354187117895275 5.499947797891004 1 2 1
6488 1 5.980339994413899 21.981491329130883 6.596404147524609 1 1 1
199 1 10.544958954372955 21.053091246492688 6.655307091097797 1 2 0
5248 1 11.314759625836965 23.279140581160146 5.571374022250165 2 1 0
304 1 14.027992235887245 23.536462355176738 6.552372882275693 0 1 1
379 1 15.6935128498466 21.833763992187972 5.439493120429415 1 0 0
3025 1 20.086969049521404 20.640759578132993 5.767185256184399 -1 2 1
5171 1 18.395016006083885 22.38718301030352 6.238896082889038 2 -1 0
376 1 22.757331424550827 20.752728542551246 6.6657893710301375 -1 5 0
377 1 23.35546803069469 23.158985749920767 5.658337018738072 -1 1 1
5540 1 0.42793940014165344 1.3193132375181031 10.153298147156667 -1 1 0
498 1 1.3000964788333975 3.581022128954425 9.213619419318267 2 -2 0
2087 1 4.2878448125093405 4.109015705297832 10.171896084911646 2 0 0
3330 1 5.770762452582381 1.949128831986711 9.106340158988772 2 1 0
3668 1 8.29606736107958 2.4752854923142382 9.882235895640903 -1 1 1
3431 1 10.246225998331127 1.020519343862319 8.94252355101983 0 1 1
3425 1 12.696229655854422 1.220189027320367 10.12982393567556 0 2 0
3804 1 13.607812271029017 3.734324877197308 9.27347372247879 1 1 0
289 1 16.216627750577622 4.067633097811282 10.337335796989827 -4 1 0
414 1 17.84310160996978 2.1483615357278634 9.38206132224688 1 1 0
1449 1 20.69467281231186 2.6988757174768208 10.454798144660431 -2 -1 1
5105 1 22.124868714330614 1.0050278828306465 9.190345985222757 3 3 0
1893 1 0.6250007872487823 7.593634099135919 9.368361068988513 1 1 0
1930 1 3.3812751931220153 8.069628911581827 9.955479108817487 3 2 0
3892 1 5.209239847396915 6.421030032317055 8.976239618065733 -1 1 1
5543 1 7.461329790306141 6.751442701449693 9.967057474069838 -2 1 0
2258 1 9.307429094449917 4.77024378563889 9.422569986039058 3 2 1
2163 1 11.878334443956147 5.413797806770629 10.353658139901713 3 0 0
5242 1 12.863141754074595 7.707859654633549 9.283707966157902 3 0 0
3284 1 17.151792094409263 6.619163349946804 9.440393695549671 2 1 0
3042 1 19.814279772805634 7.061173475731822 10.100618445523708 -1 -1 0
5382 1 23.932539008445413 5.382988274087561 10.388867613500992 2 2 0
1718 1 21.545234303641728 5.095479146063308 9.457438172461682 0 0 0
5523 1 3.920313364630598 10.574114232712985 9.030460431524045 0 2 0
5135 1 6.758372721422242 10.898089857189483 10.144003861810363 0 1 1
141 1 8.531306099918064 9.130630667856513 9.57312360378681 2 0 0
5632 1 11.210664634932186 9.885137258471758 9.827117083575182 -1 -1 0
1740 1 15.379248515940576 8.536498504164044 10.388118082906946 0 1 0
1666 1 16.4187000932972 11.103579786521163 9.564892230445848 1 2 1
4975 1 18.99732729151007 11.719611198603369 9.952145139935935 0 -2 0
4857 1 20.99567909337177 9.674793173929702 9.760743036746963 0 0 1
3853 1 23.56629595446294 10.102960743061129 10.546750391033454 0 1 0
3052 1 2.451573979668507 12.70346361255735 10.390760982123213 -1 2 1
5633 1 3.5288033505216774 14.808669454756918 9.002341468468831 1 1 1
3621 1 6.054264765966917 15.380369677107215 9.951291141851414 3 0 0
5147 1 7.97066668653424 13.4042973257892 9.4978522272174 -1 3 1
1388 1 12.070204527736498 12.50277885795653 9.305609387352979 2 -2 1
3428 1 10.25996582849615 14.202546731349816 10.511747774253193 1 1 1
4923 1 14.621163142495677 13.118750319982338 9.805823146193287 1 3 1
1915 1 15.30948919270397 15.433866720173867 9.15039460009737 -1 4 1
1549 1 18.06807105616611 15.94578065269344 9.945080348362778 0 1 0
3790 1 20.018073922712695 14.081249241192412 9.39220255079104 -1 0 0
1858 1 24.35394139446797 12.392939328147612 9.452890766608553 3 0 0
3978 1 22.643776778654395 14.159755070190824 10.197821437446612 -2 2 1
3352 1 1.802283653910797 16.819386792759058 9.757383282351883 2 1 0
3888 1 2.7394058855652412 19.13783028146973 9.55122710675297 1 -1 0
2178 1 6.945391384878891 17.82109541745493 9.196015035693202 1 0 0
3884 1 5.4352031538724255 19.924581630917576 10.032768439581996 1 0 0
5537 1 11.103858627569481 16.577239239334478 9.419091634664976 2 4 0
2190 1 9.290702332908564 18.337819685524156 10.179269428817403 -1 0 0
3401 1 13.657940514319707 17.256029713385725 10.172359498016123 1 -3 0
393 1 14.623066575886734 19.475639878278013 9.165076185837913 3 0 0
309 1 18.99955848637586 18.349632277049473 9.259249751398592 -1 2 0
3929 1 16.9943976435947 20.181068372481644 10.033731854808611 2 0 1
182 1 23.46064691526811 16.549119943246257 9.345088126545065 -3 -1 0
4971 1 21.40143534828455 18.445568836911526 10.139568574962162 -1 0 1
33 1 0.4200743627747391 21.308420594128272 10.402209143291342 1 0 0
5314 1 1.6812620588326626 23.866506119064507 9.259861042832476 1 -1 1
6421 1 6.134485756590762 22.36908575064834 9.291519596757729 1 2 1
1989 1 4.422539982157356 24.477076597119872 10.010000949648113 2 -1 0
2076 1 10.567050087109438 20.753942594162137 9.285746399154004 1 -1 0
3199 1 8.511318505850731 22.43303730427479 10.076669688478058 0 2 0
6471 1 13.836217910413843 23.380090935776117 9.363534024996822 2 0 0
2136 1 12.991647097877658 21.188693426512653 10.448361543420368 -1 1 0
2251 1 16.428961793419457 24.06038807629126 10.177747894630253 -2 -1 1
531 1 18.258531883239137 22.459699463471576 9.135428786793849 -1 -1 1
6476 1 22.844712303338348 20.595335744567574 9.300328589930794 2 -1 1
5487 1 21.095156153858817 22.696564237763695 9.736954989772173 0 0 0
505 1 1.2559098167711968 3.660038932315786 13.675188078440335 3 0 1
407 1 0.29972661426941727 1.2406622886259737 12.732460917353054 2 0 0
5581 1 5.488557350574312 2.434522375203508 13.990113473853473 1 0 0
5623 1 8.01459634417424 2.4760324132611524 12.524769097699156 -2 1 0
3068 1 9.849987664712991 0.8056547018799312 13.749579845172475 2 -1 1
3760 1 12.305081806494478 1.2486375562150642 12.90954804294404 1 2 0
3560 1 13.46215362537402 3.689098158037034 13.837193628165119 1 1 0
5445 1 16.073085834820972 3.9547098829427774 12.984222642265522 2 -1 0
2134 1 17.82872616175192 2.2843390190903348 13.848168076609701 1 2 0
6553 1 20.383538120640107 2.877823786545332 12.945545389160424 0 -1 1
4917 1 21.95816814941448 0.9905919535161238 14.018992864232027 2 3 1
6620 1 24.568816216956602 1.4570978717077994 12.980676907623824 3 1 0
3942 1 0.6630452682504309 7.85273898740823 13.655653740202393 -1 2 1
1813 1 3.814530114618722 4.308109147903172 12.992166277862568 1 -3 0
5161 1 4.774002586777397 6.784751967824755 13.838214189001143 1 1 0
6359 1 7.3062099807616185 7.196672482423345 12.632215253232719 0 2 1
4766 1 8.931388251839664 4.705956070915399 13.929519042924106 2 2 1
6487 1 11.440523844841856 5.576244631779242 12.97644410828532 -1 -3 1
501 1 12.518011493050082 7.797795008713143 13.813253764295032 -2 0 0
4932 1 17.27539090825393 6.515301136857574 13.640459355907021 1 -3 0
287 1 19.656940548402844 7.244066065826543 12.750314932054247 1 2 0
1875 1 24.168091730770488 5.74010987969759 12.97584252550462 3 0 0
2182 1 21.39758660727481 5.258215854021512 13.60340714087586 -1 4 0
3131 1 3.154591968691544 8.735337916541829 12.749665624928552 4 1 1
161 1 4.195525584014991 10.964124633162617 13.862991926262117 -1 -2 0
5603 1 6.816669449527825 11.474777812978385 12.897525800955805 2 2 0
3163 1 8.601935903556313 9.542879192107595 13.47186867015517 -1 2 1
1404 1 11.045502054661132 9.833552260148938 12.568753607582577 2 1 1
30 1 12.154875683923809 12.138235621910372 13.382511272175316 -2 -1 0
6692 1 15.21668401889691 8.352658866130934 13.083401485029029 2 3 0
5139 1 16.23592000876725 11.025569404577613 13.263324308318264 -2 0 0
1984 1 18.84328206859758 11.4391712321898 12.82635998518265 1 -1 1
1654 1 20.617228707931563 9.614479495309512 13.772930015790644 1 2 1
454 1 23.50818157193019 10.042561200561172 13.225896864307243 0 -1 0
6453 1 2.391295994687459 12.849806051016854 13.0637069229064 -2 2 1
3870 1 3.4614524387051473 15.373418917857226 13.762805859657316 1 -1 1
406 1 5.9376377804377 15.66890870207361 12.854086328245971 3 0 0
3207 1 7.7965797218779755 14.182524582625913 13.862862300518046 -3 0 1
504 1 10.314179623335328 14.27079617470821 13.27908926269045 3 1 1
3162 1 14.32026923351686 12.978706661697723 12.552716023564395 -1 0 1
3418 1 15.60583046074583 15.312028923879987 13.58308291796204 0 0 0
5277 1 18.20299010123361 15.97274567447556 12.470235341062825 -1 -1 0
6356 1 19.74269596097503 13.775534955648423 13.529805506337036 1 1 1
3134 1 22.58236223532239 14.18889098155596 12.892687386692849 -1 -2 1
6368 1 1.5009443312125528 16.947293138940246 12.390353309960439 3 2 1
1621 1 2.200203244807322 19.41849018140461 13.666735751341639 2 -1 1
3654 1 5.100980643454866 19.767307476196624 12.922690705319805 2 3 0
3751 1 7.181584159791877 17.846791257350517 13.840795249342575 3 -1 0
6429 1 11.64110540479361 16.65757690003636 13.83238597996449 1 1 1
153 1 9.586474831095344 18.18904774941424 12.803602940062607 -1 0 0
5496 1 13.882792635567581 17.21965696851047 12.879073387926129 2 3 1
4767 1 14.589143862617696 19.756339284641307 13.593568043083424 2 0 1
5091 1 19.16842804398871 18.239476530545634 13.389039655171315 -3 5 0
128 1 17.22438945735696 20.12850716782108 12.676535766015485 1 -1 1
2241 1 23.677761705264647 16.723444306995816 13.519573886469585 1 0 1
5142 1 21.721037122426267 18.92684817580702 12.716490225847602 -1 0 0
3703 1 0.7060777697649583 21.601603556491277 12.988337297396209 2 0 0
1473 1 1.9493377243635814 23.853984490008315 13.596724069014245 2 0 1
3820 1 4.522189685740718 24.12979837114087 12.61310336820314 -1 2 0
4785 1 6.107004051347364 22.300452507707718 13.6426346924254 0 4 1
3573 1 8.838269493433579 22.71677047177583 12.843741421545866 -2 0 0
1986 1 10.50893635058884 20.472666237622757 13.9518835493752 2 -1 0
1459 1 14.078548252210322 23.819300364314913 13.994974482741144 0 0 0
4931 1 12.818774891027529 21.517206298635465 13.15714861168622 1 0 1
5102 1 16.668344416196142 23.975610467931226 12.786739404357553 1 0 0
6474 1 18.484114010690924 22.191283664612303 13.592654041363755 3 0 1
6383 1 23.223664733108688 21.21874615159788 13.521858164723033 0 -1 1
5188 1 21.032531173915576 22.53779072985805 12.630916107771764 -1 1 0
126 1 1.2302210350933707 3.534011164050257 16.348051180570074 3 1 0
4939 1 4.128698455093389 4.022437425845707 19.758983742235397 1 -1 1
3411 1 5.404436970553048 2.2604865307212036 16.570048135343797 -1 0 0
3127 1 7.951234785950636 2.2929108345358125 17.34047024525264 0 2 1
3665 1 9.507829644705852 0.5905109545360236 16.20548637726448 2 2 0
226 1 12.004369562378018 1.2798892794849726 17.206107492436125 0 1 0
24 1 13.138960038468824 3.6123625988244386 16.496836958497248 1 -1 0
1309 1 15.765331620786966 4.12459700515339 17.46312738313486 1 1 1
4755 1 16.7547419227851 0.3458684331540951 19.704036168094053 1 1 1
4929 1 17.988870222510585 2.6068970391280986 16.710016732538964 -1 -1 1
1922 1 20.59449918152218 2.9838638876549766 17.58511280891968 2 1 0
547 1 22.344001334087526 1.15670694436538 16.61555700249872 1 0 1
338 1 4.0134845783232524 4.2712159490185595 17.20186995694272 -3 0 0
3525 1 2.86233536601476 8.233378245909615 17.26595984036067 0 2 0
1648 1 0.424541520514211 8.234217493739823 16.287377998230525 1 1 1
5420 1 4.928518464053709 6.748801421929214 16.31053483396036 2 0 0
2085 1 7.487607974273658 6.841778650085126 17.304676133191016 0 0 0
3523 1 6.983428006989999 7.020786508091403 19.846578451548684 -3 2 1
6653 1 9.00300876720637 4.7035735435407675 16.506220919116437 -1 2 1
5266 1 11.439313598341373 5.450605706143887 17.34074992970588 0 1 0
4891 1 12.74649361036221 7.774235243422336 16.309601417161048 1 2 1
2239 1 16.907194583256867 6.463260606051695 16.570067723810773 1 2 0
4890 1 19.406872267298994 6.787703501691729 17.391265418816687 -1 -3 1
343 1 23.911852186083653 5.705473217862888 17.501659891433 0 -1 0
2043 1 21.4929094700583 5.375058018749986 16.48319433221149 0 1 0
3961 1 4.162453063126431 10.738803384754174 16.538903306967324 1 3 1
1499 1 6.84417367420582 11.480201540901126 17.203009923639563 -1 0 1
5600 1 8.516150465757368 9.280012813348495 16.14803786069936 1 2 0
465 1 10.757249322797062 9.539957866911148 16.988637734547897 0 1 0
1503 1 10.776259106155363 9.922111701688413 19.637177809313584 0 0 1
1906 1 11.759072638683344 12.00614498064441 16.190463068427746 -1 -1 1
5520 1 15.318388148150355 8.448436792230298 16.995794069670776 3 0 0
5627 1 15.457780808742676 8.631755305581777 19.648603827894025 -3 -3 0
4957 1 16.557126023806333 10.611333427370164 16.089121935340888 0 0 0
401 1 19.039713014765034 11.191411789467836 17.134741161005326 0 0 0
611 1 20.640292986709714 9.174681447559998 16.43225374693358 2 1 1
2240 1 23.108456308988682 10.124674088555603 17.19927747838023 1 2 1
4788 1 22.95230850047834 10.058675298417239 19.870683370317135 3 1 1
2181 1 2.3377130618183424 12.83428509614207 17.156305369342586 4 1 0
4849 1 3.550903885075113 15.13588828746596 16.434859915404243 0 0 1
6682 1 2.4368157988059376 12.861052277972442 19.874923126755455 -1 -1 0
3104 1 7.636063967622608 13.879880493799636 16.526686759606594 -1 1 1
3617 1 5.936955358214582 15.444382338762152 17.43676537552711 3 2 1
6720 1 9.97904376883979 14.188892540372004 19.812253402417863 1 2 0
478 1 10.406977523723024 14.079932904126206 17.066095273634502 -1 3 0
5658 1 14.351794703578744 12.576089187722266 19.72305775099322 3 2 1
3821 1 14.390998818129173 12.39664665186558 16.9160377976784 4 0 0
1839 1 15.437003735428279 15.15464260264023 16.41250361223825 0 0 0
420 1 19.864911307457586 13.719306346995925 16.221385399512844 0 2 0
6696 1 18.01925341221873 15.501190386193958 17.008002612445917 1 0 1
3562 1 17.928256935699267 15.69824008802366 19.733468521465767 2 2 0
2192 1 22.664415579376048 14.315921127009595 19.72302997651492 -1 2 0
2212 1 22.759313289411036 14.116397299252675 16.803888505154454 1 0 1
2004 1 2.8181418035211654 19.226382292840295 16.51589725953191 -2 4 0
6509 1 1.8900451104543692 16.880652718280192 17.534361952977235 -1 2 1
52 1 5.1643381247347255 20.076175728127524 17.49262485100032 1 2 0
1607 1 7.06823490914376 17.875762000001753 16.558803120893252 -2 2 0
5552 1 9.62844039082175 18.30479487945558 17.149186343702226 -1 -1 1
456 1 11.476249422989524 16.51620653805768 16.40344770501205 0 2 0
1947 1 9.188964578277306 18.238787190416648 19.773424723391635 -2 2 0
5586 1 14.79142170811366 19.243164194394243 16.17316820635929 3 -1 1
2329 1 13.99860047351565 16.95820414645618 17.481768073063478 -3 0 1
6527 1 17.411102276428 19.832925543073937 17.25984893018659 0 5 1
3832 1 19.085798661913675 17.947396171622103 16.20296110122807 1 2 0
6654 1 17.374279442558908 20.011647388728708 19.803609905232562 1 0 1
3273 1 21.819203442354144 18.58869535315727 16.90780027546787 -4 1 1
4824 1 23.575869490536626 16.636906774349207 16.067174973738485 0 3 1
2272 1 21.674675262860067 18.366003396964302 19.813984160162995 -1 -2 1
1881 1 2.228047746747796 23.77208370742325 16.382981845926352 -1 2 0
167 1 1.0927675383888533 21.283418793038166 17.09101741078035 -1 0 0
5124 1 0.8540395562482066 21.0008073236783 19.77956666905961 2 3 1
3933 1 4.639491952072384 24.266429696926764 17.4855208345295 0 1 1
4878 1 6.225146072320027 22.19840261817762 16.245825263982454 2 0 1
3781 1 10.802780192168111 20.626733668800618 16.405522686409657 0 -1 0
1952 1 8.97428429719062 22.533234310455562 17.175882262704903 0 -1 0
3478 1 8.575608283735034 22.594773729991353 19.773310741730963 -3 -1 0
3701 1 13.212485325551942 21.423604049646144 17.303704845815034 1 -1 0
5352 1 14.182264413450527 23.885629528124216 16.72556741803211 0 0 0
3319 1 13.122405484652266 21.332599673876025 19.914651760189017 1 -1 0
6699 1 16.881446319555028 24.1056502803028 17.380629375074896 3 1 1
4851 1 18.59145950403816 22.11804353730592 16.356263000256114 0 3 1
3170 1 21.184919463864365 22.87860511227045 17.021846145700415 -1 -2 0
353 1 21.212651526643985 23.01806220105496 19.922457319357893 0 -1 0
2088 1 22.86908228689376 21.04216836708378 16.285134118999782 -1 0 0
1347 1 2.7941628491287047 1.6175520536695531 23.606797715471313 3 0 1
3333 1 2.556709111886548 1.7652273335141715 20.7610301930316 2 -1 1
5157 1 8.047665722503627 2.4095226496428657 23.53629941752462 0 1 0
1758 1 6.91422530071252 0.2197950885220621 22.946041420021924 2 2 1
3484 1 8.300469206203895 2.7264979738128816 20.040629242868683 -1 1 0
3275 1 10.69959516424814 3.3368720867110273 20.97325479993903 0 2 1
1908 1 10.523820130629112 3.2360330143192324 23.383898346800635 -1 -1 1
5150 1 12.07119268199443 1.3684184477313186 20.14356481951983 3 3 0
5258 1 14.88990449932685 1.960490563955615 23.700531023923347 -1 0 0
3029 1 14.775360461523992 1.8637563578616263 21.06502506412011 1 2 1
2333 1 16.043354341042175 4.195750636429963 20.29928054389661 2 1 1
3902 1 20.40998682539578 2.839129978864427 20.19938936433089 4 0 0
5265 1 19.07943891818953 0.5323548521571697 20.708922375619977 0 -1 1
3678 1 19.641594779778504 0.6689992903406565 23.536376241076315 3 2 1
1894 1 23.1455632898964 3.3184654776208573 23.850219125680688 -2 -1 0
6624 1 23.1876057073708 3.383572308496302 21.06689447489005 2 1 1
2172 1 2.22246926107872 5.927251094647298 20.459594935409 -1 1 1
305 1 2.024949154287765 5.802798606661248 23.337484908986514 0 -1 0
6627 1 6.581450584542317 4.411781321478106 20.78196324064589 -2 4 0
299 1 6.3866128599465455 4.418156749229131 23.44924735683021 2 -1 0
271 1 9.655667270289978 7.530018693255204 20.532363137346227 -3 1 0
477 1 9.852901778036626 7.420119084563734 23.085746036326228 1 2 0
5342 1 11.561362438449235 5.640573332800741 19.982513360689996 1 -1 0
2269 1 16.044143793052058 4.283365341368 23.58386179396137 0 -1 1
2112 1 14.422254516793434 6.340616231416774 23.14998115395712 1 0 0
6698 1 14.364528096812895 6.107910368985651 20.509436903609142 -3 3 1
6673 1 18.635161658779047 4.956601106839504 21.059221470355606 -1 -1 1
446 1 18.773380922416436 4.983285201133044 23.69759187080323 0 0 0
5327 1 19.907305195798394 7.465970906594935 23.64957810300094 0 -2 0
6585 1 19.39562427574977 7.354281208057827 20.05688125798972 -1 0 1
4811 1 22.157504022870725 7.685904215022855 20.63027415168199 0 1 1
3317 1 22.48342600428176 8.087695900131724 23.047967740764832 -2 -1 1
3061 1 24.096449810062463 6.017175969362431 23.643373228805217 1 4 1
2201 1 24.002141030108344 5.747075679958618 20.34511522582854 -2 -1 1
3001 1 1.318469827210543 10.318130460470945 23.674019695399615 2 2 1
4813 1 1.5328322233014922 10.498718535922228 20.96709497512636 -1 2 1
6605 1 2.9760785764874353 8.36574018240304 20.033077675761135 2 0 0
5184 1 5.387349435042082 8.958002276755813 23.581724020023334 0 3 0
3532 1 5.59242256004988 9.126149975431774 20.763105633279096 1 1 0
3177 1 6.508564758465836 11.532135234839911 23.93493067188662 -1 -1 1
1577 1 6.437967194958689 11.73311466036119 19.995946489011768 0 -1 1
5320 1 9.23850722185561 11.775600753652714 23.51637416630889 0 -1 0
3379 1 9.177956469606173 11.730016347540218 20.68499727477399 1 -2 1
4953 1 10.998111650185935 9.72904463182853 23.8974789255763 1 1 0
3280 1 13.370740909359295 10.33309429925788 20.552644993150373 -1 -1 1
3279 1 13.898057388705727 10.230385294318234 23.246003914418527 1 3 1
2052 1 17.928310879982895 9.250058833593824 23.64799419718509 -2 0 0
274 1 17.659998857956566 9.294760212406409 21.039081765145596 1 1 0
1704 1 18.81523883027152 11.468695375557399 19.982068801500624 -1 3 0
3856 1 21.634145868649824 12.1433930020873 20.68589059643325 -1 0 0
1865 1 0.36506176552782044 14.246239672342755 23.695685024023017 -2 1 0
360 1 0.8394565887460154 14.601879492040144 21.045475277983776 2 -1 0
2321 1 4.747681973987258 13.481134443213751 23.40925594776794 1 2 1
1571 1 4.807642112135123 13.666221629585896 20.92708001521881 0 -2 1
6637 1 5.858231644603186 16.015847340187957 23.938858010754664 -1 0 0
4761 1 5.95539540579414 15.944576529001584 20.179082722971767 3 -3 1
6731 1 8.543665400879318 15.988630339233895 20.694450595348336 4 0 1
1547 1 8.548039510956627 16.16603670385346 23.660517535951243 0 2 0
3353 1 12.696338966225266 14.422188811419806 20.707767906516295 1 3 1
5358 1 13.10482252178767 14.409789467325096 23.372975429978805 0 2 0
6402 1 17.04786696582804 13.325892962687986 20.509866151543257 -2 3 1