LAMMPS data file via write_data, version 16 Mar 2018, timestep = 100000

5031 atoms
2 atom types

0.0000000000000000e+00 4.9219999999999999e+01 xlo xhi
0.0000000000000000e+00 4.9019635930410494e+01 ylo yhi
1.1412116898509375e+00 3.8858788310150466e+01 zlo zhi

Masses

1 18.015
2 12.01

Atoms # atomic

140 2 0.0000000000000000e+00 2.8417180249513345e+00 3.1601213798064758e+00 0 0 0
142 2 0.0000000000000000e+00 0.0000000000000000e+00 3.1601213798064758e+00 0 0 0
144 2 1.2305000000000001e+00 7.1042950623783474e-01 3.1601213798064758e+00 0 0 0
151 2 1.2305000000000001e+00 2.1312885187134998e+00 3.1601213798064758e+00 0 0 0
153 2 2.4610000000000003e+00 2.8417180249513345e+00 3.1601213798064758e+00 0 0 0
155 2 2.4610000000000003e+00 0.0000000000000000e+00 3.1601213798064758e+00 0 0 0
157 2 3.6915000000000004e+00 7.1042950623783474e-01 3.1601213798064758e+00 0 0 0
172 2 3.6914999999999996e+00 2.1312885187134998e+00 3.1601213798064758e+00 0 0 0
174 2 4.9220000000000006e+00 2.8417180249513332e+00 3.1601213798064758e+00 0 0 0
176 2 4.9220000000000006e+00 0.0000000000000000e+00 3.1601213798064758e+00 0 0 0
178 2 6.1524999999999999e+00 7.1042950623783407e-01 3.1601213798064758e+00 0 0 0
201 2 6.1524999999999999e+00 2.1312885187134989e+00 3.1601213798064758e+00 0 0 0
203 2 7.3829999999999991e+00 2.8417180249513345e+00 3.1601213798064758e+00 0 0 0
205 2 7.3829999999999991e+00 0.0000000000000000e+00 3.1601213798064758e+00 0 0 0
207 2 8.6134999999999984e+00 7.1042950623783407e-01 3.1601213798064758e+00 0 0 0
238 2 8.6134999999999984e+00 2.1312885187135002e+00 3.1601213798064758e+00 0 0 0
147 2 0.0000000000000000e+00 4.2625770374269996e+00 3.1601213798064758e+00 0 0 0
149 2 1.2305000000000001e+00 4.9730065436648339e+00 3.1601213798064758e+00 0 0 0
164 2 1.2305000000000001e+00 6.3938655561404980e+00 3.1601213798064758e+00 0 0 0
168 2 2.4610000000000003e+00 4.2625770374269996e+00 3.1601213798064758e+00 0 0 0
170 2 3.6914999999999996e+00 4.9730065436648339e+00 3.1601213798064758e+00 0 0 0
193 2 3.6914999999999996e+00 6.3938655561404980e+00 3.1601213798064758e+00 0 0 0
145 2 0.0000000000000000e+00 7.1042950623783341e+00 3.1601213798064758e+00 0 0 0
166 2 2.4610000000000003e+00 7.1042950623783341e+00 3.1601213798064758e+00 0 0 0
197 2 4.9220000000000006e+00 4.2625770374269978e+00 3.1601213798064758e+00 0 0 0
199 2 6.1524999999999999e+00 4.9730065436648339e+00 3.1601213798064758e+00 0 0 0
230 2 6.1524999999999999e+00 6.3938655561404980e+00 3.1601213798064758e+00 0 0 0
234 2 7.3829999999999991e+00 4.2625770374269996e+00 3.1601213798064758e+00 0 0 0
236 2 8.6135000000000002e+00 4.9730065436648339e+00 3.1601213798064758e+00 0 0 0
275 2 8.6135000000000002e+00 6.3938655561404980e+00 3.1601213798064758e+00 0 0 0
195 2 4.9220000000000006e+00 7.1042950623783341e+00 3.1601213798064758e+00 0 0 0
232 2 7.3830000000000009e+00 7.1042950623783341e+00 3.1601213798064758e+00 0 0 0
160 2 0.0000000000000000e+00 8.5251540748539991e+00 3.1601213798064758e+00 0 0 0
162 2 1.2305000000000001e+00 9.2355835810918343e+00 3.1601213798064758e+00 0 0 0
189 2 2.4610000000000003e+00 8.5251540748539991e+00 3.1601213798064758e+00 0 0 0
191 2 3.6915000000000004e+00 9.2355835810918343e+00 3.1601213798064758e+00 0 0 0
158 2 0.0000000000000000e+00 1.1366872099805333e+01 3.1601213798064758e+00 0 0 0
185 2 1.2305000000000001e+00 1.0656442593567498e+01 3.1601213798064758e+00 0 0 0
187 2 2.4610000000000003e+00 1.1366872099805333e+01 3.1601213798064758e+00 0 0 0
222 2 3.6914999999999996e+00 1.0656442593567499e+01 3.1601213798064758e+00 0 0 0
226 2 4.9220000000000006e+00 8.5251540748539991e+00 3.1601213798064758e+00 0 0 0
228 2 6.1524999999999999e+00 9.2355835810918343e+00 3.1601213798064758e+00 0 0 0
271 2 7.3830000000000009e+00 8.5251540748539991e+00 3.1601213798064758e+00 0 0 0
273 2 8.6134999999999984e+00 9.2355835810918343e+00 3.1601213798064758e+00 0 0 0
224 2 4.9220000000000006e+00 1.1366872099805333e+01 3.1601213798064758e+00 0 0 0
267 2 6.1524999999999999e+00 1.0656442593567499e+01 3.1601213798064758e+00 0 0 0
269 2 7.3829999999999991e+00 1.1366872099805333e+01 3.1601213798064758e+00 0 0 0
314 2 8.6134999999999984e+00 1.0656442593567498e+01 3.1601213798064758e+00 0 0 0
141 2 0.0000000000000000e+00 1.4208590124756650e+00 6.2426380469531253e+00 0 0 0
143 2 0.0000000000000000e+00 0.0000000000000000e+00 6.2426380469531253e+00 0 0 0
152 2 1.2305000000000001e+00 2.1312885187134998e+00 6.2426380469531253e+00 0 0 0
154 2 2.4610000000000003e+00 1.4208590124756650e+00 6.2426380469531253e+00 0 0 0
156 2 2.4610000000000003e+00 0.0000000000000000e+00 6.2426380469531253e+00 0 0 0
173 2 3.6914999999999996e+00 2.1312885187134998e+00 6.2426380469531253e+00 0 0 0
150 2 1.2305000000000001e+00 3.5521475311891644e+00 6.2426380469531253e+00 0 0 0
171 2 3.6914999999999996e+00 3.5521475311891644e+00 6.2426380469531253e+00 0 0 0
469 2 0.0000000000000000e+00 2.8417180249513345e+00 9.3251547140999289e+00 0 0 0
470 2 0.0000000000000000e+00 0.0000000000000000e+00 9.3251547140999289e+00 0 0 0
471 2 1.2305000000000001e+00 7.1042950623783474e-01 9.3251547140999289e+00 0 0 0
475 2 1.2305000000000001e+00 2.1312885187134998e+00 9.3251547140999289e+00 0 0 0
476 2 2.4610000000000003e+00 2.8417180249513345e+00 9.3251547140999289e+00 0 0 0
477 2 2.4610000000000003e+00 0.0000000000000000e+00 9.3251547140999289e+00 0 0 0
478 2 3.6915000000000004e+00 7.1042950623783474e-01 9.3251547140999289e+00 0 0 0
486 2 3.6914999999999996e+00 2.1312885187134998e+00 9.3251547140999289e+00 0 0 0
175 2 4.9220000000000006e+00 1.4208590124756650e+00 6.2426380469531253e+00 0 0 0
177 2 4.9220000000000006e+00 0.0000000000000000e+00 6.2426380469531253e+00 0 0 0
202 2 6.1524999999999999e+00 2.1312885187134989e+00 6.2426380469531253e+00 0 0 0
204 2 7.3829999999999991e+00 1.4208590124756659e+00 6.2426380469531253e+00 0 0 0
206 2 7.3829999999999991e+00 0.0000000000000000e+00 6.2426380469531253e+00 0 0 0
239 2 8.6134999999999984e+00 2.1312885187135002e+00 6.2426380469531253e+00 0 0 0
200 2 6.1524999999999999e+00 3.5521475311891644e+00 6.2426380469531253e+00 0 0 0
237 2 8.6134999999999984e+00 3.5521475311891657e+00 6.2426380469531253e+00 0 0 0
487 2 4.9220000000000006e+00 2.8417180249513332e+00 9.3251547140999289e+00 0 0 0
488 2 4.9220000000000006e+00 0.0000000000000000e+00 9.3251547140999289e+00 0 0 0
489 2 6.1524999999999999e+00 7.1042950623783407e-01 9.3251547140999289e+00 0 0 0
501 2 6.1524999999999999e+00 2.1312885187134989e+00 9.3251547140999289e+00 0 0 0
502 2 7.3829999999999991e+00 2.8417180249513345e+00 9.3251547140999289e+00 0 0 0
503 2 7.3829999999999991e+00 0.0000000000000000e+00 9.3251547140999289e+00 0 0 0
504 2 8.6134999999999984e+00 7.1042950623783407e-01 9.3251547140999289e+00 0 0 0
520 2 8.6134999999999984e+00 2.1312885187135002e+00 9.3251547140999289e+00 0 0 0
146 2 0.0000000000000000e+00 5.6834360499026637e+00 6.2426380469531253e+00 0 0 0
148 2 0.0000000000000000e+00 4.2625770374269996e+00 6.2426380469531253e+00 0 0 0
165 2 1.2305000000000001e+00 6.3938655561404980e+00 6.2426380469531253e+00 0 0 0
167 2 2.4610000000000003e+00 5.6834360499026637e+00 6.2426380469531253e+00 0 0 0
169 2 2.4610000000000003e+00 4.2625770374269996e+00 6.2426380469531253e+00 0 0 0
194 2 3.6914999999999996e+00 6.3938655561404980e+00 6.2426380469531253e+00 0 0 0
163 2 1.2305000000000001e+00 7.8147245686161639e+00 6.2426380469531253e+00 0 0 0
192 2 3.6914999999999996e+00 7.8147245686161639e+00 6.2426380469531253e+00 0 0 0
473 2 0.0000000000000000e+00 4.2625770374269996e+00 9.3251547140999289e+00 0 0 0
474 2 1.2305000000000001e+00 4.9730065436648339e+00 9.3251547140999289e+00 0 0 0
482 2 1.2305000000000001e+00 6.3938655561404980e+00 9.3251547140999289e+00 0 0 0
484 2 2.4610000000000003e+00 4.2625770374269996e+00 9.3251547140999289e+00 0 0 0
485 2 3.6914999999999996e+00 4.9730065436648339e+00 9.3251547140999289e+00 0 0 0
497 2 3.6914999999999996e+00 6.3938655561404980e+00 9.3251547140999289e+00 0 0 0
472 2 0.0000000000000000e+00 7.1042950623783341e+00 9.3251547140999289e+00 0 0 0
483 2 2.4610000000000003e+00 7.1042950623783341e+00 9.3251547140999289e+00 0 0 0
196 2 4.9220000000000006e+00 5.6834360499026637e+00 6.2426380469531253e+00 0 0 0
198 2 4.9220000000000006e+00 4.2625770374269978e+00 6.2426380469531253e+00 0 0 0
231 2 6.1524999999999999e+00 6.3938655561404980e+00 6.2426380469531253e+00 0 0 0
233 2 7.3829999999999991e+00 5.6834360499026637e+00 6.2426380469531253e+00 0 0 0
235 2 7.3829999999999991e+00 4.2625770374269996e+00 6.2426380469531253e+00 0 0 0
276 2 8.6135000000000002e+00 6.3938655561404980e+00 6.2426380469531253e+00 0 0 0
229 2 6.1524999999999999e+00 7.8147245686161639e+00 6.2426380469531253e+00 0 0 0
274 2 8.6135000000000002e+00 7.8147245686161639e+00 6.2426380469531253e+00 0 0 0
499 2 4.9220000000000006e+00 4.2625770374269978e+00 9.3251547140999289e+00 0 0 0
500 2 6.1524999999999999e+00 4.9730065436648339e+00 9.3251547140999289e+00 0 0 0
516 2 6.1524999999999999e+00 6.3938655561404980e+00 9.3251547140999289e+00 0 0 0
518 2 7.3829999999999991e+00 4.2625770374269996e+00 9.3251547140999289e+00 0 0 0
519 2 8.6135000000000002e+00 4.9730065436648339e+00 9.3251547140999289e+00 0 0 0
539 2 8.6135000000000002e+00 6.3938655561404980e+00 9.3251547140999289e+00 0 0 0
498 2 4.9220000000000006e+00 7.1042950623783341e+00 9.3251547140999289e+00 0 0 0
517 2 7.3830000000000009e+00 7.1042950623783341e+00 9.3251547140999289e+00 0 0 0
159 2 0.0000000000000000e+00 9.9460130873296642e+00 6.2426380469531253e+00 0 0 0
161 2 0.0000000000000000e+00 8.5251540748539991e+00 6.2426380469531253e+00 0 0 0
188 2 2.4610000000000003e+00 9.9460130873296642e+00 6.2426380469531253e+00 0 0 0
190 2 2.4610000000000003e+00 8.5251540748539991e+00 6.2426380469531253e+00 0 0 0
184 2 1.2305000000000001e+00 1.2077301606043163e+01 6.2426380469531253e+00 0 0 0
186 2 1.2305000000000001e+00 1.0656442593567498e+01 6.2426380469531253e+00 0 0 0
221 2 3.6914999999999996e+00 1.2077301606043163e+01 6.2426380469531253e+00 0 0 0
223 2 3.6914999999999996e+00 1.0656442593567499e+01 6.2426380469531253e+00 0 0 0
480 2 0.0000000000000000e+00 8.5251540748539991e+00 9.3251547140999289e+00 0 0 0
481 2 1.2305000000000001e+00 9.2355835810918343e+00 9.3251547140999289e+00 0 0 0
495 2 2.4610000000000003e+00 8.5251540748539991e+00 9.3251547140999289e+00 0 0 0
496 2 3.6915000000000004e+00 9.2355835810918343e+00 9.3251547140999289e+00 0 0 0
479 2 0.0000000000000000e+00 1.1366872099805333e+01 9.3251547140999289e+00 0 0 0
493 2 1.2305000000000001e+00 1.0656442593567498e+01 9.3251547140999289e+00 0 0 0
494 2 2.4610000000000003e+00 1.1366872099805333e+01 9.3251547140999289e+00 0 0 0
512 2 3.6914999999999996e+00 1.0656442593567499e+01 9.3251547140999289e+00 0 0 0
536 2 7.3829999999999991e+00 1.1366872099805333e+01 9.3251547140999289e+00 0 0 0
559 2 8.6134999999999984e+00 1.0656442593567498e+01 9.3251547140999289e+00 0 0 0
225 2 4.9220000000000006e+00 9.9460130873296642e+00 6.2426380469531253e+00 0 0 0
227 2 4.9220000000000006e+00 8.5251540748539991e+00 6.2426380469531253e+00 0 0 0
270 2 7.3830000000000009e+00 9.9460130873296642e+00 6.2426380469531253e+00 0 0 0
272 2 7.3830000000000009e+00 8.5251540748539991e+00 6.2426380469531253e+00 0 0 0
266 2 6.1524999999999999e+00 1.2077301606043163e+01 6.2426380469531253e+00 0 0 0
268 2 6.1524999999999999e+00 1.0656442593567499e+01 6.2426380469531253e+00 0 0 0
313 2 8.6135000000000002e+00 1.2077301606043163e+01 6.2426380469531253e+00 0 0 0
315 2 8.6134999999999984e+00 1.0656442593567498e+01 6.2426380469531253e+00 0 0 0
514 2 4.9220000000000006e+00 8.5251540748539991e+00 9.3251547140999289e+00 0 0 0
515 2 6.1524999999999999e+00 9.2355835810918343e+00 9.3251547140999289e+00 0 0 0
537 2 7.3830000000000009e+00 8.5251540748539991e+00 9.3251547140999289e+00 0 0 0
538 2 8.6134999999999984e+00 9.2355835810918343e+00 9.3251547140999289e+00 0 0 0
513 2 4.9220000000000006e+00 1.1366872099805333e+01 9.3251547140999289e+00 0 0 0
535 2 6.1524999999999999e+00 1.0656442593567499e+01 9.3251547140999289e+00 0 0 0
111 1 4.1341297355817179e+00 5.4065008893808590e+00 1.5071119559078761e+01 0 0 0
4133 1 1.2499725113115221e+00 2.3028278770949417e+00 1.2055694327374118e+01 0 1 0
4034 1 2.1369960751134345e+00 1.0221969731273498e+01 1.5259613076714299e+01 0 1 0
3415 1 5.3810336013231908e+00 2.3574100596004777e+00 1.1221754698049462e+01 1 0 0
971 1 8.0909464250596432e+00 4.0477976580609942e+00 1.5231950390913694e+01 0 1 0
97 1 2.2804009079879770e+00 7.0652631385994713e+00 1.1972141446192705e+01 1 1 0
2548 1 5.0488971022052596e+00 6.6957767358360591e+00 1.2109270927012798e+01 0 1 0
2622 1 3.7062058763923456e+00 6.4645234422281705e-01 1.2186502762293374e+01 1 1 0
4351 1 8.8205870553355972e+00 7.3739472814218479e+00 1.6278396664360049e+01 1 0 1
3166 1 5.8510165246287569e+00 7.1270147468723710e+00 1.6264744828637262e+01 0 1 0
1696 1 6.7775015764863449e+00 4.5651812966733587e+00 1.2874563816686532e+01 1 1 0
4925 1 6.3731757377758258e-01 3.2928116614470442e+00 1.4740459696560709e+01 1 1 0
4876 1 1.2413037933254780e+00 6.1713583387399558e+00 1.4286407959988788e+01 0 0 0
4217 1 3.6822564803846678e+00 1.1256243316354057e+01 1.1492091052188318e+01 1 0 0
4199 1 1.4774871132983161e+00 9.7241703538270450e+00 1.2518909730604530e+01 0 0 -1
133 1 8.9676140600284562e+00 5.8293827044896345e+00 1.1811339893500554e+01 1 0 0
4041 1 5.1198656505727129e+00 9.5865085038395570e+00 1.4876170736914901e+01 0 0 -1
1744 1 5.5583464950997383e+00 9.4679518179244884e+00 1.2220267818506583e+01 1 0 0
4310 1 8.2464817518597986e+00 1.0183514090101143e+01 1.1782396577244088e+01 0 0 0
4153 1 6.3659337124432138e+00 1.1581066499626431e+01 1.6328921529008518e+01 0 1 0
84 1 8.1414026183456514e+00 9.9054798151319527e+00 1.7387192275003336e+01 1 1 1
686 1 1.8946535470995578e+00 2.4167468250522823e+00 1.7499151258834988e+01 2 0 0
2480 1 3.1792220250204810e+00 9.6914877278998119e+00 1.8212995638652693e+01 0 1 0
43 1 8.0762553888946709e+00 1.5783060694568476e+00 1.6981880882290444e+01 -1 1 0
3971 1 6.2115288114153948e+00 2.6193416002109786e+00 1.8898967950590109e+01 1 1 0
4131 1 4.7955609682278793e+00 7.3343037020375341e+00 1.8828826982349330e+01 1 1 0
4280 1 6.3677347008567278e+00 7.3456118987572427e-01 1.4804475952886598e+01 1 0 0
3194 1 3.9766339267050350e+00 4.1727317543080504e+00 1.7899741151824077e+01 1 0 0
1852 1 7.8277417722371361e+00 4.9448323974792867e+00 1.8116291473245209e+01 2 0 1
4778 1 1.6903468727709539e+00 7.5203493788521083e+00 1.9645816730811816e+01 1 0 0
12 1 3.6029152993744158e+00 2.3294197636846179e+00 1.4733482078383949e+01 1 0 0
3477 1 2.1092235891354969e+00 3.0571137908090162e-01 1.9624681467668349e+01 1 1 0
3414 1 5.0317691573914036e+00 1.1504864507150613e+01 1.9016129082700445e+01 1 0 1
1562 1 7.1650474472794938e+00 8.6055995354916126e-01 1.2318640676274740e+01 0 0 -1
1623 1 5.4580659132826490e+00 2.9847875990657009e+00 2.8585760480412915e+01 1 0 -1
3481 1 2.1446488904779670e+00 9.1389696459296221e+00 2.1702968128883448e+01 1 0 0
4858 1 2.4209068687705879e+00 4.7702654950135646e+00 2.0472909150816175e+01 -1 0 0
4356 1 4.5430680762666853e+00 2.7033845670049494e+00 2.4502298884251626e+01 0 2 0
941 1 8.2707522883761158e+00 9.2199378109672754e+00 2.0303373015545294e+01 1 1 1
1001 1 5.3086663936470568e+00 1.2020442727214135e+01 2.1725896662843372e+01 1 1 0
4966 1 6.5588655298739162e+00 1.0742632552623251e+01 2.5482880766881046e+01 -1 0 -1
131 1 7.5415664069624118e+00 4.2524452599493658e+00 2.5330331862763877e+01 -1 0 0
2324 1 4.4431954893171746e+00 4.3412475855782811e+00 2.2476065211482872e+01 1 2 0
1858 1 8.3272344039045831e-01 2.5300394006570883e+00 2.0988346647254243e+01 1 2 1
2333 1 8.9959468597807923e+00 5.3106679830786021e+00 2.2475248510058695e+01 1 0 0
4891 1 5.9451337009651617e+00 6.3528509247393483e+00 2.3702167565733735e+01 0 1 0
985 1 5.7569846265117004e+00 6.9575982422080527e+00 2.8328933622513112e+01 0 0 1
1530 1 3.5004153577997492e+00 7.2663798539963098e+00 2.4487477701037353e+01 0 1 0
2399 1 4.6740954059525969e-01 4.3694640895201964e+00 2.8358346451641268e+01 1 0 0
2596 1 7.9189728650506874e-01 1.0733250895207128e+01 2.4489031408657983e+01 0 0 0
1597 1 9.1491920257533721e+00 7.2581752964285435e+00 2.5011534287460560e+01 1 0 0
2342 1 7.4861333479623653e+00 8.8263661916031992e+00 2.3064201517130634e+01 -1 0 0
1632 1 1.1854938611816392e+00 1.5586239401183113e+00 2.5550950183502852e+01 -1 0 0
28 1 4.7544998451828961e+00 9.7013036262035346e+00 2.2935871289507794e+01 0 0 0
1621 1 9.2541028643754508e+00 1.1193200315361583e+01 2.4281535094574878e+01 0 0 0
1716 1 8.1474532786427947e+00 4.7497300449283415e+00 2.8248174180652885e+01 1 0 -1
3373 1 2.0800553872980294e+00 4.3226745554670440e+00 2.5821525047388800e+01 0 1 0
4001 1 4.7377142364758811e+00 4.8436827076618574e+00 2.6703710787150051e+01 0 0 0
3321 1 1.4936479114570103e+00 5.6350600250763438e+00 2.3308501461671458e+01 1 0 -1
2391 1 7.6930828421248965e+00 2.7735476681798557e+00 2.1603048633233879e+01 1 0 0
4312 1 7.0752535222509252e+00 1.4856803412012978e+00 2.4723576645250670e+01 1 1 0
2646 1 3.3833427141168517e+00 1.0570808338079324e+01 2.5047764519794377e+01 0 0 0
878 1 7.4500183648278318e-01 7.0177303210797453e+00 2.8145890351953962e+01 1 0 0
889 1 3.3344845537635384e+00 1.0771069835093222e+01 2.8440344837914875e+01 1 0 0
1802 1 3.5533417007715875e+00 8.1641759068667739e+00 2.7044295639035521e+01 0 0 0
3370 1 5.8666593105612197e-01 1.0176201733282622e+00 2.8281301315383896e+01 0 0 0
3247 1 7.5140721822192820e+00 9.1779699288448171e+00 2.7787189711873026e+01 1 -1 0
51 1 6.6684553841435914e+00 4.3961708478910888e-01 2.7544621088224137e+01 1 1 0
4116 1 6.7844886946568128e-01 1.1697997889981483e+01 2.1692959991441629e+01 1 1 0
678 1 9.3367337451585080e+00 7.1426448888545488e+00 2.8241048858333201e+01 1 0 0
819 1 7.0846116983575351e+00 6.2738750040344424e+00 2.0584962653947361e+01 0 0 0
4032 1 4.7824821317488366e+00 3.8698352270683267e-01 2.0357027785956188e+01 0 0 0
792 1 5.3765664209403887e+00 2.3534132723748806e+00 3.2130300223304765e+01 1 0 -1
2509 1 2.7659573619803193e+00 2.6381694122847721e+00 2.9660097394701722e+01 0 0 -1
4136 1 1.1739148825932002e+00 2.2764393251839365e+00 3.8473360301358042e+01 1 1 -1
3987 1 5.1945008998586679e-02 4.0681073299868844e+00 3.5491529714174462e+01 1 1 -1
3150 1 8.9547074312152635e+00 1.0452984435485336e+01 2.9918762486124667e+01 0 1 -1
4893 1 7.4748533274363593e+00 3.9184263322581088e+00 3.1097836928199744e+01 0 1 0
3368 1 9.0822943944758006e+00 5.1440077487332552e+00 3.3018567762972339e+01 0 0 0
3375 1 6.5257973953954203e+00 2.5176587676279718e+00 3.4795106147024157e+01 1 1 0
139 1 1.9512596994026465e+00 4.9476527324980450e+00 3.1236631832016922e+01 1 0 0
959 1 4.3286920832237055e+00 5.3134397904519775e+00 3.2641746959592361e+01 1 1 1
4850 1 6.1605411364179261e+00 6.4437240019370599e+00 3.0990334143793987e+01 1 0 0
2665 1 5.6864902422186558e+00 1.0937334795257510e+01 3.5374185403197771e+01 0 -1 0
4007 1 7.0363908199510448e+00 8.2997340023566011e+00 3.5268961917373616e+01 0 0 0
1701 1 4.4557663625718575e+00 1.1212908289053138e+01 3.2647297348814199e+01 0 0 0
904 1 2.8175179392806813e+00 1.1699853143419691e+01 3.5372006973074377e+01 0 0 0
4162 1 1.4001416712909412e-01 7.2191833123069058e+00 3.1243798662537841e+01 0 0 0
3418 1 2.4607209126171119e+00 1.1806496697135049e+01 3.8099174608000354e+01 0 0 0
732 1 1.7173772623595891e+00 1.1605809645473224e+01 3.1956549708889451e+01 1 1 0
1531 1 9.5952418265299375e+00 4.6012633850145104e+00 3.7043996338825266e+01 1 1 0
1781 1 7.4008951453289384e+00 8.8577081321345652e+00 3.2245820612454288e+01 1 0 0
4322 1 5.7701516282239202e+00 1.0052869025659943e+01 3.0224023231103946e+01 1 0 1
3473 1 8.3178524254532498e+00 2.4364161592193505e+00 3.8534244935237808e+01 0 0 0
2512 1 2.6015934907244351e+00 1.2553664671803622e+00 3.2287012273801295e+01 1 0 0
4040 1 5.3013664366325743e+00 1.0759241752998214e+01 3.8349123130478873e+01 1 0 -1
94 1 1.3253592415942563e+00 1.3933128069973086e+00 3.5674235693576520e+01 0 0 0
3155 1 3.5019359266645957e+00 3.9144425209789904e+00 3.8275587010866744e+01 0 1 0
3159 1 8.5346948396306810e-01 7.2278035461570402e+00 3.8037390146015170e+01 1 1 0
752 1 7.4959867773181061e+00 4.9637077410748542e+00 3.5336674519095411e+01 1 0 -1
3347 1 1.4645523463585616e-01 2.9025965947477648e+00 3.2616857354236714e+01 0 1 -1
986 1 5.6659939790113167e+00 2.2702924236559974e+00 3.7665073231851551e+01 0 1 -1
4964 1 3.4585350590232866e+00 3.7070682417707728e+00 3.5350487433687107e+01 0 1 -1
3387 1 1.6974869674454274e+00 6.4853486456530200e+00 3.5484517229195731e+01 1 -1 0
3408 1 4.1697037516315900e+00 6.9573156248472943e+00 3.8025113509267925e+01 0 0 0
107 1 9.4489507276425115e+00 8.7603367911505998e+00 3.8162904686314434e+01 0 0 0
1000 1 4.8442557542931990e+00 6.6911096121501865e+00 3.5162366319439442e+01 0 -1 1
3177 1 3.8998111028204590e+00 3.6906292202930008e-01 3.4638685358653319e+01 1 0 0
4268 1 8.3844995871345223e+00 1.1442206668097050e+01 3.4143367035196050e+01 1 -1 -1
4047 1 7.8476472187509714e+00 2.3177777248122527e-01 3.5053334714280112e+01 0 1 0
1825 1 6.5961250431308551e+00 8.3792012819030592e+00 3.8082880930692667e+01 0 1 -1
2502 1 7.5781392304955375e-01 9.7399043300040997e+00 3.0013154568629105e+01 1 0 0
2560 1 9.8081789643980137e+00 7.3631388686404478e+00 3.1285250247576506e+01 -1 2 -1
4147 1 9.6312004416930925e+00 7.5398239727092742e-01 3.7144671755949602e+01 1 0 -1
4167 1 9.7982717251754750e+00 7.2899809877666151e+00 3.5546332272726161e+01 0 1 0
4979 1 1.5966207872487814e-02 1.0985516967075867e+01 3.4447282580982275e+01 1 0 -1
181 2 0.0000000000000000e+00 1.2787731112280996e+01 3.1601213798064758e+00 0 0 0
183 2 1.2305000000000001e+00 1.3498160618518829e+01 3.1601213798064758e+00 0 0 0
218 2 2.4610000000000003e+00 1.2787731112280996e+01 3.1601213798064758e+00 0 0 0
220 2 3.6915000000000004e+00 1.3498160618518829e+01 3.1601213798064758e+00 0 0 0
179 2 0.0000000000000000e+00 1.5629449137232333e+01 3.1601213798064758e+00 0 0 0
214 2 1.2305000000000001e+00 1.4919019630994494e+01 3.1601213798064758e+00 0 0 0
216 2 2.4610000000000003e+00 1.5629449137232328e+01 3.1601213798064758e+00 0 0 0
259 2 3.6915000000000004e+00 1.4919019630994494e+01 3.1601213798064758e+00 0 0 0
263 2 4.9220000000000006e+00 1.2787731112280996e+01 3.1601213798064758e+00 0 0 0
265 2 6.1524999999999990e+00 1.3498160618518829e+01 3.1601213798064758e+00 0 0 0
310 2 7.3829999999999991e+00 1.2787731112280996e+01 3.1601213798064758e+00 0 0 0
312 2 8.6135000000000002e+00 1.3498160618518835e+01 3.1601213798064758e+00 0 0 0
261 2 4.9220000000000006e+00 1.5629449137232333e+01 3.1601213798064758e+00 0 0 0
306 2 6.1524999999999990e+00 1.4919019630994494e+01 3.1601213798064758e+00 0 0 0
308 2 7.3829999999999991e+00 1.5629449137232333e+01 3.1601213798064758e+00 0 0 0
353 2 8.6135000000000002e+00 1.4919019630994494e+01 3.1601213798064758e+00 0 0 0
210 2 0.0000000000000000e+00 1.7050308149707998e+01 3.1601213798064758e+00 0 0 0
255 2 2.4610000000000003e+00 1.7050308149707998e+01 3.1601213798064758e+00 0 0 0
208 2 0.0000000000000000e+00 1.9892026174659328e+01 3.1601213798064758e+00 0 0 0
212 2 1.2305000000000001e+00 1.7760737655945832e+01 3.1601213798064758e+00 0 0 0
251 2 1.2305000000000001e+00 1.9181596668421495e+01 3.1601213798064758e+00 0 0 0
253 2 2.4610000000000003e+00 1.9892026174659328e+01 3.1601213798064758e+00 0 0 0
257 2 3.6914999999999996e+00 1.7760737655945832e+01 3.1601213798064758e+00 0 0 0
298 2 3.6914999999999996e+00 1.9181596668421495e+01 3.1601213798064758e+00 0 0 0
302 2 4.9220000000000006e+00 1.7050308149707998e+01 3.1601213798064758e+00 0 0 0
349 2 7.3830000000000009e+00 1.7050308149707998e+01 3.1601213798064758e+00 0 0 0
300 2 4.9220000000000006e+00 1.9892026174659328e+01 3.1601213798064758e+00 0 0 0
304 2 6.1524999999999999e+00 1.7760737655945832e+01 3.1601213798064758e+00 0 0 0
345 2 6.1524999999999999e+00 1.9181596668421495e+01 3.1601213798064758e+00 0 0 0
347 2 7.3829999999999991e+00 1.9892026174659328e+01 3.1601213798064758e+00 0 0 0
351 2 8.6134999999999984e+00 1.7760737655945832e+01 3.1601213798064758e+00 0 0 0
387 2 8.6135000000000002e+00 1.9181596668421495e+01 3.1601213798064758e+00 0 0 0
245 2 0.0000000000000000e+00 2.4154603212086325e+01 3.1601213798064758e+00 0 0 0
247 2 0.0000000000000000e+00 2.1312885187134999e+01 3.1601213798064758e+00 0 0 0
249 2 1.2304999999999993e+00 2.2023314693372832e+01 3.1601213798064758e+00 0 0 0
290 2 1.2304999999999993e+00 2.3444173705848499e+01 3.1601213798064758e+00 0 0 0
292 2 2.4610000000000003e+00 2.4154603212086325e+01 3.1601213798064758e+00 0 0 0
294 2 2.4610000000000003e+00 2.1312885187134995e+01 3.1601213798064758e+00 0 0 0
296 2 3.6914999999999996e+00 2.2023314693372832e+01 3.1601213798064758e+00 0 0 0
337 2 3.6915000000000004e+00 2.3444173705848499e+01 3.1601213798064758e+00 0 0 0
339 2 4.9220000000000006e+00 2.4154603212086325e+01 3.1601213798064758e+00 0 0 0
341 2 4.9220000000000006e+00 2.1312885187134995e+01 3.1601213798064758e+00 0 0 0
343 2 6.1524999999999990e+00 2.2023314693372832e+01 3.1601213798064758e+00 0 0 0
379 2 6.1524999999999999e+00 2.3444173705848499e+01 3.1601213798064758e+00 0 0 0
381 2 7.3830000000000009e+00 2.4154603212086336e+01 3.1601213798064758e+00 0 0 0
383 2 7.3829999999999991e+00 2.1312885187134999e+01 3.1601213798064758e+00 0 0 0
385 2 8.6135000000000002e+00 2.2023314693372832e+01 3.1601213798064758e+00 0 0 0
413 2 8.6134999999999984e+00 2.3444173705848499e+01 3.1601213798064758e+00 0 0 0
182 2 0.0000000000000000e+00 1.2787731112280996e+01 6.2426380469531253e+00 0 0 0
219 2 2.4610000000000003e+00 1.2787731112280996e+01 6.2426380469531253e+00 0 0 0
180 2 0.0000000000000000e+00 1.4208590124756663e+01 6.2426380469531253e+00 0 0 0
215 2 1.2305000000000001e+00 1.4919019630994494e+01 6.2426380469531253e+00 0 0 0
217 2 2.4610000000000003e+00 1.4208590124756663e+01 6.2426380469531253e+00 0 0 0
260 2 3.6915000000000004e+00 1.4919019630994494e+01 6.2426380469531253e+00 0 0 0
491 2 0.0000000000000000e+00 1.2787731112280996e+01 9.3251547140999289e+00 0 0 0
492 2 1.2305000000000001e+00 1.3498160618518829e+01 9.3251547140999289e+00 0 0 0
510 2 2.4610000000000003e+00 1.2787731112280996e+01 9.3251547140999289e+00 0 0 0
511 2 3.6915000000000004e+00 1.3498160618518829e+01 9.3251547140999289e+00 0 0 0
490 2 0.0000000000000000e+00 1.5629449137232333e+01 9.3251547140999289e+00 0 0 0
508 2 1.2305000000000001e+00 1.4919019630994494e+01 9.3251547140999289e+00 0 0 0
509 2 2.4610000000000003e+00 1.5629449137232328e+01 9.3251547140999289e+00 0 0 0
531 2 3.6915000000000004e+00 1.4919019630994494e+01 9.3251547140999289e+00 0 0 0
264 2 4.9220000000000006e+00 1.2787731112280996e+01 6.2426380469531253e+00 0 0 0
311 2 7.3829999999999991e+00 1.2787731112280996e+01 6.2426380469531253e+00 0 0 0
262 2 4.9220000000000006e+00 1.4208590124756663e+01 6.2426380469531253e+00 0 0 0
307 2 6.1524999999999990e+00 1.4919019630994494e+01 6.2426380469531253e+00 0 0 0
309 2 7.3830000000000009e+00 1.4208590124756663e+01 6.2426380469531253e+00 0 0 0
354 2 8.6135000000000002e+00 1.4919019630994494e+01 6.2426380469531253e+00 0 0 0
533 2 4.9220000000000006e+00 1.2787731112280996e+01 9.3251547140999289e+00 0 0 0
534 2 6.1524999999999990e+00 1.3498160618518829e+01 9.3251547140999289e+00 0 0 0
557 2 7.3829999999999991e+00 1.2787731112280996e+01 9.3251547140999289e+00 0 0 0
558 2 8.6135000000000002e+00 1.3498160618518835e+01 9.3251547140999289e+00 0 0 0
532 2 4.9220000000000006e+00 1.5629449137232333e+01 9.3251547140999289e+00 0 0 0
555 2 6.1524999999999990e+00 1.4919019630994494e+01 9.3251547140999289e+00 0 0 0
556 2 7.3829999999999991e+00 1.5629449137232333e+01 9.3251547140999289e+00 0 0 0
579 2 8.6135000000000002e+00 1.4919019630994494e+01 9.3251547140999289e+00 0 0 0
211 2 0.0000000000000000e+00 1.7050308149707998e+01 6.2426380469531253e+00 0 0 0
213 2 1.2305000000000001e+00 1.6339878643470165e+01 6.2426380469531253e+00 0 0 0
256 2 2.4610000000000003e+00 1.7050308149707998e+01 6.2426380469531253e+00 0 0 0
258 2 3.6915000000000004e+00 1.6339878643470165e+01 6.2426380469531253e+00 0 0 0
209 2 0.0000000000000000e+00 1.8471167162183658e+01 6.2426380469531253e+00 0 0 0
252 2 1.2305000000000001e+00 1.9181596668421495e+01 6.2426380469531253e+00 0 0 0
254 2 2.4610000000000003e+00 1.8471167162183658e+01 6.2426380469531253e+00 0 0 0
299 2 3.6914999999999996e+00 1.9181596668421495e+01 6.2426380469531253e+00 0 0 0
506 2 0.0000000000000000e+00 1.7050308149707998e+01 9.3251547140999289e+00 0 0 0
529 2 2.4610000000000003e+00 1.7050308149707998e+01 9.3251547140999289e+00 0 0 0
505 2 0.0000000000000000e+00 1.9892026174659328e+01 9.3251547140999289e+00 0 0 0
507 2 1.2305000000000001e+00 1.7760737655945832e+01 9.3251547140999289e+00 0 0 0
527 2 1.2305000000000001e+00 1.9181596668421495e+01 9.3251547140999289e+00 0 0 0
528 2 2.4610000000000003e+00 1.9892026174659328e+01 9.3251547140999289e+00 0 0 0
530 2 3.6914999999999996e+00 1.7760737655945832e+01 9.3251547140999289e+00 0 0 0
551 2 3.6914999999999996e+00 1.9181596668421495e+01 9.3251547140999289e+00 0 0 0
303 2 4.9220000000000006e+00 1.7050308149707998e+01 6.2426380469531253e+00 0 0 0
305 2 6.1524999999999999e+00 1.6339878643470165e+01 6.2426380469531253e+00 0 0 0
350 2 7.3830000000000009e+00 1.7050308149707998e+01 6.2426380469531253e+00 0 0 0
352 2 8.6134999999999984e+00 1.6339878643470165e+01 6.2426380469531253e+00 0 0 0
301 2 4.9220000000000006e+00 1.8471167162183658e+01 6.2426380469531253e+00 0 0 0
346 2 6.1524999999999999e+00 1.9181596668421495e+01 6.2426380469531253e+00 0 0 0
348 2 7.3829999999999991e+00 1.8471167162183658e+01 6.2426380469531253e+00 0 0 0
388 2 8.6135000000000002e+00 1.9181596668421495e+01 6.2426380469531253e+00 0 0 0
553 2 4.9220000000000006e+00 1.7050308149707998e+01 9.3251547140999289e+00 0 0 0
577 2 7.3830000000000009e+00 1.7050308149707998e+01 9.3251547140999289e+00 0 0 0
552 2 4.9220000000000006e+00 1.9892026174659328e+01 9.3251547140999289e+00 0 0 0
554 2 6.1524999999999999e+00 1.7760737655945832e+01 9.3251547140999289e+00 0 0 0
575 2 6.1524999999999999e+00 1.9181596668421495e+01 9.3251547140999289e+00 0 0 0