LAMMPS data file via write_data, version 16 Mar 2018, timestep = 100000

6736 atoms
2 atom types

3.0077807426466663e-01 4.8919221925734291e+01 xlo xhi
2.9955367119656628e-01 4.8720082259214010e+01 ylo yhi
3.2765286376884006e-01 5.9734347136232088e+01 zlo zhi

Masses

1 18.015
2 12.01

Atoms # atomic

6053 1 2.0911624702065810e+00 3.7392154987117245e+00 2.1165802768810149e+00 -2 0 1
1220 1 3.6283097004421037e+00 2.2101645497387179e+00 3.9167550529527055e+00 1 -1 0
5816 1 5.1926633145138714e+00 1.2283846298668326e+00 1.9750925653795015e+00 0 0 1
6143 1 8.1960766122968440e+00 2.6021578417465654e+00 2.6765495647105588e+00 -1 1 1
3667 1 1.2903681419238728e+00 8.2850527620886378e+00 3.6166651375994654e+00 1 2 0
1067 1 2.3916538389136521e+00 1.6027544891905677e+01 9.7286232291762573e+00 0 1 1
947 1 4.2327447990150411e+00 5.1438759608127542e+00 4.7901150866856437e+00 2 0 1
1849 1 6.5331126518900833e+00 1.0550100659779890e+01 1.8620091053326122e+00 1 1 0
4255 1 5.0784025704821723e+00 2.3486287207954053e+01 1.0625112321230867e+01 0 0 1
793 1 8.3438827769817649e+00 6.9492958337465955e+00 4.4574336978577369e+00 -1 0 1
807 1 1.1173500959937369e+01 7.4028630633993338e+00 4.3290287548958242e+00 1 1 0
4108 1 2.1293791218194462e+00 2.2693116005347743e+01 1.2475616628863779e+00 0 -1 0
5321 1 2.6039831449232169e+00 1.2347045170856077e+01 2.1024329900850978e+00 0 -1 1
189 1 3.0840168279128997e+00 1.1175519642028858e+01 4.5116137265576191e+00 1 1 0
2083 1 7.2185434034962377e+00 1.2423237690490543e+01 3.7951184469891768e+00 1 0 0
4190 1 4.6183850195338403e+00 9.3293960812530106e+00 3.6965587197969665e+00 0 0 1
1761 1 9.6047385507479159e+00 1.1615610177773984e+01 1.8396323965292065e+00 0 0 0
5103 1 1.2115606150432599e+01 2.1911810014892472e+00 4.9340429185917172e+00 3 -1 0
1948 1 1.6513970538552445e+00 1.7430176404228970e+01 4.8024562289888610e+00 1 0 0
6254 1 3.4929270699496984e+00 1.7342696134991780e+01 2.8412202628808778e+00 1 0 1
3552 1 9.9202872836368634e+00 1.8506806745678066e+01 2.0487497500523753e+00 -1 1 1
4531 1 5.1240796153592196e+00 1.4329536258092533e+01 3.7391815530618486e+00 0 1 1
1950 1 5.8472693099917477e+00 1.5618615183804115e+01 1.0603205943116145e+00 -1 -1 1
959 1 8.3549273587928230e+00 1.6408887538965935e+01 6.3297163947243682e+00 0 0 0
5799 1 1.1678784598649653e+01 1.6199233547163239e+01 5.1594109772654004e+00 2 2 1
2116 1 5.9396541649642725e+00 2.1069314536317147e+01 1.8693596431194606e+00 1 0 0
1115 1 1.1483189032130001e+01 7.8619009859436586e+00 1.6128944652391024e+00 -1 1 0
1790 1 1.0401002346774128e+01 2.4305604946047875e+01 6.3190277222672036e+00 0 0 0
1975 1 6.1457057329057383e+00 1.6979995457879948e+01 4.4804327100909198e+00 1 -1 0
4161 1 5.9907265767096440e+00 1.8385474472814516e+00 5.7545005878435722e+00 2 -1 1
5108 1 1.7258608930731669e+00 1.9929580364858740e+01 6.1881196777592802e+00 0 1 1
186 1 2.1840372081960862e+00 8.7995287216675315e+00 8.1802511373551514e+00 -1 1 0
3610 1 1.7914616683731752e+00 2.1787393762101459e+01 4.1536582243639533e+00 3 -1 0
1169 1 9.3081622063299001e+00 2.2691834108892465e+01 4.5660144817415507e+00 0 -1 1
4595 1 4.7201161514105792e+00 2.1944374396173952e+01 4.0960333722901492e+00 1 0 0
5553 1 1.0978500027711597e+01 2.2481558086883648e+01 2.4510518396320968e+00 0 -1 0
5873 1 1.1123414206339852e+01 1.8710425788062174e+01 4.5882617137176149e+00 0 0 1
2028 1 3.0716800027547966e+00 4.6079427541047258e+00 7.1155391005813531e+00 -1 0 0
3709 1 7.5367238908242031e+00 2.1914322524150080e+01 9.7208673179399199e+00 1 0 0
5143 1 7.9819148508014157e+00 7.7873923836107695e+00 1.8435398495856883e+00 1 1 0
2760 1 1.4495814926174413e+00 5.5366069997153451e+00 1.1348736817515709e+01 1 -1 1
3505 1 8.3754285642785451e+00 6.6671807083781520e-01 4.4212914806863077e+00 1 0 0
2919 1 4.6599291398555165e+00 2.8747003310662333e+00 8.1086065213043828e+00 1 1 0
3611 1 1.1261123959456118e+01 2.1833304163479785e+00 2.4829030133939662e+00 0 -1 0
4342 1 3.2469422624782851e-01 5.5562533676530226e+00 4.4035351981462307e+00 0 0 1
6134 1 5.6869362550533786e+00 6.9110900467247429e+00 1.0633337557776366e+00 -1 0 1
3865 1 1.2052803346451499e+01 8.6657054026887899e+00 1.0856609927838390e+01 1 0 1
1974 1 3.7519047366120506e+00 6.5183860490994379e+00 9.1379346430529669e+00 0 0 0
5414 1 6.7810948991650291e+00 4.3686945048438890e+00 4.3659753685318332e+00 -2 0 0
3706 1 8.0902647785788950e+00 4.7667550815144191e+00 7.1875815751278482e+00 0 1 0
2102 1 1.0835447939842068e+01 4.0521383336588483e+00 7.1737469437943719e+00 0 1 0
5949 1 1.1932172808401090e+01 6.4440530294378897e+00 6.8464862725761471e+00 0 0 1
2874 1 1.7976543755396661e+00 1.2673480951591223e+01 6.9193114759069054e+00 0 1 1
5225 1 5.4582035269811877e+00 8.1804139140075307e+00 8.1413230296737318e+00 1 -1 0
1187 1 6.2068921107082549e+00 8.3488516001976709e+00 5.3259991607185588e+00 1 0 1
1797 1 7.2463482561491546e+00 1.1022095893975012e+01 6.0989751851273208e+00 0 1 1
2165 1 1.2436804688145729e+01 2.4426412565854488e+01 3.3374147471830824e+00 0 1 0
4258 1 4.0397045648726877e+00 1.3773526739646254e+01 6.2205696875467149e+00 0 -1 1
394 1 3.1342163925427502e+00 1.6138588464769200e+01 6.9376768309838699e+00 0 0 0
5986 1 7.4207981097733828e+00 1.4445531311373809e+01 8.5361172285055940e+00 0 0 1
5138 1 5.9125548616516239e+00 1.2495888294960954e+01 7.7038517697852313e+00 0 0 0
5571 1 2.2341179800620421e+00 1.5055593630614910e+01 2.1747096404243678e+00 0 1 0
1243 1 8.6942210320842594e+00 1.5006822215721666e+01 3.5905720453699579e+00 1 -1 1
4547 1 4.0270574431814135e+00 2.0389715994785970e+01 7.5435522009679392e+00 1 0 1
1194 1 5.2288739807170597e+00 1.7980440693716041e+01 6.9579940680280172e+00 1 -1 1
6114 1 7.4348562056972289e+00 1.9126717701051579e+01 3.4089422146181692e+00 0 1 1
4510 1 6.6871089000132011e+00 1.7763855715812554e+01 9.1669715875700390e+00 1 0 1
2481 1 7.8333452366307750e+00 1.9685914758447201e+01 1.0798252650577256e+01 -1 0 1
3499 1 1.0262078243476530e+01 1.7914680547600526e+01 9.1632288793307080e+00 1 -1 0
886 1 1.1193842511010933e+01 1.5766254955226675e+01 7.9690321967556459e+00 0 -1 1
1059 1 9.5048960809665566e+00 1.8831752106743526e+01 6.8608952978935180e+00 -1 0 1
4330 1 6.1668400790383888e+00 2.1667044718220829e+01 6.7648134668105468e+00 -1 0 1
5413 1 1.1714366304661352e+00 9.8113655566468072e+00 5.9430544046111837e+00 1 1 0
1715 1 5.2630076132024168e+00 2.0377868022045494e+01 1.2087197260694420e+01 1 0 1
997 1 8.2780693481271879e+00 2.0564101209360242e+01 5.5248385683600105e+00 1 -1 1
3372 1 9.9481267383498420e+00 2.2811486147134019e+01 8.4839551216025146e+00 0 0 1
4487 1 1.1048979042864904e+01 1.1505436729839507e+00 9.8275412881115223e+00 2 0 1
4460 1 4.2717472420342673e-01 3.9696321195213518e+00 6.8363318801099151e+00 0 1 1
5549 1 2.6050391491351665e+00 1.8599794186867459e+01 5.6161473776838966e-01 -1 1 0
748 1 7.1081197341451938e+00 3.2232009342484269e+00 8.9253992617655147e+00 0 0 1
6 1 8.9654782903988490e+00 1.2517961325282296e+00 7.9326312369045073e+00 0 2 1
4512 1 1.1074659571936101e+01 2.4243936589148497e+01 1.0219884865436036e+01 2 1 0
5837 1 1.2300215416031271e+01 4.7852370470579260e+00 1.3938141883364585e+00 1 0 1
777 1 6.8521535216694076e+00 2.4226169850195969e+01 4.2115341891475317e+00 1 0 1
80 1 7.3988095444318249e+00 6.5134817559889591e+00 1.1309041131803470e+01 0 0 1
5985 1 6.9944445867429899e+00 3.5779630281216828e+00 1.1700726967447249e+01 0 2 1
5483 1 1.1904551295881101e+01 2.1181516560044702e+01 7.1313996078779027e+00 0 0 1
1021 1 1.2077958854020155e+01 3.6601269236036185e+00 9.4911769664938390e+00 0 0 1
5146 1 1.6175763457142978e+00 1.1646982884542851e+01 9.5412090488464987e+00 1 0 0
5226 1 7.8553478235505434e+00 7.1073572300944354e+00 8.6812040276249824e+00 -2 1 0
418 1 4.9117968877278484e+00 1.0554788122970148e+01 9.3026665914040372e+00 0 0 0
54 1 4.9361094086490409e+00 9.6206186605057287e+00 1.1748235546123958e+01 -1 0 1
3700 1 9.9247026356254278e+00 1.0639667131860429e+01 6.8710434306692214e+00 0 0 0
1841 1 1.0462152635511925e+01 8.2940797456550808e+00 8.4176962101584731e+00 0 2 0
2578 1 3.6542864650136271e+00 1.5531386475106141e+00 1.0040778975771692e+01 0 0 1
3804 1 1.1515602920995727e+01 1.4648840653905879e+01 3.1988903669881172e+00 0 0 0
3534 1 2.6897665442047760e+00 1.3804502191153775e+01 1.0877270354859496e+01 0 0 1
3646 1 5.6977671886991059e+00 1.3801944066539269e+01 1.0829135619279681e+01 0 -1 0
5292 1 1.0204401555890046e+00 9.3089680627088456e-01 9.9935370918642619e+00 2 0 1
5350 1 9.0512107635615280e-01 1.9960087568397494e+01 1.9489450846808527e+00 0 1 0
3531 1 3.3271252828972542e+00 1.8204963047512251e+01 1.1450073939402293e+01 0 0 0
4187 1 3.4219807572938148e+00 6.4328318336380548e+00 2.3966598161285773e+00 1 1 0
2711 1 2.8074984403386902e+00 2.3073786189654300e+01 8.5088097780520382e+00 0 0 1
1049 1 2.5142717999219246e+00 2.0792054682015397e+01 1.0408314062290319e+01 0 0 1
4176 1 8.6229101372201988e+00 1.5986331701800609e+01 1.3293656685545499e+00 0 0 1
1746 1 5.6143983462775946e+00 1.6367014444179539e+01 1.1536285751856644e+01 1 1 0
320 1 1.0561706297911435e+01 1.2778136816621279e+01 8.4630706225935572e+00 -1 0 0
1235 1 9.1816426592146811e+00 8.7248435939425857e+00 1.1949710838835873e+01 -1 1 1
47 1 1.1996947619032809e+01 9.8619170850842206e+00 5.0381178081155760e+00 -1 0 0
5327 1 1.3992892169271645e+00 6.7567960607463995e-01 4.1070619154384413e+00 1 1 0
5085 1 9.2406488871075947e+00 1.3558440915152332e+01 1.0804741690455302e+01 1 1 0
4572 1 9.9419625446156203e+00 2.4351278040794544e+01 6.1194828395516554e-01 2 1 1
1133 1 1.2289828703468617e+01 1.9653802035113117e+01 9.8507002008414890e+00 -1 2 1
225 1 1.0010692518053425e+01 1.6083154732809998e+01 1.1447605515038619e+01 0 0 0
899 1 4.7522406119597138e-01 2.4032013853191671e+01 4.7478054490533825e+00 1 -1 1
2179 1 1.2007228120724578e+01 4.4630090147073656e+00 1.1968619075200433e+01 0 1 0
3521 1 8.2737351027645936e+00 3.6807445736276807e+00 3.2974272022561024e-01 1 0 0
2489 1 7.9200367302661681e+00 2.2379250371417260e+01 4.9130451241400408e-01 -1 0 0
2022 1 1.0638574742236992e+01 5.5745157749689822e+00 2.3302557386961706e+01 1 -1 0
4549 1 2.4698695085530469e+00 3.5222725429810118e+00 1.4522208043988385e+01 1 1 0
3816 1 1.1926341770881377e+01 2.2312693127886558e+01 1.8812708596169728e+01 1 0 0
4326 1 5.1393659121865536e+00 2.2721416330888173e+00 1.6717483524269884e+01 2 0 1
4131 1 4.9830934382909451e+00 1.1427006393579098e+00 1.3942884488768104e+01 0 1 1
5828 1 9.0927571369358073e+00 8.2104179374295327e-01 1.5344843809188001e+01 0 1 1
5411 1 1.0155973436118853e+01 3.4640566163929143e+00 1.5166408442303768e+01 -2 1 0
3428 1 5.8657427858759430e+00 1.9985642291679742e+01 1.4634267517915287e+01 1 -1 0
5249 1 6.0616778571732493e+00 4.7991204363928830e+00 1.6162657092645247e+01 1 1 1
2473 1 4.4113775956936720e+00 6.0280336351063024e+00 1.4672424172495017e+01 0 0 1
1008 1 8.4305980877865050e+00 1.9026427693643317e+01 1.4597588277267482e+01 0 0 1
3502 1 7.8737349431945738e+00 6.6258451709062829e+00 1.7666235566790732e+01 2 -1 0
2752 1 1.0442093548653423e+01 6.3543179959243270e+00 1.3536918198948809e+01 -1 0 0
81 1 2.1095731284964518e+00 6.9804853457154064e+00 1.5880773308725923e+01 0 0 0
1155 1 3.9972015219721695e+00 2.2628883050364042e+01 2.0071292534773765e+01 0 1 1
2027 1 2.4873822085839454e+00 9.3994079870585292e+00 1.6742777264610076e+01 1 1 0
5118 1 7.4005258407045886e+00 2.4082689732809801e+01 1.5356495186141318e+01 1 0 1
1754 1 8.6425630726178326e+00 1.1057518737855393e+01 1.3337172592013111e+01 1 -1 1
2611 1 1.0306546934552703e+00 7.5967867426828395e+00 1.2974651695622216e+01 1 1 1
2803 1 9.5376395973661516e+00 8.6901640420996973e+00 1.7114181336141684e+01 0 0 1
4408 1 1.8564681880217540e+00 1.4858936941970537e+01 1.3381622872516402e+01 -1 0 1
216 1 2.7256344434444673e+00 1.0741631205162285e+01 1.4651501135258901e+01 -1 -1 0
383 1 4.5787301261160218e+00 2.3539704036015809e+01 1.3372326621290689e+01 0 -1 0
2866 1 4.9310162266515150e+00 1.2406077402149293e+01 1.4798999631866302e+01 0 0 1
4409 1 1.2064957912708401e+01 1.5604383337461659e+01 2.2868848575306661e+01 0 0 1
4361 1 9.3231063527821263e+00 2.2724520462003277e+01 2.0821713486331596e+01 0 0 1
2777 1 4.4376217321358089e+00 1.5018303101876686e+01 1.4655342383895636e+01 1 0 1
2023 1 4.8792090150512966e+00 1.7749266771000343e+01 1.6095064047242893e+01 1 0 0
275 1 7.0158981196283570e+00 1.6741606063137016e+01 1.7216179012086435e+01 0 1 0
5164 1 7.6103021240933320e+00 1.5061105492587524e+01 1.5016944271238101e+01 1 0 0
3786 1 9.7294722395961593e+00 1.3537169710644170e+01 1.5970569715526171e+01 -1 0 0
5273 1 1.1356706822185002e+01 1.2117607086109514e+01 1.2860774589208360e+01 1 0 0
404 1 1.8781339152026797e+00 2.3094119389392564e+01 1.6504289733060830e+01 1 -1 0
3827 1 2.5762272578232328e+00 2.1801035102978588e+01 2.3816950869917157e+01 -1 0 0
5359 1 8.9123403158651779e+00 1.9150759405561658e+01 1.7343186409601650e+01 1 0 0
1236 1 5.1423404262576256e+00 2.2087875458486856e+01 1.6333622528749313e+01 -1 0 1
130 1 9.6520165212721789e+00 2.2315316856624953e+01 1.5741631289207033e+01 -1 -1 1
4137 1 7.7679777776429431e+00 7.5271409762103547e-01 1.3033278185122128e+01 0 1 1
5849 1 1.1804660624177865e+01 1.8558460979243257e+01 1.6365677548550345e+01 -1 0 1
4523 1 1.3210834716653690e+00 2.3421049208776878e+00 1.7107744502280600e+01 1 0 1
4150 1 1.0778334893579880e+01 2.0409523512777291e+01 2.0726944993243620e+01 0 1 0
5893 1 1.0883210920928629e+01 1.8181169650386007e+01 2.3864692724518243e+01 1 -1 1
2736 1 1.2350677494748661e+01 2.0464341198429903e+01 2.2873803643999395e+01 -1 0 1
230 1 3.3283631667967382e+00 1.2877100908314756e+00 1.8474389497201482e+01 0 0 0
1925 1 8.4085274100943153e+00 2.4334851906305928e+00 1.9465980016949580e+01 0 2 0
3673 1 1.2384765693995783e+00 4.9955748005617711e+00 1.7681847668196873e+01 0 1 0
2426 1 2.2679956028272428e+00 9.0359694178424022e+00 2.3240547882353827e+01 0 -1 0
3604 1 4.8634316126235184e+00 5.3940452245422774e+00 1.9048711992118754e+01 0 1 1
226 1 2.2259457523159356e+00 5.8439139931698527e+00 2.0184410439507079e+01 0 -1 1
4608 1 9.9337496856128826e+00 4.2804097661139053e+00 1.8000826110676424e+01 1 2 0
1173 1 7.4295752517834934e+00 4.8896816760364867e+00 2.0498542380590045e+01 1 2 1
4519 1 5.1367317502451790e+00 9.7829974006080320e+00 2.3666572877574907e+01 0 1 1
2173 1 7.8493673102506998e+00 1.6709890660224442e+01 1.2975131494019450e+01 -1 0 0
4365 1 3.3448755856023316e+00 1.1170648920704782e+01 2.0802758414810647e+01 0 2 1
3669 1 1.0287018023005539e+00 8.4919685394382594e+00 2.0680490972687998e+01 2 0 0
2122 1 4.4921448805957152e+00 1.0201145612947668e+01 1.8558958626364344e+01 1 2 0
3462 1 8.2133347891730253e+00 8.5892603245845454e+00 2.1177732821821142e+01 0 1 0
974 1 6.1223794466995836e+00 8.2683962455381455e+00 1.9728342084819563e+01 0 0 1
5910 1 1.0460599173478087e+01 2.4108412168131345e+01 1.7430731588629303e+01 0 0 0
2637 1 3.5478754960725452e+00 1.4023463010596231e+01 1.9581814858504011e+01 0 0 1
6079 1 2.4166597720973564e+00 1.4797346518679040e+01 1.7261466834510717e+01 1 1 1
318 1 5.4863289627503633e+00 1.2100040508538219e+01 1.7238005296613778e+01 0 0 0
3810 1 6.3763828082944851e+00 1.4288732571403450e+01 1.9400115114890905e+01 0 -1 0
1010 1 7.9984311017917928e+00 1.1214729051100141e+01 1.6146347910286771e+01 1 -1 0
6141 1 1.1290624157929461e+01 1.2799097999321745e+01 1.9326635726220324e+01 0 -1 1
1944 1 3.9898323717647801e+00 1.8063650673970855e+01 1.8808341883010851e+01 -1 1 0
4573 1 4.0196072193463248e+00 2.9068588976254119e+00 2.2809172403152942e+01 1 0 1
376 1 2.3773897102802350e+00 1.7806933251700375e+01 1.4047000125260009e+01 1 -1 0
3407 1 5.2961532959655901e+00 1.8823812442629865e+01 2.0893092931632502e+01 1 0 1
1007 1 7.3404624919520778e+00 1.7187880322286706e+01 2.0184989126806155e+01 1 1 1
4105 1 9.5881209346417435e+00 1.4944737067152907e+01 1.8623030417292686e+01 0 1 1
760 1 7.5218330622591933e+00 2.1814960673218451e+01 1.7984838187390086e+01 0 -1 1
5331 1 3.3811672071169108e+00 2.0738063991382393e+01 1.8150274618372791e+01 1 -1 0
5468 1 6.2254514169580979e+00 2.1402233245922840e+01 2.0729154700252746e+01 0 -1 0
3446 1 1.1477540922984749e+01 7.6797832709817380e+00 1.5341192975112534e+01 0 1 1
5557 1 7.7353868852007750e+00 2.3494669674341466e+01 1.2417335395082663e+01 1 -1 0
5981 1 1.2219264605795122e+01 1.0166890762738729e+01 2.2182693984913715e+01 0 -1 1
946 1 6.8445335740899715e-01 1.2785824596282783e+01 1.4764527657200343e+01 1 0 1
2184 1 9.9537527448611254e+00 1.8093319824981457e+01 1.9954357984500096e+01 -1 0 0
6304 1 6.7946861914368801e+00 6.6239335183811976e-01 2.1129761181127130e+01 1 0 1
4301 1 9.2675910994306658e+00 2.0779144628762047e+01 1.2810760095601026e+01 1 0 1
3541 1 1.0860442116103883e+01 1.4527650144317295e+00 2.0410736770623497e+01 0 0 0
5313 1 1.0575318234553324e+01 2.5355219200488217e+00 2.2915476558070402e+01 1 0 1
4109 1 7.6205529466127890e+00 1.5482907376646969e+01 2.3430277293654548e+01 1 0 0
740 1 6.3954585747467458e+00 3.1797289036638392e+00 2.3778549634643667e+01 0 0 1
4370 1 9.9014601671012592e+00 1.3987723443971383e+01 2.4086926838180808e+01 0 1 1
1066 1 5.1613915762619111e-01 2.2374404145978882e+01 1.8449185421130707e+01 1 0 1
4369 1 4.8239228646274066e+00 2.6023874311578190e+00 2.0307718629418368e+01 0 3 1
2634 1 6.6864642578888347e+00 5.7554084756649537e+00 2.2815874796173151e+01 1 1 1
2786 1 3.8066247313444396e-01 1.2726288178963195e+01 1.7092162822550513e+01 1 0 1
466 1 7.2986460361033760e+00 8.3966404204710532e-01 1.7461029088509218e+01 1 0 0
2425 1 6.4565221972567794e+00 1.1877783752762038e+01 1.2684352902651282e+01 0 -1 1
3370 1 7.9800072547996104e+00 4.5486571559053184e+00 1.3927477064358703e+01 1 1 1
3602 1 8.3213635839732838e+00 1.7990424393723742e+01 2.3042026274178681e+01 1 1 0
4457 1 2.1884659174098346e+00 4.7675313185580421e+00 2.2900335757756498e+01 1 1 1
796 1 1.1768486918874190e+01 1.6323069403423698e+01 2.0236844997999210e+01 -1 -1 1
223 1 4.6973626560857715e+00 7.5331190784086672e+00 2.2076170578022236e+01 1 0 0
6171 1 1.0161573248563036e+01 6.3632431078710923e+00 2.0337083520789797e+01 1 -1 1
2478 1 1.1268060987152941e+01 8.9468109049982232e+00 1.9619846033690568e+01 0 1 1
5367 1 1.1494463671583375e+00 2.0398433874378483e+01 1.4702667186443501e+01 2 1 0
4472 1 2.6033851872638247e+00 1.5542069198417332e+01 2.1553506708871552e+01 1 0 1
4533 1 3.1986351157951125e+00 1.3670674585470040e+01 2.4090094121226183e+01 2 0 1
2653 1 3.1453484260461551e-01 9.8938441634453920e+00 1.8117421008366453e+01 1 1 1
2649 1 7.3419091644530008e+00 1.3225677819841930e+01 2.1546296322354173e+01 -1 0 0
3665 1 9.2952860508729773e-01 1.9089417062457478e+01 1.7339677298697225e+01 0 -1 0
2039 1 5.1684264941678126e+00 1.2171019854882939e+01 2.2644012909522235e+01 0 1 0
1063 1 1.1367548340202712e+01 1.1515040323460394e+01 1.7068396295864261e+01 -2 0 0
978 1 6.9425038426377652e+00 2.1870132950083800e+01 2.3372799864617800e+01 0 1 1
4431 1 9.4080393765232930e+00 1.1449664782046309e+01 2.0455286258635091e+01 1 0 1
6298 1 1.5580866828871163e+00 1.7818589821852949e+01 2.0101903643484942e+01 -1 1 0
4609 1 4.1036432206488200e+00 1.7733262195190992e+01 2.3064801491170758e+01 0 0 1
2904 1 1.4619606902406197e+00 2.2253804638596673e+01 2.1087767909580908e+01 0 0 1
2761 1 8.0970536584798047e+00 1.1098433860311552e+00 2.3200864094866983e+01 0 2 1
3705 1 9.8686061847368780e+00 1.1121321843700056e+01 2.3652304610699659e+01 2 1 0
1828 1 9.6882732844740804e+00 2.3514587946571282e+01 2.3398737280352343e+01 -1 -2 0
2572 1 2.0274937246075369e+00 2.2413976224218882e+01 1.2527448796999957e+01 0 -1 1
5545 1 7.8283449063748147e+00 9.2352195649162745e+00 2.3817923756419102e+01 0 0 0
4269 1 1.2035668474240435e+01 2.2661431771333923e+01 2.3894877763812801e+01 1 0 1
113 1 1.1749819895185707e+01 2.0660276003677783e+01 1.2687537998195374e+01 1 -1 0
6137 1 2.2825736057591097e+00 9.8757261515708272e+00 1.2357280089468368e+01 0 0 1
4393 1 4.8332766367305648e+00 6.7450584084116754e+00 1.2302211475382387e+01 0 -1 1
1788 1 4.2616940967222217e+00 3.3844225059750501e+00 1.2234311472842752e+01 2 0 0
511 2 3.0077807426466663e-01 3.1065408357194197e+00 2.6757025316267359e+01 0 0 0
512 2 3.0077807426466663e-01 2.9955367119656628e-01 2.6757025316267359e+01 0 0 0
513 2 1.5162391705513667e+00 1.0013004623272301e+00 2.6757025316267359e+01 0 0 0
517 2 1.5162391705513667e+00 2.4047940445886771e+00 2.6757025316267359e+01 0 0 0
518 2 2.7317002668380668e+00 3.1065408357194197e+00 2.6757025316267359e+01 0 0 0
519 2 2.7317002668380668e+00 2.9955367119656628e-01 2.6757025316267359e+01 0 0 0
520 2 3.9471613631248288e+00 1.0013004623272301e+00 2.6757025316267359e+01 0 0 0
528 2 3.9471613631248288e+00 2.4047940445886771e+00 2.6757025316267359e+01 0 0 0
529 2 5.1626224594114669e+00 3.1065408357194197e+00 2.6757025316267359e+01 0 0 0
530 2 5.1626224594114669e+00 2.9955367119656628e-01 2.6757025316267359e+01 0 0 0
531 2 6.3780835556983675e+00 1.0013004623272301e+00 2.6757025316267359e+01 0 0 0
543 2 6.3780835556983675e+00 2.4047940445886771e+00 2.6757025316267359e+01 0 0 0
544 2 7.5935446519849910e+00 3.1065408357194197e+00 2.6757025316267359e+01 0 0 0
545 2 7.5935446519849910e+00 2.9955367119656628e-01 2.6757025316267359e+01 0 0 0
546 2 8.8090057482716588e+00 1.0013004623272301e+00 2.6757025316267359e+01 0 0 0
562 2 8.8090057482716588e+00 2.4047940445886771e+00 2.6757025316267359e+01 0 0 0
563 2 1.0024466844558267e+01 3.1065408357194197e+00 2.6757025316267359e+01 0 0 0
564 2 1.0024466844558267e+01 2.9955367119656628e-01 2.6757025316267359e+01 0 0 0
565 2 1.1239927940845050e+01 1.0013004623272301e+00 2.6757025316267359e+01 0 0 0
585 2 1.1239927940845050e+01 2.4047940445886771e+00 2.6757025316267359e+01 0 0 0
586 2 1.2455389037132068e+01 3.1065408357194197e+00 2.6757025316267359e+01 0 0 0
587 2 1.2455389037132068e+01 2.9955367119656628e-01 2.6757025316267359e+01 0 0 0
514 2 3.0077807426466663e-01 7.3170215825036804e+00 2.6757025316267359e+01 0 0 0
515 2 3.0077807426466663e-01 4.5100344179807879e+00 2.6757025316267359e+01 0 0 0
516 2 1.5162391705513667e+00 5.2117812091113729e+00 2.6757025316267359e+01 0 0 0
524 2 1.5162391705513667e+00 6.6152747913727028e+00 2.6757025316267359e+01 0 0 0
525 2 2.7317002668380668e+00 7.3170215825036804e+00 2.6757025316267359e+01 0 0 0
526 2 2.7317002668380668e+00 4.5100344179807879e+00 2.6757025316267359e+01 0 0 0
527 2 3.9471613631248288e+00 5.2117812091113729e+00 2.6757025316267359e+01 0 0 0
539 2 3.9471613631248288e+00 6.6152747913727028e+00 2.6757025316267359e+01 0 0 0
540 2 5.1626224594114669e+00 7.3170215825036804e+00 2.6757025316267359e+01 0 0 0
541 2 5.1626224594114669e+00 4.5100344179807879e+00 2.6757025316267359e+01 0 0 0
542 2 6.3780835556983675e+00 5.2117812091113729e+00 2.6757025316267359e+01 0 0 0
558 2 6.3780835556983675e+00 6.6152747913727028e+00 2.6757025316267359e+01 0 0 0
559 2 7.5935446519849910e+00 7.3170215825036804e+00 2.6757025316267359e+01 0 0 0
560 2 7.5935446519849910e+00 4.5100344179807879e+00 2.6757025316267359e+01 0 0 0
561 2 8.8090057482716588e+00 5.2117812091113729e+00 2.6757025316267359e+01 0 0 0
581 2 8.8090057482716588e+00 6.6152747913727028e+00 2.6757025316267359e+01 0 0 0
582 2 1.0024466844558267e+01 7.3170215825036804e+00 2.6757025316267359e+01 0 0 0
583 2 1.0024466844558267e+01 4.5100344179807879e+00 2.6757025316267359e+01 0 0 0
584 2 1.1239927940845050e+01 5.2117812091113729e+00 2.6757025316267359e+01 0 0 0
605 2 1.1239927940845050e+01 6.6152747913727028e+00 2.6757025316267359e+01 0 0 0
606 2 1.2455389037132068e+01 7.3170215825036804e+00 2.6757025316267359e+01 0 0 0
607 2 1.2455389037132068e+01 4.5100344179807879e+00 2.6757025316267359e+01 0 0 0
521 2 3.0077807426466663e-01 1.1527502329287980e+01 2.6757025316267359e+01 0 0 0
522 2 3.0077807426466663e-01 8.7205151647650094e+00 2.6757025316267359e+01 0 0 0
523 2 1.5162391705513667e+00 9.4222619558955376e+00 2.6757025316267359e+01 0 0 0
535 2 1.5162391705513667e+00 1.0825755538156928e+01 2.6757025316267359e+01 0 0 0
536 2 2.7317002668380668e+00 1.1527502329287980e+01 2.6757025316267359e+01 0 0 0
537 2 2.7317002668380668e+00 8.7205151647650094e+00 2.6757025316267359e+01 0 0 0
538 2 3.9471613631248288e+00 9.4222619558955376e+00 2.6757025316267359e+01 0 0 0
554 2 3.9471613631248288e+00 1.0825755538156928e+01 2.6757025316267359e+01 0 0 0
5884 1 3.4945371468121871e+00 7.0249569373173470e-01 2.4562395629724623e+01 1 0 1
555 2 5.1626224594114669e+00 1.1527502329287980e+01 2.6757025316267359e+01 0 0 0
556 2 5.1626224594114669e+00 8.7205151647650094e+00 2.6757025316267359e+01 0 0 0
557 2 6.3780835556983675e+00 9.4222619558955376e+00 2.6757025316267359e+01 0 0 0
577 2 6.3780835556983675e+00 1.0825755538156928e+01 2.6757025316267359e+01 0 0 0
578 2 7.5935446519849910e+00 1.1527502329287980e+01 2.6757025316267359e+01 0 0 0
579 2 7.5935446519849910e+00 8.7205151647650094e+00 2.6757025316267359e+01 0 0 0
1806 1 8.7781478162567126e+00 1.2372413267799393e+01 3.5625299660368590e+01 0 0 -1
580 2 8.8090057482716588e+00 9.4222619558955376e+00 2.6757025316267359e+01 0 0 0
601 2 8.8090057482716588e+00 1.0825755538156928e+01 2.6757025316267359e+01 0 0 0
602 2 1.0024466844558267e+01 1.1527502329287980e+01 2.6757025316267359e+01 0 0 0
603 2 1.0024466844558267e+01 8.7205151647650094e+00 2.6757025316267359e+01 0 0 0
604 2 1.1239927940845050e+01 9.4222619558955376e+00 2.6757025316267359e+01 0 0 0
625 2 1.1239927940845050e+01 1.0825755538156928e+01 2.6757025316267359e+01 0 0 0
626 2 1.2455389037132068e+01 1.1527502329287980e+01 2.6757025316267359e+01 0 0 0
627 2 1.2455389037132068e+01 8.7205151647650094e+00 2.6757025316267359e+01 0 0 0
532 2 3.0077807426466663e-01 1.5737983076071453e+01 2.6757025316267359e+01 0 0 0
533 2 3.0077807426466663e-01 1.2930995911548839e+01 2.6757025316267359e+01 0 0 0
534 2 1.5162391705513667e+00 1.3632742702679543e+01 2.6757025316267359e+01 0 0 0
550 2 1.5162391705513667e+00 1.5036236284940903e+01 2.6757025316267359e+01 0 0 0
551 2 2.7317002668380668e+00 1.5737983076071453e+01 2.6757025316267359e+01 0 0 0
552 2 2.7317002668380668e+00 1.2930995911548839e+01 2.6757025316267359e+01 0 0 0
553 2 3.9471613631248288e+00 1.3632742702679543e+01 2.6757025316267359e+01 0 0 0
573 2 3.9471613631248288e+00 1.5036236284940903e+01 2.6757025316267359e+01 0 0 0
574 2 5.1626224594114669e+00 1.5737983076071453e+01 2.6757025316267359e+01 0 0 0
575 2 5.1626224594114669e+00 1.2930995911548839e+01 2.6757025316267359e+01 0 0 0
576 2 6.3780835556983675e+00 1.3632742702679543e+01 2.6757025316267359e+01 0 0 0
597 2 6.3780835556983675e+00 1.5036236284940903e+01 2.6757025316267359e+01 0 0 0
598 2 7.5935446519849910e+00 1.5737983076071453e+01 2.6757025316267359e+01 0 0 0
599 2 7.5935446519849910e+00 1.2930995911548839e+01 2.6757025316267359e+01 0 0 0
600 2 8.8090057482716588e+00 1.3632742702679543e+01 2.6757025316267359e+01 0 0 0
621 2 8.8090057482716588e+00 1.5036236284940903e+01 2.6757025316267359e+01 0 0 0
622 2 1.0024466844558267e+01 1.5737983076071453e+01 2.6757025316267359e+01 0 0 0
623 2 1.0024466844558267e+01 1.2930995911548839e+01 2.6757025316267359e+01 0 0 0
624 2 1.1239927940845050e+01 1.3632742702679543e+01 2.6757025316267359e+01 0 0 0
642 2 1.1239927940845050e+01 1.5036236284940903e+01 2.6757025316267359e+01 0 0 0
643 2 1.2455389037132068e+01 1.5737983076071453e+01 2.6757025316267359e+01 0 0 0
644 2 1.2455389037132068e+01 1.2930995911548839e+01 2.6757025316267359e+01 0 0 0
5451 1 6.5461747122172813e+00 1.9312269700626672e+01 2.4251178441734123e+01 1 -1 0
547 2 3.0077807426466663e-01 1.9948463822855793e+01 2.6757025316267359e+01 0 0 0
548 2 3.0077807426466663e-01 1.7141476658333453e+01 2.6757025316267359e+01 0 0 0
549 2 1.5162391705513667e+00 1.7843223449464407e+01 2.6757025316267359e+01 0 0 0
569 2 1.5162391705513667e+00 1.9246717031724771e+01 2.6757025316267359e+01 0 0 0
570 2 2.7317002668380668e+00 1.9948463822855793e+01 2.6757025316267359e+01 0 0 0
571 2 2.7317002668380668e+00 1.7141476658333453e+01 2.6757025316267359e+01 0 0 0
572 2 3.9471613631248288e+00 1.7843223449464407e+01 2.6757025316267359e+01 0 0 0
593 2 3.9471613631248288e+00 1.9246717031724771e+01 2.6757025316267359e+01 0 0 0
594 2 5.1626224594114669e+00 1.9948463822855793e+01 2.6757025316267359e+01 0 0 0
595 2 5.1626224594114669e+00 1.7141476658333453e+01 2.6757025316267359e+01 0 0 0
596 2 6.3780835556983675e+00 1.7843223449464407e+01 2.6757025316267359e+01 0 0 0
617 2 6.3780835556983675e+00 1.9246717031724771e+01 2.6757025316267359e+01 0 0 0
618 2 7.5935446519849910e+00 1.9948463822855793e+01 2.6757025316267359e+01 0 0 0
619 2 7.5935446519849910e+00 1.7141476658333453e+01 2.6757025316267359e+01 0 0 0
906 1 2.4885110870050595e+00 1.9152274828388826e+01 2.4418448561061904e+01 0 0 1
620 2 8.8090057482716588e+00 1.7843223449464407e+01 2.6757025316267359e+01 0 0 0
638 2 8.8090057482716588e+00 1.9246717031724771e+01 2.6757025316267359e+01 0 0 0
639 2 1.0024466844558267e+01 1.9948463822855793e+01 2.6757025316267359e+01 0 0 0
640 2 1.0024466844558267e+01 1.7141476658333453e+01 2.6757025316267359e+01 0 0 0
641 2 1.1239927940845050e+01 1.7843223449464407e+01 2.6757025316267359e+01 0 0 0
655 2 1.1239927940845050e+01 1.9246717031724771e+01 2.6757025316267359e+01 0 0 0
657 2 1.2455389037132068e+01 1.7141476658333453e+01 2.6757025316267359e+01 0 0 0
313 1 1.0824739429931998e+00 7.0154700162833112e+00 2.4288982352181129e+01 0 1 0
613 2 3.9471613631248288e+00 2.3457197778509101e+01 2.6757025316267359e+01 0 0 0
566 2 3.0077807426466663e-01 2.4158944569639424e+01 2.6757025316267359e+01 0 0 0
567 2 3.0077807426466663e-01 2.1351957405117290e+01 2.6757025316267359e+01 0 0 0
568 2 1.5162391705513667e+00 2.2053704196248390e+01 2.6757025316267359e+01 0 0 0
589 2 1.5162391705513667e+00 2.3457197778509101e+01 2.6757025316267359e+01 0 0 0
590 2 2.7317002668380668e+00 2.4158944569639424e+01 2.6757025316267359e+01 0 0 0
591 2 2.7317002668380668e+00 2.1351957405117290e+01 2.6757025316267359e+01 0 0 0
592 2 3.9471613631248288e+00 2.2053704196248390e+01 2.6757025316267359e+01 0 0 0
203 1 5.2011822464282469e+00 1.5735701548889086e+01 2.4401381028582904e+01 -1 1 0