LAMMPS data file via write_data, version 16 Mar 2018, timestep = 6000000

6736 atoms
2 atom types

1.6846162463998837e-01 4.9051538375349097e+01 xlo xhi
1.6777585346075341e-01 4.8851860076947794e+01 ylo yhi
1.6597589001877111e-01 5.9896024109969176e+01 zlo zhi

Masses

1 18.015
2 12.01

Atoms # atomic

304 1 1.2381694587628514e+01 1.6778482080637332e+01 8.5581089253096430e+00 -1 2 0
4417 1 4.6192915855896306e+00 2.4920205474286150e+00 2.3046727489367309e+00 -2 -1 1
481 1 7.0576223628144863e+00 2.7952542008310570e+00 1.2871342318896914e+00 1 1 0
5509 1 1.1028494635041840e+01 1.4188738272979433e+00 1.4140335847330721e+00 0 0 0
3499 1 8.6928543254667670e+00 1.1935010855761166e+00 2.4407412179940282e+00 -2 -4 0
2665 1 1.0609444029005413e+01 2.3008492167556465e+01 9.4895721732480425e+00 0 3 1
1037 1 7.3936508418279134e-01 4.0265395923387537e+00 2.2440666460326031e+00 -3 -1 1
4295 1 3.2518853788140105e+00 4.4060373211757300e+00 1.3682132967873406e+00 -3 0 1
1741 1 4.0817320815036400e+00 7.0499224221372048e+00 2.0723159422359196e+00 3 -1 1
1185 1 6.5950941773688392e+00 7.3856460841352281e+00 1.1334145413169758e+00 -3 0 0
484 1 8.1401729493058461e+00 5.0908771312759544e+00 2.0530844314945442e+00 -2 -2 0
3804 1 1.0641840900957986e+01 5.5023204340331580e+00 1.2374031778396331e+00 1 0 0
812 1 1.1359136864388194e+01 7.6879221428191276e+00 2.2584485556442964e+00 -4 -1 1
5264 1 2.7029923455068947e+00 9.1285121225101662e+00 1.0636781824381025e+00 -4 -3 0
2032 1 3.5940118559669973e+00 1.0968204355270391e+01 2.3477946791833637e+00 -1 -2 0
360 1 7.5617086604671675e+00 9.5622325089134801e+00 2.1936805017776417e+00 3 0 0
1000 1 6.1457832084489556e+00 1.1641642961974096e+01 1.4697087865222918e+00 -2 0 1
40 1 1.0009556468938150e+01 9.7140124920533051e+00 1.4235939924553069e+00 2 2 1
378 1 1.0726051541560924e+01 1.2113036573244806e+01 2.1893700122111643e+00 0 1 0
4593 1 2.1453211560812040e+00 1.3190421328230936e+01 1.3159729062386214e+00 0 2 1
3511 1 2.8697059805136180e+00 1.5684111986785895e+01 2.4233251155335997e+00 1 2 0
4512 1 7.1656475754432680e+00 1.3998370740651804e+01 2.3697801669007577e+00 5 2 0
2101 1 5.4426460744603986e+00 1.5598462521970870e+01 1.3105174070777226e+00 1 2 0
6273 1 9.5211258889479904e+00 1.4230574353150923e+01 1.7085161939690434e+00 -2 -3 0
4206 1 1.2054791593208127e+00 1.7482574197214376e+01 1.3735193470848019e+00 1 3 1
149 1 2.1490324598882764e+00 1.9890023148284595e+01 2.1723619704736588e+00 0 -4 0
113 1 6.4053287202331441e+00 1.7975583388468554e+01 2.5445947510045785e+00 -1 -3 0
204 1 4.7669872668015305e+00 1.9926497955937389e+01 1.5233560184635018e+00 2 0 0
1003 1 1.0603130351016544e+01 1.6777189629002155e+01 2.1985522846870627e+00 3 0 1
4468 1 8.9162637759256249e+00 1.8507112235964808e+01 1.5081850296838317e+00 2 0 1
2078 1 6.2981289439855326e-01 2.1727537297726396e+01 1.2081598858835769e+00 -2 -2 0
3504 1 1.7959985516276631e+00 2.4040214482264194e+01 2.2499367753470980e+00 -4 -1 1
2855 1 2.6498578037425818e-01 8.4627332947296843e+00 4.6388256574364179e+00 -2 -2 1
2822 1 5.8675126303144403e+00 2.2345501979420746e+01 2.2278343481334959e+00 0 1 1
5378 1 8.2423767604247953e+00 2.2718321095100627e+01 1.3650760053886062e+00 0 1 0
899 1 9.9417609948436230e+00 2.0867033990529478e+01 2.6305336866267042e+00 1 -3 1
5296 1 5.5632394772408844e-01 2.1502633852675576e+01 8.6851491819768327e+00 -1 0 0
1101 1 7.3796018139825801e+00 2.0681469932422740e+01 9.5795094439934481e+00 1 1 1
2485 1 7.5878882602903719e-01 4.0819019509630170e+00 4.9270874482986873e+00 2 -4 1
1109 1 4.6164131252168241e+00 2.1472484765330653e+00 4.9394968506154928e+00 1 0 1
5469 1 7.0507661905130288e+00 2.7515045109126901e+00 5.9008414157339182e+00 1 1 1
953 1 1.1311012806695462e+01 1.2888730587406119e+00 6.3605682590624095e+00 3 4 1
2736 1 9.0375708870508191e+00 1.0915981290588763e+00 5.0670568699122853e+00 2 1 1
2886 1 4.6739135872704169e+00 2.0452091664134674e+01 8.9346647202155811e+00 3 1 1
6281 1 3.2772132147185844e+00 4.3092882554672389e+00 5.8707719115212544e+00 0 0 1
229 1 4.0345051516967594e+00 6.7097983331879920e+00 4.5687590863922702e+00 -2 0 0
4233 1 6.3779470196879657e+00 7.3672561034399529e+00 5.4506825684514020e+00 1 -4 1
2080 1 7.9813920855034679e+00 5.2263536038077527e+00 5.0921218951077138e+00 -1 -2 0
2884 1 1.0278176042756783e+01 5.5186616132054711e+00 6.2670466868531776e+00 -1 1 1
1768 1 1.1245668183418553e+01 7.7896242536655409e+00 4.9200510557637633e+00 1 1 0
5345 1 2.6601799314534391e+00 8.6342765788299847e+00 5.7120149899951045e+00 4 0 1
3865 1 3.2489246103945342e+00 1.1183657885258672e+01 5.0003452052456776e+00 -3 -1 1
5254 1 7.3720877471932047e+00 9.7793928509324353e+00 4.9322341477298588e+00 2 3 0
3591 1 5.6299007698548564e+00 1.1465748905273667e+01 5.8793656235538050e+00 0 -2 0
335 1 9.7538324658523337e+00 9.9110122070021891e+00 5.8954371136551051e+00 -1 0 0
5105 1 1.0656732900901240e+01 1.2374054170003266e+01 5.0470494562839825e+00 5 0 0
4303 1 1.9876861142822912e+00 1.3337983437462597e+01 6.1093897802736823e+00 2 2 1
2120 1 2.8169879811731855e+00 1.5608686598212538e+01 5.0556200669142299e+00 1 -1 0
3622 1 6.8775668939972698e+00 1.3752263118627136e+01 4.9543630543333599e+00 -1 0 0
189 1 5.3087123758158397e+00 1.5789056559458768e+01 6.2815817185917240e+00 3 1 0
1236 1 9.3493625804361091e+00 1.4176669182171107e+01 6.0676000727566946e+00 -5 4 1
4584 1 1.1968347269794395e+00 1.7339092179639628e+01 6.0003521915209408e+00 0 -1 0
950 1 2.4439716849585054e+00 1.9596504725552521e+01 5.1657208773110197e+00 2 -1 0
2670 1 6.1046635349106975e+00 1.8343405213194217e+01 5.3250103419768857e+00 -2 -1 1
2094 1 4.6928140533433051e+00 2.0287714355356282e+01 6.3839577625675306e+00 2 -1 0
2484 1 1.0461507735851679e+01 1.6341233643635174e+01 4.9535282671554697e+00 -3 1 1
2203 1 8.6653461789718538e+00 1.8297673686603002e+01 6.1023213871153770e+00 4 -1 0
2684 1 4.1512727609336757e+00 2.4479326117587487e+01 5.8546229613641581e+00 0 3 1
368 1 7.5317789284153192e-01 2.1726811352201068e+01 5.9103398334884272e+00 -3 -1 0
3793 1 8.2237825885768885e+00 2.3079526747769002e+01 8.6088843796262946e+00 3 -1 0
5822 1 5.4713024940744113e+00 2.2338561880930616e+01 4.9522058183605093e+00 1 -3 1
2864 1 7.9711493737761350e+00 2.2861037737771962e+01 6.0839884308212113e+00 0 1 0
25 1 9.6638103963229600e+00 2.0711867761291277e+01 5.2805917645096079e+00 -1 -2 0
3772 1 1.2162574744562743e+01 2.1129122664912384e+01 5.8636774593410275e+00 1 -1 1
39 1 2.3421358365950065e+00 2.0179443602347140e+00 9.6422894997919073e+00 -2 2 0
5340 1 3.0987481537460675e+00 4.3710444101957275e+00 8.6716154239266245e+00 1 -2 0
2867 1 4.0941144672530845e+00 1.7774339851217707e+01 9.6874176450571863e+00 0 0 1
5549 1 7.2808220065705340e+00 2.6937082140939221e+00 8.5417448424359268e+00 2 3 0
1248 1 8.6168926582442733e+00 1.8445655512617442e+01 8.9696589365746888e+00 0 0 1
2001 1 1.1229217620477289e+01 1.0650238618253423e+00 9.0882668062301786e+00 -3 0 0
4515 1 9.9012179755597032e+00 3.3117560777854678e+00 9.7350358820683738e+00 -4 4 0
1136 1 1.5435015421799081e+00 6.2843591215703842e+00 9.5721324547015119e+00 -2 2 1
2013 1 5.6647758982268330e+00 4.6963854677769703e+00 9.5074824717651580e+00 0 3 0
1957 1 6.5628435892849675e+00 6.8870710533702741e+00 8.1324285872465349e+00 -2 -1 0
2170 1 1.0822330616126495e+01 5.4794044254019196e+00 8.9917695605299635e+00 0 1 0
1106 1 8.9930314555582189e+00 7.3510305769154298e+00 9.6059452035410455e+00 0 1 1
2698 1 1.1136611903436924e+01 1.8761412665729203e+01 9.4543975734067267e+00 1 3 1
1147 1 2.6338488896783825e+00 8.5136198988513989e+00 8.4617442083930463e+00 -3 0 1
6063 1 1.0354363711506154e+00 1.0564646515409587e+01 9.2415172520901514e+00 5 1 1
5236 1 5.8634218407624852e+00 1.1441190456219685e+01 8.5593473669348867e+00 0 -4 0
5154 1 5.2047227527893973e+00 8.7558421979519760e+00 9.3026130033584522e+00 3 5 1
1755 1 4.1211469390603046e+00 2.4083455477337530e+01 1.1832880812784461e+00 -3 1 0
2109 1 8.2722271403117755e+00 1.1897421545345834e+01 1.0011281428014907e+01 4 -2 0
4410 1 9.8937463918572828e+00 9.9324886460054653e+00 8.7942078480094228e+00 -4 3 0
24 1 1.6957951287886830e+00 1.7224066534583969e+01 8.6797943674720788e+00 3 -1 0
3410 1 1.1976576771468451e+01 3.4683655210929616e+00 2.5075801595770946e+00 4 -3 0
1816 1 1.5478287538242443e+00 1.3065448944162016e+01 8.6594102321890496e+00 0 -1 0
2192 1 4.1321400067073268e+00 1.3159059084351590e+01 9.6042899894326244e+00 -1 -2 0
1249 1 5.1821341819134563e+00 1.5603834195514054e+01 9.0139571123949125e+00 -1 1 0
4450 1 7.7778141971674915e+00 1.6119061239301473e+01 9.7198743100413747e+00 3 0 1
4187 1 2.9961778387310933e+00 2.2194784926260599e+01 9.6222286427677517e+00 2 1 0
4322 1 1.1657358368022690e+01 1.4240577606928300e+01 9.4956767076563455e+00 1 -2 1
464 1 9.1326355859502009e+00 1.4068123453494174e+01 8.7192091076551090e+00 -2 -1 0
5836 1 3.7366680509860219e+00 2.4483412968072507e+01 8.6630526494209601e+00 1 -2 0
176 1 3.2366343114605201e-01 1.5130313581900657e+01 9.7531867563385877e+00 -1 2 0
3628 1 1.2153171266915953e+01 2.1023348425707045e+01 8.5257351205538683e+00 -5 1 0
6241 1 1.7460769714493307e+00 2.3780329726273294e+01 4.9386008693738725e+00 2 0 1
1878 1 1.1710176534087042e+01 3.6667975458141888e+00 5.2837972552080377e+00 -3 6 1
1030 1 8.9583192381736598e-01 1.0945287226797950e+01 1.1974158953437779e+01 0 0 1
3483 1 6.5829143313084035e+00 4.8791516749032887e-01 9.4798680377658133e+00 -2 0 0
3845 1 4.3990633982951026e+00 1.3109382409007786e+01 1.2094176454768288e+01 0 -2 0
5135 1 1.0484789465161453e+01 2.2801202279357852e+01 1.2022167454357838e+01 0 -1 0
5125 1 7.4819789056366248e-01 3.7902993003485896e+00 1.3473398241630075e+01 0 -2 0
4542 1 9.1758513579149892e-01 4.1834210136361163e+00 1.6061543365249641e+01 2 3 1
4366 1 4.0507675508400318e+00 2.4029864297248025e+01 2.0949337227936113e+01 1 2 1
289 1 4.8539811253990264e+00 2.5197049403910561e+00 1.2927271464528097e+01 -1 -3 0
4469 1 4.8411226632597302e+00 2.3064456130553763e+00 1.5448303475586895e+01 0 0 1
311 1 8.9018580090516402e+00 8.7900152512655483e-01 1.3191658956511640e+01 2 3 1
1228 1 8.7053546409593103e+00 7.6144599981431083e-01 1.5977519033371140e+01 -1 6 1
4548 1 1.1681091804469183e+01 2.0645261181297812e+01 2.3701212733802191e+01 2 -1 1
68 1 8.7663433095109262e+00 2.4467103390421798e+01 1.3153767672671512e+01 -1 0 0
848 1 4.2047988727935959e+00 6.7341907800376690e+00 1.5896979355234770e+01 2 1 1
469 1 4.2158419774293838e+00 6.7131851328006960e+00 1.3211830776192475e+01 0 -1 0
5578 1 6.2954111933024617e+00 2.3797817520074385e+00 2.3245461096583128e+01 3 0 0
5361 1 7.9859182150514458e+00 5.0357893704670831e+00 1.3203840459876151e+01 1 2 0
1841 1 8.2293445708040807e+00 4.5140377359377588e+00 1.5603318483330181e+01 0 2 0
407 1 1.1535498067212243e+01 7.7063754753243190e+00 1.3161574311696778e+01 0 0 0
4500 1 3.3180858140237519e+00 1.0962630718611992e+01 1.3084576077966307e+01 0 1 0
926 1 3.7145382639346276e+00 1.0943363612398366e+01 1.5822335688658889e+01 -1 0 1
2424 1 3.8205725531385615e+00 1.7530594321406113e+01 1.2478509348059688e+01 3 -3 1
2638 1 7.2797013689350969e+00 2.0024012059729781e+01 1.2137907737375299e+01 -1 2 1
2198 1 7.4286856452778203e+00 9.2538439905740972e+00 1.3308573071208103e+01 2 -1 0
506 1 7.5758112433110076e+00 9.1411395769852390e+00 1.6140605898161560e+01 -2 -2 0
2027 1 1.1170257081133235e+01 1.1773899368140066e+01 1.3294364540353682e+01 0 0 0
6239 1 1.0842589220893856e+01 1.2243072587965512e+01 1.6013794046585133e+01 1 4 0
5803 1 2.9426770072741508e+00 1.5335707796195177e+01 1.3230528904756776e+01 0 1 1
6305 1 5.0381231750691811e+00 8.9419430185701909e+00 1.2249862395478338e+01 3 -2 0
2030 1 6.7687798086423765e+00 1.3622551230410091e+01 1.2695860867831945e+01 0 -1 0
769 1 6.7607022353895188e+00 1.3708839745962552e+01 1.5469396610321606e+01 0 -1 1
325 1 1.2088452456862239e+01 1.0001984625125989e+01 1.9768895280454824e+01 -1 -1 0
471 1 1.0125555762926293e+01 1.6175479213801523e+01 1.3091366558354430e+01 0 1 0
6069 1 6.0180849026541123e+00 1.6083404431275397e+01 2.3721277842583952e+01 0 4 1
4452 1 2.2362260478467628e+00 1.9434762744985232e+01 1.3176544163419491e+01 -3 2 1
5112 1 2.2755926130220616e+00 1.9530673266541427e+01 1.5764177047821928e+01 0 0 1
1907 1 2.8729466614224100e+00 2.2041638698885585e+01 1.2316666038424113e+01 3 -2 0
4534 1 7.6195433194461515e+00 1.6195062559730811e+01 1.2168574095721391e+01 2 -3 0
5507 1 6.3984080342311156e+00 1.7754190664667561e+01 1.3293480428356684e+01 0 2 0
1035 1 6.2608251939663715e+00 1.7483416934411412e+01 1.5928801832526130e+01 2 -5 1
815 1 1.0336858635979040e+01 1.6008538852663975e+01 1.5874227591318489e+01 0 -3 1
5815 1 2.6590348334234759e-01 1.3304952459464003e+00 2.0738904277694992e+01 2 0 1
1160 1 1.5057093044180694e+00 2.4194933452479205e+01 1.3308436002197121e+01 2 1 1
1870 1 1.8075994319228144e+00 2.3796299125817274e+01 1.6263141249993140e+01 3 -4 0
973 1 2.6046209643826130e+00 2.3949194500104532e+01 2.3725313132007862e+01 0 2 1
2845 1 5.4803786738616829e+00 2.1917122161251921e+01 1.3116260040664256e+01 0 1 1
2648 1 5.3843066872489631e+00 2.2235942335953510e+01 1.5803985527261776e+01 0 1 1
5485 1 1.1745945957705981e+01 1.4129442714625565e+01 1.2186720544757213e+01 1 2 0
2894 1 3.7061978131072820e-01 1.5076761088813242e+01 1.2408922963708546e+01 1 0 1
3785 1 9.5251112296034162e+00 2.0589352707146091e+01 1.3162347275325228e+01 1 -1 0
4294 1 2.4386535414449098e+00 2.1202772379582040e+00 1.6636216255017047e+01 2 -3 1
3560 1 2.4986692337527119e+00 2.0999512155206568e+00 1.9452594080915691e+01 1 1 0
1097 1 3.4649660951481914e-01 1.5769350468226067e+00 2.3383924054272047e+01 2 -1 1
3757 1 2.3066960072077625e+00 2.1108946870046550e+00 1.2235289930823935e+01 -2 2 0
320 1 9.8270224762104306e+00 2.7175718495184760e+00 1.7050408765146475e+01 2 0 0
6167 1 9.7197101935868631e+00 2.9739132478202128e+00 1.9879382260634713e+01 0 4 1
2851 1 1.6907841215833050e+00 6.4689109344405979e+00 1.7017105035424937e+01 -1 -1 0
6149 1 2.0966232375633611e+00 6.3473763528883875e+00 1.9586592568462748e+01 -1 0 0
1182 1 5.7536323343086559e+00 4.5771299579513363e+00 1.6571808655951685e+01 1 3 1
1832 1 5.7453969406023608e+00 4.5176679022125219e+00 1.9280393041699487e+01 -2 4 0
2898 1 1.1326495374101016e+01 7.7059871114136769e+00 1.6092757448254488e+01 -1 2 1
1125 1 8.9186995383927439e+00 7.0570823253748323e+00 1.6898134340445104e+01 0 3 0
489 1 8.7254958805480527e+00 7.2461592580173031e+00 1.9775478684986254e+01 -2 1 0
2451 1 1.4153695680076950e+00 1.0867379001750953e+01 1.7063560665386557e+01 -2 3 1
34 1 1.3672334604542167e+00 1.0676936018791340e+01 1.9639139766107789e+01 0 -1 1
2819 1 5.0506951869152523e+00 8.9367445112814590e+00 1.7003514060878253e+01 1 1 1
1127 1 5.3394400259089130e+00 9.2508616720838219e+00 1.9574514386246786e+01 -1 6 1
5416 1 8.3081901655724284e+00 1.1850964313118284e+01 1.6735317135238105e+01 1 -1 0
5495 1 8.3643709559784956e+00 1.1899192013519531e+01 1.9453409154723357e+01 -2 1 0
2166 1 1.2052049115234205e+01 2.0807548061294423e+01 2.0880452336512331e+01 -3 0 1
4455 1 2.5219334678880436e+00 1.5179284752734658e+01 1.6126492230349758e+01 1 1 1
2126 1 5.0956208051474716e+00 6.8478688800241976e+00 2.3586977693922993e+01 4 2 0
3868 1 7.8509655257740052e+00 1.3966646604118777e+01 2.3688068618116137e+01 -2 -1 0
1200 1 4.3423647322870034e+00 1.3261123624782533e+01 1.6559952531544308e+01 0 -2 1
4312 1 4.4982012023818942e+00 1.3117729683223919e+01 1.9368886796661155e+01 -1 -2 1
6001 1 7.9481012143876404e+00 1.5664115624163205e+01 1.6784522945792013e+01 -1 1 1
5392 1 7.7512960517848928e+00 1.5965826291412650e+01 1.9518729700595941e+01 -1 0 0
4324 1 1.1712291106419309e+01 1.4339069841633332e+01 1.9935125696336801e+01 0 -1 1
3592 1 1.1967934210728673e+01 1.4364987407931610e+01 1.7276647408374160e+01 1 -1 0
1222 1 7.7670581112233501e+00 1.8458187746149129e+01 2.3628545165164496e+01 0 1 1
2033 1 3.7894709839259528e+00 1.7223077082336314e+01 1.9792694580354411e+01 -1 -1 0
2025 1 3.8039975578488203e+00 1.7447538485455286e+01 1.7083182181362478e+01 -1 2 0
2043 1 6.8501529055854293e+00 2.0011231704112532e+01 1.9517685633480109e+01 -3 0 0
6275 1 1.1176354333424085e+01 1.8536164298898104e+01 1.9634439722142687e+01 2 3 1
4461 1 1.1004699979101746e+01 1.8520680547455662e+01 1.6983996726705659e+01 1 -2 1
3641 1 3.5283759392045462e+00 2.1673823652183021e+01 1.7181646574632524e+01 1 0 0
4581 1 3.0631075295987120e+00 2.1922649411523519e+01 1.9743319832038409e+01 0 -4 1
4413 1 7.1224894738151185e+00 2.0081184416579223e+01 1.6709639052070390e+01 1 -2 1
4545 1 1.0606157512169743e+01 2.2941143003893025e+01 1.9832402861090433e+01 1 0 1
3795 1 9.4279603642086869e+00 2.0448939773601762e+01 1.5822933551037533e+01 2 -1 0
2168 1 1.0415409425556767e+01 2.2740090129620619e+01 1.7082073039982422e+01 -3 2 0
2493 1 8.0316759986228767e+00 2.2355316821393750e+01 2.0266184858533418e+01 2 -1 1
2840 1 1.0104156154231482e+01 2.2974758622425806e+01 2.3733950172945423e+01 -2 1 1
2849 1 6.9605373056892699e+00 2.7451604922151254e+00 2.0623712370828986e+01 -1 4 1
1976 1 9.6457964254579132e+00 3.1303794013208464e+00 1.2672358751289032e+01 1 6 0
392 1 1.0750177141920197e+01 6.3951859797986899e-01 2.0740505521020083e+01 0 3 0
2053 1 6.4645778165220218e+00 4.2046354601610658e-01 1.9323351364983733e+01 -2 3 0
5915 1 2.6957692411660665e+00 1.3117337967331485e+01 2.3092910004226304e+01 0 -1 1
5860 1 1.0546174196131179e+01 7.9406844761717954e-01 2.3267500105494761e+01 1 0 1
2654 1 3.4522876010510815e+00 4.4018259375255102e+00 2.0529635821197104e+01 0 1 1
1043 1 7.8846591891094153e+00 7.0022077617218184e+00 2.4040142889821819e+01 2 3 1
6116 1 5.9316202629237331e+00 6.6953843035754019e+00 2.1014779845593210e+01 -2 2 1
5108 1 9.0314564789544729e+00 7.3563685629601334e+00 1.2471060135168990e+01 4 -1 1
5964 1 1.0370357770470289e+01 5.4699666849395658e+00 2.0857110434312698e+01 1 2 1
6088 1 9.9794765465060156e+00 4.9503365805954544e+00 2.3464354748900668e+01 0 3 1
2487 1 3.0936166456553553e+00 8.7631021026978129e+00 2.3550059568450383e+01 2 0 0
4282 1 8.7924642269904414e+00 9.7114807009674156e+00 2.3327516069824799e+01 1 3 1
3676 1 2.8983726411478998e+00 8.8818667331381356e+00 2.0856402398127113e+01 0 0 0
3446 1 6.6173214662951114e+00 7.9937927581656953e-01 1.2247186041103985e+01 -1 2 1
1148 1 6.0924486236215945e+00 1.1503085068743964e+01 2.0801638186447310e+01 -1 0 1
4483 1 9.6353640989640006e+00 9.5586302557202529e+00 2.0701957403340408e+01 -1 -5 0
107 1 6.4271923271159581e+00 2.5203269991797628e-01 1.6716238192795071e+01 1 -1 1
4243 1 7.5160534448042737e-01 2.1548242858480652e+01 2.0163015345590175e+01 1 1 1
4253 1 1.9633423255399352e+00 1.3170179261814692e+01 2.0521486774122213e+01 -1 3 1
88 1 1.2235306482141331e+01 1.6466695423871339e+01 2.3175659562692097e+01 -3 -3 0
2157 1 5.1825381844109799e+00 1.5323525057689716e+01 2.0896949693883219e+01 1 2 1
2540 1 4.0499905869321804e+00 4.5369358063358547e+00 2.3286373351567327e+01 -2 5 1
3606 1 1.7362602686905498e-01 1.4849692801909134e+01 1.7145255901596176e+01 0 1 0
759 1 6.3911785222507715e+00 2.4390055118965837e+01 1.9503473172292939e+01 -1 0 1
4613 1 8.8928273092933470e+00 1.4197661431972913e+01 2.0871719836570890e+01 -1 -2 0
4119 1 5.9492048479878035e+00 2.0658764924592319e+01 2.3320875013108424e+01 -2 0 1
4220 1 1.2414522155540186e+00 1.7195276140246193e+01 2.0804541640668646e+01 3 -1 1
2903 1 8.6404440555120789e+00 1.1851696999626281e+01 1.2700474504637940e+01 -1 2 0
5303 1 4.4194919893785345e+00 1.9794804206845299e+01 2.1048309623433905e+01 0 -3 0
3810 1 8.9648273534330036e-01 2.2029505628627707e+01 2.3004989786018122e+01 -5 1 0
1196 1 8.4870350864990112e+00 1.8464475046268458e+01 2.0706682287782041e+01 -1 -2 1
487 1 7.5603641818906029e+00 2.2627950128672836e+01 2.2920410582806046e+01 0 -1 0
2103 1 1.7266659867832990e-01 8.4833212734701284e+00 1.3379595572744387e+01 1 -3 0
1802 1 1.5899706442582928e+00 1.7579240386910399e+01 2.3370130814909714e+01 -1 -1 0
2696 1 1.1093344432845271e+01 1.8311195811168499e+01 1.2181530152646733e+01 0 5 1
2199 1 5.7524595538919012e+00 4.8521329724197937e+00 1.2305627571931085e+01 -1 1 0
2003 1 1.5204176271565986e+00 6.3271800129772187e+00 1.2377870131786834e+01 3 -1 0
3664 1 7.0079172371081295e+00 1.1664024934974504e+01 2.3247173271470427e+01 -4 1 0
2674 1 1.2303357589392990e+01 3.4325879248232924e+00 1.6074511713120813e+01 0 2 1
5953 1 1.0783657169095726e+01 1.4072501320909394e+01 2.3710231574093569e+01 2 1 1
4430 1 2.5920438843536973e+00 2.0067447981493949e+01 2.3433850003307050e+01 2 0 1
5978 1 1.5937884696509523e+00 3.8963407726932142e+00 2.3813326445270455e+01 -2 2 1
891 1 1.2210145255059313e+01 3.5072072756361861e+00 1.3513363772805686e+01 -5 -3 1
418 1 6.3360286530378502e+00 2.4266184969713702e+01 1.2176727435714868e+01 -1 -4 0
511 2 1.6846162463998837e-01 2.9900416055474652e+00 2.6739204889599495e+01 0 0 0
512 2 1.6846162463998837e-01 1.6777585346075341e-01 2.6739204889599495e+01 0 0 0
513 2 1.3905385434083057e+00 8.7334229148220699e-01 2.6739204889599495e+01 0 0 0
517 2 1.3905385434083057e+00 2.2844751675261925e+00 2.6739204889599495e+01 0 0 0
518 2 2.6126154621766231e+00 2.9900416055474652e+00 2.6739204889599495e+01 0 0 0
519 2 2.6126154621766231e+00 1.6777585346075341e-01 2.6739204889599495e+01 0 0 0
520 2 3.8346923809443427e+00 8.7334229148220699e-01 2.6739204889599495e+01 0 0 0
528 2 3.8346923809443427e+00 2.2844751675261925e+00 2.6739204889599495e+01 0 0 0
529 2 5.0567692997132578e+00 2.9900416055474652e+00 2.6739204889599495e+01 0 0 0
530 2 5.0567692997132578e+00 1.6777585346075341e-01 2.6739204889599495e+01 0 0 0
531 2 6.2788462184786251e+00 8.7334229148220699e-01 2.6739204889599495e+01 0 0 0
543 2 6.2788462184786251e+00 2.2844751675261925e+00 2.6739204889599495e+01 0 0 0
544 2 7.5009231372462510e+00 2.9900416055474652e+00 2.6739204889599495e+01 0 0 0
545 2 7.5009231372462510e+00 1.6777585346075341e-01 2.6739204889599495e+01 0 0 0
546 2 8.7230000560130438e+00 8.7334229148220699e-01 2.6739204889599495e+01 0 0 0
562 2 8.7230000560130438e+00 2.2844751675261925e+00 2.6739204889599495e+01 0 0 0
563 2 9.9450769747865273e+00 2.9900416055474652e+00 2.6739204889599495e+01 0 0 0
564 2 9.9450769747865273e+00 1.6777585346075341e-01 2.6739204889599495e+01 0 0 0
565 2 1.1167153893547029e+01 8.7334229148220699e-01 2.6739204889599495e+01 0 0 0
585 2 1.1167153893547029e+01 2.2844751675261925e+00 2.6739204889599495e+01 0 0 0
586 2 1.2389230812317262e+01 2.9900416055474652e+00 2.6739204889599495e+01 0 0 0
587 2 1.2389230812317262e+01 1.6777585346075341e-01 2.6739204889599495e+01 0 0 0
514 2 1.6846162463998837e-01 7.2234402336768033e+00 2.6739204889599495e+01 0 0 0
515 2 1.6846162463998837e-01 4.4011744815916316e+00 2.6739204889599495e+01 0 0 0
516 2 1.3905385434083057e+00 5.1067409196122098e+00 2.6739204889599495e+01 0 0 0
524 2 1.3905385434083057e+00 6.5178737956565662e+00 2.6739204889599495e+01 0 0 0
525 2 2.6126154621766231e+00 7.2234402336768033e+00 2.6739204889599495e+01 0 0 0
526 2 2.6126154621766231e+00 4.4011744815916316e+00 2.6739204889599495e+01 0 0 0
527 2 3.8346923809443427e+00 5.1067409196122098e+00 2.6739204889599495e+01 0 0 0
539 2 3.8346923809443427e+00 6.5178737956565662e+00 2.6739204889599495e+01 0 0 0
540 2 5.0567692997132578e+00 7.2234402336768033e+00 2.6739204889599495e+01 0 0 0
541 2 5.0567692997132578e+00 4.4011744815916316e+00 2.6739204889599495e+01 0 0 0
542 2 6.2788462184786251e+00 5.1067409196122098e+00 2.6739204889599495e+01 0 0 0
558 2 6.2788462184786251e+00 6.5178737956565662e+00 2.6739204889599495e+01 0 0 0
559 2 7.5009231372462510e+00 7.2234402336768033e+00 2.6739204889599495e+01 0 0 0
560 2 7.5009231372462510e+00 4.4011744815916316e+00 2.6739204889599495e+01 0 0 0
561 2 8.7230000560130438e+00 5.1067409196122098e+00 2.6739204889599495e+01 0 0 0
581 2 8.7230000560130438e+00 6.5178737956565662e+00 2.6739204889599495e+01 0 0 0
582 2 9.9450769747865273e+00 7.2234402336768033e+00 2.6739204889599495e+01 0 0 0
583 2 9.9450769747865273e+00 4.4011744815916316e+00 2.6739204889599495e+01 0 0 0
584 2 1.1167153893547029e+01 5.1067409196122098e+00 2.6739204889599495e+01 0 0 0
605 2 1.1167153893547029e+01 6.5178737956565662e+00 2.6739204889599495e+01 0 0 0
606 2 1.2389230812317262e+01 7.2234402336768033e+00 2.6739204889599495e+01 0 0 0
607 2 1.2389230812317262e+01 4.4011744815916316e+00 2.6739204889599495e+01 0 0 0
434 1 8.7156765079993495e+00 2.8246530707782784e+00 2.4108238792384132e+01 -4 -3 0
521 2 1.6846162463998837e-01 1.1456838861807601e+01 2.6739204889599495e+01 0 0 0
522 2 1.6846162463998837e-01 8.6345731097225098e+00 2.6739204889599495e+01 0 0 0
523 2 1.3905385434083057e+00 9.3401395477453857e+00 2.6739204889599495e+01 0 0 0
535 2 1.3905385434083057e+00 1.0751272423787610e+01 2.6739204889599495e+01 0 0 0
536 2 2.6126154621766231e+00 1.1456838861807601e+01 2.6739204889599495e+01 0 0 0
537 2 2.6126154621766231e+00 8.6345731097225098e+00 2.6739204889599495e+01 0 0 0
538 2 3.8346923809443427e+00 9.3401395477453857e+00 2.6739204889599495e+01 0 0 0
554 2 3.8346923809443427e+00 1.0751272423787610e+01 2.6739204889599495e+01 0 0 0
555 2 5.0567692997132578e+00 1.1456838861807601e+01 2.6739204889599495e+01 0 0 0
556 2 5.0567692997132578e+00 8.6345731097225098e+00 2.6739204889599495e+01 0 0 0
557 2 6.2788462184786251e+00 9.3401395477453857e+00 2.6739204889599495e+01 0 0 0
577 2 6.2788462184786251e+00 1.0751272423787610e+01 2.6739204889599495e+01 0 0 0
578 2 7.5009231372462510e+00 1.1456838861807601e+01 2.6739204889599495e+01 0 0 0
579 2 7.5009231372462510e+00 8.6345731097225098e+00 2.6739204889599495e+01 0 0 0
580 2 8.7230000560130438e+00 9.3401395477453857e+00 2.6739204889599495e+01 0 0 0
601 2 8.7230000560130438e+00 1.0751272423787610e+01 2.6739204889599495e+01 0 0 0
602 2 9.9450769747865273e+00 1.1456838861807601e+01 2.6739204889599495e+01 0 0 0
603 2 9.9450769747865273e+00 8.6345731097225098e+00 2.6739204889599495e+01 0 0 0
604 2 1.1167153893547029e+01 9.3401395477453857e+00 2.6739204889599495e+01 0 0 0
625 2 1.1167153893547029e+01 1.0751272423787610e+01 2.6739204889599495e+01 0 0 0
626 2 1.2389230812317262e+01 1.1456838861807601e+01 2.6739204889599495e+01 0 0 0
627 2 1.2389230812317262e+01 8.6345731097225098e+00 2.6739204889599495e+01 0 0 0
1826 1 1.1456311687240566e+01 1.0005034990406385e+01 2.4059460369588479e+01 -1 3 0
532 2 1.6846162463998837e-01 1.5690237489930292e+01 2.6739204889599495e+01 0 0 0
533 2 1.6846162463998837e-01 1.2867971737852379e+01 2.6739204889599495e+01 0 0 0
534 2 1.3905385434083057e+00 1.3573538175873615e+01 2.6739204889599495e+01 0 0 0
550 2 1.3905385434083057e+00 1.4984671051913180e+01 2.6739204889599495e+01 0 0 0
551 2 2.6126154621766231e+00 1.5690237489930292e+01 2.6739204889599495e+01 0 0 0
552 2 2.6126154621766231e+00 1.2867971737852379e+01 2.6739204889599495e+01 0 0 0
553 2 3.8346923809443427e+00 1.3573538175873615e+01 2.6739204889599495e+01 0 0 0
573 2 3.8346923809443427e+00 1.4984671051913180e+01 2.6739204889599495e+01 0 0 0
574 2 5.0567692997132578e+00 1.5690237489930292e+01 2.6739204889599495e+01 0 0 0
575 2 5.0567692997132578e+00 1.2867971737852379e+01 2.6739204889599495e+01 0 0 0
576 2 6.2788462184786251e+00 1.3573538175873615e+01 2.6739204889599495e+01 0 0 0
597 2 6.2788462184786251e+00 1.4984671051913180e+01 2.6739204889599495e+01 0 0 0
598 2 7.5009231372462510e+00 1.5690237489930292e+01 2.6739204889599495e+01 0 0 0
599 2 7.5009231372462510e+00 1.2867971737852379e+01 2.6739204889599495e+01 0 0 0
600 2 8.7230000560130438e+00 1.3573538175873615e+01 2.6739204889599495e+01 0 0 0
621 2 8.7230000560130438e+00 1.4984671051913180e+01 2.6739204889599495e+01 0 0 0
622 2 9.9450769747865273e+00 1.5690237489930292e+01 2.6739204889599495e+01 0 0 0
623 2 9.9450769747865273e+00 1.2867971737852379e+01 2.6739204889599495e+01 0 0 0
624 2 1.1167153893547029e+01 1.3573538175873615e+01 2.6739204889599495e+01 0 0 0
642 2 1.1167153893547029e+01 1.4984671051913180e+01 2.6739204889599495e+01 0 0 0
643 2 1.2389230812317262e+01 1.5690237489930292e+01 2.6739204889599495e+01 0 0 0
644 2 1.2389230812317262e+01 1.2867971737852379e+01 2.6739204889599495e+01 0 0 0
547 2 1.6846162463998837e-01 1.9923636118066579e+01 2.6739204889599495e+01 0 0 0
548 2 1.6846162463998837e-01 1.7101370365984266e+01 2.6739204889599495e+01 0 0 0
549 2 1.3905385434083057e+00 1.7806936804001865e+01 2.6739204889599495e+01 0 0 0
569 2 1.3905385434083057e+00 1.9218069680047787e+01 2.6739204889599495e+01 0 0 0
570 2 2.6126154621766231e+00 1.9923636118066579e+01 2.6739204889599495e+01 0 0 0
571 2 2.6126154621766231e+00 1.7101370365984266e+01 2.6739204889599495e+01 0 0 0
572 2 3.8346923809443427e+00 1.7806936804001865e+01 2.6739204889599495e+01 0 0 0
593 2 3.8346923809443427e+00 1.9218069680047787e+01 2.6739204889599495e+01 0 0 0
594 2 5.0567692997132578e+00 1.9923636118066579e+01 2.6739204889599495e+01 0 0 0
595 2 5.0567692997132578e+00 1.7101370365984266e+01 2.6739204889599495e+01 0 0 0
596 2 6.2788462184786251e+00 1.7806936804001865e+01 2.6739204889599495e+01 0 0 0
617 2 6.2788462184786251e+00 1.9218069680047787e+01 2.6739204889599495e+01 0 0 0
618 2 7.5009231372462510e+00 1.9923636118066579e+01 2.6739204889599495e+01 0 0 0
619 2 7.5009231372462510e+00 1.7101370365984266e+01 2.6739204889599495e+01 0 0 0
620 2 8.7230000560130438e+00 1.7806936804001865e+01 2.6739204889599495e+01 0 0 0
638 2 8.7230000560130438e+00 1.9218069680047787e+01 2.6739204889599495e+01 0 0 0
639 2 9.9450769747865273e+00 1.9923636118066579e+01 2.6739204889599495e+01 0 0 0
640 2 9.9450769747865273e+00 1.7101370365984266e+01 2.6739204889599495e+01 0 0 0
641 2 1.1167153893547029e+01 1.7806936804001865e+01 2.6739204889599495e+01 0 0 0
655 2 1.1167153893547029e+01 1.9218069680047787e+01 2.6739204889599495e+01 0 0 0
657 2 1.2389230812317262e+01 1.7101370365984266e+01 2.6739204889599495e+01 0 0 0
613 2 3.8346923809443427e+00 2.3451468308176239e+01 2.6739204889599495e+01 0 0 0
566 2 1.6846162463998837e-01 2.4157034746204893e+01 2.6739204889599495e+01 0 0 0
567 2 1.6846162463998837e-01 2.1334768994114466e+01 2.6739204889599495e+01 0 0 0