
# Create simulation box and atoms

read_data data.graphite_substrate
  orthogonal box = (0 0 -0.0398667) to (49.22 49.0196 60.1019)
  4 by 2 by 5 MPI processor grid
  reading atoms ...
  6736 atoms
  reading velocities ...
  6736 velocities
group water type 1
3976 atoms in group water
group graphite type 2
2760 atoms in group graphite

# Define potential

pair_style sw
pair_coeff * * mWC.sw mW C
Reading potential file mWC.sw with DATE: 2019-02-27


# Fix graphite atoms in place

fix 5 graphite setforce 0.0 0.0 0.0
velocity graphite set 0.0 0.0 0.0


# Equilibration of molecular water

# Add velocity/set timestep

velocity	    water create ${TEMP} ${SEED} rot yes dist gaussian
velocity	    water create 225 ${SEED} rot yes dist gaussian
velocity	    water create 225 4091 rot yes dist gaussian
timestep	    5.0

# Define output

compute			1 water msd
compute			3 water temp
thermo	    	50
thermo_style	custom step temp press vol etotal ke pe c_1[4] c_3

# Neighbor lists

neigh_modify    delay 0 every 1 check yes

# Set fixes

fix             1 water momentum 10 linear 1 1 1 rescale
fix             2 water nve
fix             3 water temp/csvr ${TEMP} ${TEMP} 500.0 ${SEED}
fix             3 water temp/csvr 225 ${TEMP} 500.0 ${SEED}
fix             3 water temp/csvr 225 225 500.0 ${SEED}
fix             3 water temp/csvr 225 225 500.0 4091
fix             4 water press/berendsen iso ${PRES} ${PRES} 1000.0 modulus 20000
fix             4 water press/berendsen iso 1 ${PRES} 1000.0 modulus 20000
fix             4 water press/berendsen iso 1 1 1000.0 modulus 20000

# Run 0.5 ns equilibration

dump		    1 all atom 2000 ${DIR}/eq.${NAME}-${TEMP}.dump
dump		    1 all atom 2000 run_2/eq.${NAME}-${TEMP}.dump
dump		    1 all atom 2000 run_2/eq.het_freeze_2-${TEMP}.dump
dump		    1 all atom 2000 run_2/eq.het_freeze_2-225.dump

reset_timestep  0

run	            100000
Neighbor list info ...
  update every 1 steps, delay 0 steps, check yes
  max neighbors/atom: 2000, page size: 100000
  master list distance cutoff = 7.76
  ghost atom cutoff = 7.76
  binsize = 3.88, bins = 13 13 16
  1 neighbor lists, perpetual/occasional/extra = 1 0 0
  (1) pair sw, perpetual
      attributes: full, newton on
      pair build: full/bin/atomonly
      stencil: full/bin/3d
      bin: standard
Per MPI rank memory allocation (min/avg/max) = 4.107 | 4.218 | 4.541 Mbytes
Step Temp Press Volume TotEng KinEng PotEng c_1[4] c_3 
       0     132.7951   -1147.9579    145106.76   -36018.829     2665.962   -38684.791            0          225 
      50    173.29601    -422.4749    143662.56   -36411.807    3479.0483   -39890.855   0.88071894    293.62229 
     100    166.60314   -400.86362    143123.27    -36775.85     3344.684   -40120.534    1.9132664     282.2823 
     150    161.89773   -666.20892    142065.51   -37098.224    3250.2192   -40348.443    2.8145672    274.30973 
     200    161.76144   -224.56214    141391.07   -37377.342    3247.4832   -40624.825    3.7001402    274.07882 
     250    156.71039   -203.34091    141008.52   -37594.668    3146.0796   -40740.747     4.403047    265.52063 
     300    149.67062   -95.558254    140463.13    -37830.97    3004.7508   -40835.721     5.087993    253.59286 
     350    146.73721    12.809744    140349.79   -38028.581    2945.8603   -40974.441    5.6550543    248.62266 
     400    148.02064   -95.113033    140129.61   -38152.366    2971.6262   -41123.993    6.2029254    250.79724 
     450    145.91218   -238.21022    139833.58   -38236.247    2929.2973   -41165.544    6.7378052    247.22479 
     500    147.34565   -192.98465    139451.69   -38369.088    2958.0754   -41327.164     7.367386    249.65358 
     550    142.96861   -120.61257    139275.77   -38492.583    2870.2029   -41362.786    7.8068426    242.23738 
     600    145.60448   -189.70596     139145.3   -38616.455    2923.1199   -41539.575    8.1665605    246.70343 
     650     138.0601   -152.15054    138942.98   -38700.391    2771.6608   -41472.052    8.6496051     233.9207 
     700    140.17898    -81.95099    138854.07   -38750.531     2814.199    -41564.73    8.9947172     237.5108 
     750     138.7589    4.6645149    138850.89   -38827.719    2785.6898   -41613.408    9.3441204    235.10471 
     800     136.2977    148.71616    138957.66   -38926.585    2736.2793   -41662.865    9.6798408    230.93459 
     850    139.14221   -10.024906    138944.37   -38944.582    2793.3851   -41737.967    10.075879    235.75416 
     900    136.46752    99.605115     139072.7    -38952.69    2739.6886   -41692.379    10.387979    231.22233 
     950    137.06935   -126.84631    139056.42   -39023.942    2751.7708   -41775.713    10.651723    232.24203 
    1000    132.64173    42.506862     139142.9   -39084.795    2662.8831   -41747.678      10.9777    224.74015 
    1050    136.11575    7.0024938    139224.28     -39083.8    2732.6265   -41816.427    11.136471     230.6263 
    1100    134.57103    91.447738    139316.32   -39056.508    2701.6151   -41758.123    11.359452    228.00903 
    1150    136.23363    3.1409437    139372.23   -39074.397     2734.993    -41809.39    11.638539    230.82603 
    1200    135.66189   -36.746139     139251.7   -39078.877    2723.5149   -41802.392    11.924007    229.85731 
    1250    136.70653    120.21603    139222.01   -39100.972    2744.4869   -41845.459    12.264708    231.62729 
    1300    134.47508    130.98268    139255.63   -39119.281    2699.6888    -41818.97    12.671556    227.84645 
    1350    133.42611   -117.19519    139295.39   -39140.876    2678.6299   -41819.506     12.95648    226.06914 
    1400    131.62795    70.607911     139233.1   -39171.302    2642.5306   -41813.833    13.204995    223.02245 
    1450    131.36388     77.77336     139251.9   -39190.417    2637.2291   -41827.646    13.490802    222.57502 
    1500     135.9478   -113.56316    139223.05   -39172.065    2729.2548   -41901.319    13.748476    230.34174 
    1550    132.68165   -200.01094    139085.24   -39229.073    2663.6843   -41892.757     14.08393    224.80777 
    1600    133.52874    155.02279    139007.92   -39188.291    2680.6905   -41868.982    14.468432    226.24304 
    1650    132.62828    8.2320848    139145.51    -39235.11    2662.6129   -41897.723    14.819482    224.71735 
    1700    133.12143    4.1639742    138995.36   -39199.929    2672.5133   -41872.442    15.169803    225.55291 
    1750    134.30216    207.01417    139126.15   -39114.355    2696.2174   -41810.573    15.498774    227.55347 
    1800    132.81371    166.55048    139212.02   -39196.333    2666.3356   -41862.668    15.842604    225.03154 
    1850     131.3192   -163.63998    139078.95   -39296.395    2636.3321   -41932.727      16.1591    222.49932 
    1900    130.96057   -73.415542    139086.68   -39313.633    2629.1325   -41942.766    16.516656    221.89169 
    1950    130.07101   0.91290813    139046.92   -39324.545    2611.2738   -41935.819    16.807463    220.38446 
    2000    129.78096    60.711818    139106.95   -39330.511    2605.4509   -41935.962    17.073813    219.89303 
    2050    132.10054    19.447216    139200.54   -39284.655    2652.0182   -41936.673    17.293311    223.82318 
    2100      135.834     220.2142    139480.89   -39248.113    2726.9703   -41975.084    17.495988    230.14893 
    2150    135.67025    53.438861    139562.25   -39256.349    2723.6829   -41980.032    17.694299    229.87149 
    2200    130.75376    -69.44819    139424.68   -39256.225    2624.9806   -41881.205    18.069288    221.54128 
    2250    130.52053   -49.886429    139202.45   -39244.204    2620.2982   -41864.502    18.367596     221.1461 
    2300    132.40841    60.722941    139207.82   -39241.561    2658.1988    -41899.76    18.624091    224.34481 
    2350    133.27208    17.584804    139291.56   -39274.268    2675.5377   -41949.806    18.878361    225.80816 
    2400    132.16089   -23.339173    139363.82   -39235.274    2653.2298   -41888.504    19.194629    223.92544 
    2450     133.1973    20.287892    139351.21   -39250.934    2674.0365   -41924.971    19.600549    225.68147 
    2500    134.70559    2.4502321    139177.44   -39236.957    2704.3166   -41941.274    19.935008    228.23702 
    2550    136.41811    13.830709    139131.19   -39208.194    2738.6966    -41946.89    20.158062    231.13861 
    2600    135.52183    64.014936    139131.98   -39187.845    2720.7031   -41908.548    20.346239       229.62 
    2650    137.46936    136.90983    139228.07   -39154.719    2759.8013    -41914.52     20.69411    232.91979 
    2700     133.6703    148.19846     139412.9   -39176.196    2683.5322   -41859.729    20.962557    226.48288 
    2750    132.04767   -34.107185    139620.13   -39262.713    2650.9568    -41913.67    21.147115     223.7336 
    2800    134.07006   -152.46205    139545.92   -39248.954    2691.5578   -41940.512    21.499715    227.16022 
    2850    136.84173   -17.311075    139561.98   -39264.376    2747.2011   -42011.577     21.72619    231.85637 
    2900    134.36454    72.464315    139735.87   -39271.165    2697.4697   -41968.635     22.01425    227.65916 
    2950    133.28176   -145.57135    139679.72   -39300.052     2675.732   -41975.784    22.287712    225.82456 
    3000    132.31641   -42.776222    139653.85   -39290.626    2656.3518   -41946.978    22.518106    224.18893 
    3050    133.75972   -64.152738    139705.17   -39272.788    2685.3275   -41958.116    22.817917    226.63439 
    3100    134.43157   -49.581495    139648.06   -39277.896    2698.8154   -41976.711    23.125116    227.77274 
    3150    133.46249    12.829965    139712.85   -39225.677    2679.3603   -41905.038    23.275687    226.13079 
    3200    135.93289   -102.45916    139780.41   -39258.618    2728.9555   -41987.573    23.523013    230.31649 
    3250    133.58529   -70.842233    139795.51   -39330.735    2681.8257   -42012.561    23.680462    226.33886 
    3300    131.06203   -9.8768153    139677.55    -39341.61    2631.1694   -41972.779    23.959599     222.0636 
    3350     133.1661   -84.112067    139590.36    -39337.03    2673.4101    -42010.44    24.290894     225.6286 
    3400    132.86528    81.601478    139607.41    -39353.64    2667.3708   -42021.011    24.689928     225.1189 
    3450    132.56835    47.736599    139707.16   -39355.108    2661.4098   -42016.518    24.981423     224.6158 
    3500     134.4363   -22.649444    139627.78   -39350.065    2698.9103   -42048.976    25.308567    227.78075 
    3550    132.59256   -120.71731    139516.65   -39358.677    2661.8958   -42020.573    25.571046    224.65682 
    3600     133.0739    158.80659    139666.08   -39311.245    2671.5591   -41982.804    25.894314    225.47238 
    3650    134.14918   -139.94874    139803.96    -39279.19    2693.1461   -41972.336    26.144495    227.29427 
    3700    133.07056   -67.157634    139691.46   -39273.446     2671.492   -41944.938    26.432424    225.46672 
    3750    134.74939    29.899355    139521.71   -39253.301    2705.1959   -41958.496    26.690537    228.31124 
    3800    132.54003   -230.32999    139433.08   -39257.355    2660.8413   -41918.197    26.906734    224.56783 
    3850    135.01453   -58.804801    139244.41   -39255.497    2710.5187   -41966.016    27.131627    228.76047 
    3900    129.87322    37.302776    139128.44   -39287.659     2607.303   -41894.962    27.357622    220.04934 
    3950    134.79918    99.670966    139311.75   -39258.895    2706.1953    -41965.09    27.424762    228.39558 
    4000    133.67978   -87.789244     139313.9   -39324.062    2683.7226   -42007.785    27.611414    226.49895 
    4050    131.07047    51.141824    139281.86   -39326.515    2631.3387   -41957.853     27.86313    222.07789 
    4100    134.73511   -220.15457    139010.74   -39331.965    2704.9092   -42036.875    28.113973    228.28704 
    4150    131.68337   -19.007881    138947.54   -39335.579    2643.6431   -41979.222    28.467858    223.11635 
    4200    131.74126   -40.746721    138946.63    -39381.47    2644.8053   -42026.276    28.821172    223.21443 
    4250    131.45388    134.38862    139116.78   -39377.535     2639.036   -42016.571    28.898748    222.72752 
    4300    133.83245   -39.529999    139330.93    -39371.94    2686.7875   -42058.727    29.204568    226.75762 
    4350    132.93795   -117.02567    139269.63   -39388.439    2668.8299   -42057.269    29.494527    225.24204 
    4400    129.87823   -85.732742    139342.09   -39419.543    2607.4036   -42026.946    29.821201    220.05783 
    4450    130.12359    140.09309    139388.06   -39420.804    2612.3294   -42033.133    30.035557    220.47355 
    4500    131.12336    35.374293    139463.41   -39374.307    2632.4005   -42006.707    30.248022     222.1675 
    4550    132.72769   -108.89781    139358.13   -39386.099    2664.6086   -42050.708    30.582521    224.88578 
    4600     133.5583    114.81483     139453.5   -39346.715    2681.2838   -42027.999    30.828133    226.29312 
    4650    130.62039   -17.654266    139467.35    -39357.13    2622.3031   -41979.433    31.062391    221.31531 
    4700     133.6462   -8.9618408    139542.69   -39337.012    2683.0485   -42020.061    31.233968    226.44205 
    4750    134.67373   -46.883573    139500.98   -39315.847     2703.677   -42019.524    31.480573    228.18305 
    4800    130.94873    143.16779    139437.92   -39349.859    2628.8947   -41978.754    31.783648    221.87162 
    4850     131.7033   -26.752307    139458.62   -39394.438    2644.0432   -42038.481    31.887613    223.15012 
    4900    132.33533   -61.986154    139500.96   -39344.191    2656.7318   -42000.923    32.101406      224.221 
    4950    133.34682    81.398495     139404.7   -39300.103    2677.0383   -41977.141    32.370406    225.93481 
    5000    130.41915   -101.41511    139493.48    -39319.79     2618.263   -41938.053    32.567937    220.97434 
    5050    131.70315     10.93753    139312.63    -39355.07    2644.0403   -41999.111    32.764705    223.14987 
    5100    132.72238    50.667249    139338.57    -39313.75     2664.502   -41978.252    33.017019    224.87678 
    5150    133.78321   -111.13995    139338.45   -39322.243    2685.7991   -42008.042    33.262174     226.6742 
    5200    133.67199    24.054313    139259.27   -39357.621    2683.5662   -42041.187    33.661258    226.48575 
    5250    133.92197   -131.59939    139380.37   -39319.297    2688.5848   -42007.882    33.870687     226.9093 
    5300    131.70945    20.232231    139400.54   -39312.683    2644.1668   -41956.849    34.224579    223.16054 
    5350    131.80119   -64.689988    139294.92   -39342.125    2646.0085   -41988.133    34.493326    223.31598 
    5400    131.03791   0.52915194    139320.52   -39352.171     2630.685   -41982.856    34.596482    222.02272 
    5450    132.37932   -4.6909506    139232.11   -39360.832    2657.6148   -42018.447     34.82228    224.29552 
    5500    135.76209   -84.635292    139264.49   -39342.333    2725.5266    -42067.86    35.087208    230.02709 
    5550    131.01767    101.31664    139453.12   -39323.486    2630.2788   -41953.765    35.262412    221.98843 
    5600    133.95483     19.60235    139369.97   -39371.448    2689.2444   -42060.692    35.656516    226.96497 
    5650    129.52325    59.881731    139339.37   -39386.857    2600.2772   -41987.134    35.860018    219.45638 
    5700    130.28309    43.164171    139390.35   -39386.606    2615.5316   -42002.137     36.23958    220.74381 
    5750    134.30593    -42.48468    139449.15   -39334.169    2696.2931   -42030.463    36.439355    227.55986 
    5800    133.32869   -49.935594    139481.96   -39269.113    2676.6743   -41945.788     36.64619    225.90409 
    5850     133.6432    56.865042       139418   -39281.204    2682.9883   -41964.192    36.798538    226.43697 
    5900    132.91762    72.709955    139527.93   -39283.933    2668.4217   -41952.355    36.963928     225.2076 
    5950    133.18703     89.90364    139621.15   -39285.756    2673.8302   -41959.587    37.214506    225.66406 
    6000    132.31891   -23.662214    139653.37   -39283.526    2656.4021   -41939.929     37.54668    224.19317 
    6050    133.08001    36.873129    139609.94   -39298.016    2671.6819   -41969.698    37.854087    225.48274 
    6100    136.36674   -17.602691    139572.36   -39262.041    2737.6654   -41999.706    38.132961    231.05158 
    6150     131.7436    75.234778    139642.56   -39294.487    2644.8523    -41939.34    38.265266     223.2184 
    6200    132.48523    100.87687    139744.37   -39266.472    2659.7411   -41926.213    38.475541    224.47497 
    6250    134.28535   -123.28327    139763.19   -39317.875    2695.8799   -42013.755    38.632474    227.52499 
    6300    133.19919   -64.103991    139825.66   -39293.222    2674.0744   -41967.297    38.806942    225.68467 
    6350    134.67287    59.163056    139992.63   -39295.809    2703.6597   -41999.469    39.123135    228.18158 
    6400    133.07516   -79.852512    139975.28   -39311.508    2671.5844   -41983.093    39.367448    225.47451 
    6450    133.43179    69.520118    140001.22   -39291.162    2678.7441   -41969.906    39.528645    226.07878 
    6500    133.49194    171.81167    140021.04   -39334.398    2679.9516   -42014.349    39.786431    226.18068 
    6550    135.39343   -116.24091    140003.82   -39282.721    2718.1254   -42000.846    40.001154    229.40245 
    6600    136.37665    61.241778    139941.82   -39260.933    2737.8643   -41998.797    40.164853    231.06836 
    6650    131.73823   -136.68777    139843.17   -39242.321    2644.7445   -41887.065    40.608404     223.2093 
    6700    133.23113    35.447057    139798.07   -39266.943    2674.7156   -41941.659    40.841062    225.73878 
    6750    132.87268   -31.265079    139734.13   -39351.126    2667.5195   -42018.646    41.127856    225.13145 
    6800    130.26548    123.22045    139711.79   -39385.135    2615.1779   -42000.313    41.330455    220.71396 
    6850    129.05447   -37.936372    139677.78   -39446.829     2590.866   -42037.695    41.642584    218.66211 
    6900    131.83408   -56.770713     139631.1   -39417.171    2646.6689    -42063.84     41.83718    223.37171 
    6950    134.30462    242.96735    139612.53   -39378.251    2696.2668   -42074.518    42.117531    227.55765 
    7000    134.90173    40.753113    139806.88   -39401.925    2708.2542   -42110.179    42.420929    228.56935 
    7050    131.47527   -29.048382    139831.17   -39388.004    2639.4653   -42027.469    42.732101    222.76375 
    7100    132.83805   -67.988477    139779.15   -39409.973    2666.8242   -42076.797    42.974205    225.07277 
    7150    134.14607    60.337644    139694.57   -39374.984    2693.0838   -42068.068    43.146816    227.28901 
    7200    131.83476    27.808855    139774.87   -39406.147    2646.6825    -42052.83    43.269324    223.37286 
    7250    131.83073   -25.087106    139792.91   -39396.932    2646.6015   -42043.533    43.433379    223.36603 
    7300    132.25156    31.466463    139790.78    -39455.57    2655.0501    -42110.62      43.5708    224.07906 
    7350    133.25576   -362.32584    139731.86   -39442.214    2675.2102   -42117.424    43.763099    225.78052 
    7400    134.88451    32.816891    139524.14   -39431.192    2707.9085   -42139.101    44.030279    228.54017 
    7450    133.96284    36.850538    139573.21   -39397.735    2689.4053    -42087.14    44.114252    226.97855 
    7500    132.65493    34.202721    139615.55   -39412.387    2663.1481   -42075.536    44.261563    224.76251 
    7550    133.88921    38.154755    139799.23    -39450.29    2687.9271   -42138.217    44.474536    226.85379 
    7600    133.37876   -4.9550234    139859.15   -39429.252    2677.6795   -42106.932    44.693514    225.98893 
    7650    133.19599    9.2636126    139855.46   -39466.958    2674.0101   -42140.968    44.796849    225.67924 
    7700    131.13909   -108.14603    139813.73   -39532.143    2632.7163    -42164.86    44.992059    222.19415 
    7750    132.74978   -18.192756     139714.6   -39443.666    2665.0521   -42108.718    45.223519     224.9232 
    7800    132.84954   -34.631087    139678.13   -39460.924    2667.0549   -42127.979    45.642508    225.09224 
    7850    131.88355     118.9626    139658.39   -39470.163    2647.6619   -42117.825    46.009923    223.45552 
    7900    132.00196   -43.870551    139730.93   -39429.935    2650.0391   -42079.974    46.526181    223.65615 
    7950       133.84   -187.45917    139683.79   -39469.431    2686.9391    -42156.37    46.809703    226.77041 
    8000    132.11113    20.963343    139574.73   -39467.961    2652.2307   -42120.192    47.095928    223.84112 
    8050     133.3497     18.88334    139678.59   -39430.806     2677.096   -42107.902    47.398532    225.93968 
    8100    132.09347    121.63539    139733.95   -39456.077    2651.8763   -42107.954    47.357376     223.8112 
    8150    133.50759    148.74126     139771.9   -39387.463    2680.2658   -42067.729    47.513919     226.2072 
    8200    129.25237    52.223269    139873.93   -39414.196     2594.839   -42009.035     47.92843    218.99741 
    8250    131.26504    74.794264    140048.18   -39422.215    2635.2448    -42057.46    48.287139    222.40755 
    8300    132.57677   -146.33187    139930.61   -39460.886    2661.5788   -42122.464    48.462618    224.63007 
    8350    133.93927    301.86673    139849.34   -39484.606    2688.9321   -42173.538    48.648044    226.93861 
    8400    132.37928    61.359618    140038.07   -39482.962    2657.6141   -42140.576    48.684706    224.29546 
    8450    131.32135   -101.13923    140097.15   -39479.063    2636.3753   -42115.439    48.971567    222.50296 
    8500    131.92039    55.454933    139957.03   -39454.563    2648.4014   -42102.965    49.068275    223.51794 
    8550    132.08487   -114.13235    139918.15   -39493.005    2651.7036   -42144.708    49.204775    223.79663 
    8600    129.57082   -39.823409    139726.24   -39494.439     2601.232   -42095.671    49.263057    219.53697 
    8650    131.03855   -200.20117     139615.8   -39527.069    2630.6979   -42157.767     49.39231    222.02381 
    8700    128.16647   -98.952913    139488.63   -39568.921    2573.0387    -42141.96    49.613463    217.15753 
    8750    130.13575    79.376515    139610.38   -39542.928    2612.5735   -42155.502     49.77246    220.49416 
    8800    130.44446    31.256036    139579.75   -39526.624    2618.7711   -42145.395    49.935859    221.01722 
    8850    132.92239    -59.63326    139508.18   -39542.669    2668.5174   -42211.187    49.916664    225.21567 
    8900    133.22196     75.35718     139531.6   -39519.395    2674.5314   -42193.926    50.157578    225.72324 
    8950    132.24276     152.1581    139587.37   -39594.863    2654.8734   -42249.736    50.553601    224.06415 
    9000    129.68749   -30.727783     139465.5   -39583.959    2603.5745   -42187.534    50.622109    219.73466 
    9050    130.02741    55.877384    139484.83   -39599.376    2610.3986   -42209.774    50.743401     220.3106 
    9100    131.24652    50.168933    139631.04   -39558.633    2634.8731   -42193.506    50.915727    222.37618 
    9150     133.2368    50.786006    139700.56   -39546.933    2674.8295   -42221.763    50.983991    225.74839 
    9200    134.44205    62.721106    139817.07   -39510.707    2699.0258   -42209.733    51.182419     227.7905 
    9250    132.30966    9.1028924     139739.6   -39504.552    2656.2163   -42160.768    51.455614    224.17749 
    9300    133.05392   -76.943851    139665.56   -39558.467    2671.1579   -42229.625    51.609978    225.43852 
    9350    132.94414    95.556848    139669.58   -39598.589    2668.9541   -42267.543    51.874305    225.25253 
    9400    129.61591   -65.255207    139686.66   -39589.734    2602.1374   -42191.871    52.223879    219.61337 
    9450    131.57956    -11.34438    139699.89   -39603.271    2641.5591    -42244.83    52.407458    222.94046 
    9500    130.88088    -89.22623    139663.21     -39619.4    2627.5325   -42246.933    52.608077    221.75666 
    9550    133.52866   -57.406834    139630.64   -39593.778    2680.6887   -42274.467    52.515327     226.2429 
    9600    127.90522    55.444136    139572.63   -39605.648    2567.7939   -42173.442     52.58023    216.71488 
    9650    132.22421   -99.624399     139623.8       -39595    2654.5009   -42249.501    52.714227    224.03272 
    9700    130.64647    137.39576    139586.82   -39591.357    2622.8266   -42214.184    52.727095    221.35949 
    9750     127.6785     9.562743    139620.22   -39590.449    2563.2423   -42153.691    52.912231    216.33074 
    9800     130.0766   -100.48548    139548.46   -39580.204    2611.3861    -42191.59    53.185558    220.39394 
    9850    129.38245    125.23419     139434.5    -39577.25    2597.4505   -42174.701    53.368865    219.21782 
    9900     131.9852    45.987764    139489.33   -39519.474    2649.7026   -42169.177    53.458473    223.62776 
    9950    136.30747   -89.254119    139637.29   -39436.039    2736.4755   -42172.515    53.587277    230.95115 
   10000    135.42022     53.45122    139680.76   -39449.005    2718.6632   -42167.668    53.678333    229.44784 
   10050     134.4564    171.59454    139816.41    -39439.44    2699.3139   -42138.754    53.790299    227.81481 
   10100    136.14656   -36.607576    139972.48    -39401.31    2733.2451   -42134.555    53.864163    230.67851 
   10150    135.24864   -27.478443    140093.46   -39407.315    2715.2186   -42122.534    54.112362    229.15713 
   10200    130.83061   -135.33783    140026.13   -39441.479    2626.5233   -42068.003     54.36936    221.67148 
   10250    131.85372    139.13094    139945.92   -39428.271    2647.0631   -42075.334     54.65465    223.40498 
   10300    134.97976   -71.502172    140022.75   -39383.528    2709.8208   -42093.349    54.992467    228.70156 
   10350    135.28088    115.93387    140082.03   -39412.258    2715.8659   -42128.124    55.379748    229.21175 
   10400    136.88189   -97.508954    139884.16    -39334.68    2748.0075   -42082.688    55.789453    231.92442 
   10450    133.27726    7.0705346    139909.05   -39357.478    2675.6416    -42033.12    55.867193    225.81694 
   10500    134.24287    60.077663    139956.48   -39405.759    2695.0271   -42100.787    55.868785    227.45301 
   10550    132.40622   -15.163956    139790.71   -39455.432    2658.1549   -42113.587    55.952109     224.3411 
   10600    133.73634  0.095703944    139785.95   -39442.524    2684.8581   -42127.382    55.984098    226.59478 
   10650    130.51046    75.936706    139762.43   -39467.544     2620.096    -42087.64    56.067431    221.12904 
   10700    130.05187    97.593885    139866.67    -39425.94    2610.8895    -42036.83    56.370773    220.35203 
   10750    134.71452    27.487445    139922.43   -39413.448    2704.4959   -42117.943    56.540321    228.25215 
   10800     132.5176   -63.226653     139911.9   -39471.636    2660.3909   -42132.027    56.748671    224.52982 
   10850    130.05538    13.220614    139823.01   -39465.197    2610.9601   -42076.157    56.917675    220.35799 
   10900    129.89673   -33.578937    139770.99   -39502.356     2607.775    -42110.13    56.746454    220.08917 
   10950    131.56746   -46.679295    139729.56   -39456.521    2641.3161   -42097.838    56.716654    222.91996 
   11000    134.45397    267.02223    139707.45    -39399.87     2699.265   -42099.135    57.069196    227.81068 
   11050    132.76048    148.97597    139985.06   -39384.895    2665.2669   -42050.162    57.371481    224.94133 
   11100     134.7196   -134.36462    139822.91   -39377.338    2704.5977   -42081.936    57.591508    228.26075 
   11150    135.43059    101.17121    139927.16   -39379.463    2718.8714   -42098.334     57.67762    229.46541 
   11200    135.39191    97.903303    139879.94   -39369.572     2718.095   -42087.667    57.829518    229.39988 
   11250    134.33262   -66.373798    139849.96   -39410.424    2696.8289   -42107.252    58.220055    227.60508 
   11300    133.12422    -144.3589    139764.79   -39410.525    2672.5693   -42083.094    58.479009    225.55764 
   11350    130.84137   -125.92757    139598.36   -39433.534    2626.7393   -42060.274    58.599099    221.68971 
   11400    132.85652    49.852912    139621.96   -39442.738     2667.195   -42109.933    58.692381    225.10407 
   11450    129.98046   -118.60004    139657.51   -39492.754     2609.456    -42102.21    58.867392    220.23104 
   11500    130.56187    6.8556043    139650.93   -39454.097    2621.1283   -42075.225    59.066376    221.21616 
   11550    132.34532    152.69065    139709.53   -39393.641    2656.9324   -42050.573    59.354956    224.23792 
   11600    132.67143    147.96125    139736.39   -39375.793    2663.4792   -42039.272    59.536021    224.79046 
   11650    134.95371   -104.21676    139743.67   -39354.128    2709.2977   -42063.426    59.890279    228.65741 
   11700    133.11982    62.006292    139766.82   -39378.401    2672.4809   -42050.882    60.209178    225.55018 
   11750    137.00521    97.223447    139760.58   -39370.861    2750.4832   -42121.345    60.604569    232.13336 
   11800    133.23662   -5.2866808    139814.55   -39389.917    2674.8258   -42064.743    60.912737    225.74808 
   11850    132.51711     148.9886    139870.36   -39393.925    2660.3811   -42054.306    61.171509    224.52899 
   11900    135.68749   -23.075596    139792.85   -39393.648     2724.029   -42117.677    61.337521     229.9007 
   11950    132.87544    76.342806    139973.27   -39382.175    2667.5748    -42049.75    61.610993    225.13612 
   12000    134.16781   -205.99648    139780.04   -39349.936    2693.5202   -42043.456    61.664418    227.32584 
   12050    136.07558   0.98964985    139751.71   -39309.317    2731.8201   -42041.137    61.891529    230.55825 
   12100    135.60223    62.013425     139805.1   -39318.944    2722.3173   -42041.261    62.213882    229.75624 
   12150    132.60753   -63.783756    139841.26   -39354.156    2662.1965   -42016.352    62.555866     224.6822 
   12200    135.06193   -98.990608     139882.9   -39330.507    2711.4703   -42041.978    62.794317    228.84078 
   12250    132.82329    7.1694825       139797   -39350.524    2666.5279   -42017.052    63.185471    225.04776 
   12300    133.93458   -47.035862    139796.33   -39350.468    2688.8379   -42039.306    63.438918    226.93066 
   12350    136.51735   -97.151101     139829.8   -39313.797     2740.689   -42054.487    63.736292    231.30676 
   12400    137.27532    151.59795    139728.33   -39273.801    2755.9058   -42029.707    63.964317    232.59102 
   12450    136.47515   -29.361343    139933.24   -39275.575    2739.8417   -42015.416    64.066337    231.23525 
   12500    136.34702    9.3449345     139866.8   -39308.356    2737.2695   -42045.625    64.307501    231.01816 
   12550    132.45687   -16.889206    139764.14   -39332.381    2659.1718   -41991.553    64.619843    224.42693 
   12600    132.78172   -9.7540708    139700.65   -39365.989    2665.6933   -42031.682    65.029292    224.97733 
   12650    137.01559    101.83672    139652.66   -39326.555    2750.6916   -42077.247    65.383428    232.15095 
   12700    135.69098   -45.225017    139755.84    -39326.12     2724.099   -42050.219    65.869384    229.90661 
   12750    135.67581   -134.87054    139718.28   -39330.571    2723.7945   -42054.366    66.121489    229.88091 
   12800    136.40041    29.733911    139503.85    -39349.15    2738.3412   -42087.492    66.519859    231.10861 
   12850    134.72291   -8.3484503    139447.38   -39413.158    2704.6643   -42117.822    66.754443    228.26637 
   12900    135.05049   -50.808961    139486.98   -39408.315    2711.2406   -42119.555    66.924062    228.82139 
   12950    133.31002   -22.193655    139546.88   -39444.163    2676.2994   -42120.462    67.205455    225.87245 
   13000    131.95436   -214.78635    139388.23   -39451.829    2649.0835   -42100.912    67.419881     223.5755 
   13050    132.93463   -18.950329    139320.45   -39452.643    2668.7631   -42121.406    67.472137    225.23641 
   13100    132.17626   -30.926893    139377.62   -39449.188    2653.5383   -42102.727    67.566245    223.95148 
   13150    132.69108   -134.65098    139279.05   -39424.592    2663.8736   -42088.466      67.7726    224.82375 
   13200    134.31833   -61.220444    139251.77   -39418.961     2696.542   -42115.503    67.823837    227.58087 
   13250    132.63465    82.608193    139479.95   -39454.621    2662.7407   -42117.362    67.851409    224.72814 
   13300    135.75365   -30.987866    139404.91   -39470.068    2725.3571   -42195.425    68.007615    230.01278 
   13350    134.03699    64.841301    139391.56   -39512.869    2690.8939   -42203.763    68.237389    227.10419 
   13400    132.47279    55.110311    139491.46   -39481.518    2659.4914   -42141.009    68.306076     224.4539 
   13450     132.8024    76.198937    139606.11   -39446.362    2666.1085   -42112.471    68.530623    225.01237 
   13500    129.91979   -26.823128    139691.38    -39430.14     2608.238   -42038.378    68.931953    220.12825 
   13550    131.28783    7.6290451    139573.71   -39413.829    2635.7024   -42049.531    69.016476    222.44618 
   13600     133.0606    128.87116    139647.12   -39370.499     2671.292   -42041.791     69.03306    225.44984 
   13650    132.89027   -145.57969    139446.96    -39364.88    2667.8725   -42032.752    69.295243    225.16125 
   13700    131.44574      56.2606    139451.86   -39391.942    2638.8726   -42030.814    69.547658    222.71373 
   13750    132.43425    52.757044    139487.88    -39412.06    2658.7177   -42070.778    69.703189     224.3886 
   13800    133.67392    40.231916    139440.22   -39412.546     2683.605   -42096.151    70.019319    226.48902 
   13850    134.49711    19.131802    139466.69   -39407.895    2700.1311   -42108.026    70.220671    227.88378 
   13900    131.37728   -64.500918    139382.81   -39375.662    2637.4982    -42013.16    70.368082    222.59773 
   13950    134.13271   -4.0424686    139434.57   -39392.307    2692.8154   -42085.123    70.632107    227.26636 
   14000    131.72429    -200.5244    139312.47   -39383.914    2644.4648   -42028.379    70.983582    223.18569 
   14050    133.82019    83.887655    139249.79   -39362.552    2686.5415   -42049.094    71.317311    226.73685 
   14100    133.98403    45.785618    139490.54   -39395.352    2689.8306   -42085.183    71.664686    227.01444 
   14150    132.63124    13.803221    139541.73   -39398.648    2662.6724    -42061.32    71.985283    224.72237 
   14200    133.32542   -94.937473    139509.91   -39397.217    2676.6085   -42073.826    72.442639    225.89854 
   14250     131.5864     -31.6948    139522.79   -39420.614    2641.6965   -42062.311    72.666423    222.95206 
   14300     131.4634    63.340848    139741.51   -39384.998    2639.2271   -42024.225    73.198718    222.74365 
   14350     131.6784   -33.587013    139712.85   -39358.989    2643.5434   -42002.532    73.306361    223.10793 
   14400    136.51665    76.770476    139883.93   -39318.798    2740.6749   -42059.473    73.614513    231.30557 
   14450    133.77922    -67.48422    139860.18   -39387.869    2685.7189   -42073.588    73.802275    226.66743 
   14500    133.09545    52.751456    139873.84   -39382.309    2671.9918   -42054.301    74.130175     225.5089 
   14550     131.3095    81.739162    139944.49   -39362.613    2636.1375    -41998.75    74.304627    222.48289 
   14600    133.25183    73.058788    139950.04   -39323.581    2675.1312   -41998.712    74.522489    225.77386 
   14650    134.03849     126.8092    140016.47   -39370.112    2690.9239   -42061.036    74.605205    227.10672 
   14700     132.7612    189.83521    140120.04    -39335.17    2665.2813   -42000.451     74.89451    224.94255 
   14750    132.54456    80.733213    140145.77   -39350.733    2660.9322   -42011.665    75.103066     224.5755 
   14800    133.51019   -11.599804    140009.93   -39337.607     2680.318   -42017.925      75.2653    226.21161 
   14850    133.05696    116.29897    140062.66   -39313.156     2671.219   -41984.375    75.596016    225.44367 
   14900    132.48716    84.509549       140068   -39328.106    2659.7799   -41987.885    75.797308    224.47825 
   14950    130.86475  -0.27181475    140087.67   -39354.824    2627.2087   -41982.033    75.985206    221.72933 
   15000    133.58091   -18.651888    139869.77   -39339.926    2681.7378   -42021.664    76.206631    226.33143 
   15050    131.92295    1.2232648    139905.44   -39326.726    2648.4529   -41975.179    76.703061    223.52228 
   15100     132.9465   -100.51193    139969.04   -39330.438    2669.0014   -41999.439    76.874901    225.25652 
   15150     132.5937   -234.40074    139775.84   -39371.267    2661.9186   -42033.186    77.237161    224.65875 
   15200    132.97934    24.564649    139553.85   -39350.748    2669.6607   -42020.409    77.424278    225.31216 
   15250    135.51983   -39.038789    139412.08   -39326.922     2720.663   -42047.585    77.508565    229.61661 
   15300     133.6929    10.358535    139416.21   -39390.805    2683.9859   -42074.791    77.836398    226.52117 
   15350    134.08924   -10.202951    139366.57   -39385.252    2691.9429   -42077.195    78.226418    227.19272 
   15400    132.59435    5.1507214    139303.15   -39363.013    2661.9318   -42024.945     78.73151    224.65986 
   15450    135.42483    35.440582    139335.27   -39349.389    2718.7557   -42068.145     79.02415    229.45565 
   15500    133.02567   -150.33902    139291.27   -39388.553    2670.5909   -42059.144    79.398978    225.39067 
   15550    132.48299   -173.98479    139250.35   -39363.519    2659.6961   -42023.215    79.787539    224.47118 
   15600    135.68643   -142.66253    139300.83   -39350.146    2724.0076   -42074.153    79.963377    229.89889 
   15650     134.2523    22.795765    139432.18    -39326.89    2695.2163   -42022.106    80.094597    227.46899 
   15700    133.45332    142.45516    139427.24   -39329.338    2679.1763   -42008.514    80.209147    226.11525 
   15750    133.31294   -75.191261    139458.79   -39357.891    2676.3579   -42034.249    80.652583    225.87739 
   15800    134.25613    94.926334    139388.13   -39341.479    2695.2933   -42036.772    80.882708    227.47548 
   15850    131.46037   -79.239825    139514.06   -39416.864    2639.1662    -42056.03    81.076797    222.73851 
   15900    133.56929    34.550068    139721.12   -39376.668    2681.5044   -42058.172    81.402189    226.31174 
   15950    131.01061     54.34951    139690.36   -39359.439    2630.1369   -41989.576    81.655587    221.97646 
   16000    134.29809    68.531378    139676.02   -39349.889    2696.1356   -42046.025    81.953854    227.54657 
   16050    130.22191    88.101775    139719.57   -39354.888    2614.3032   -41969.192    82.552575    220.64014 
   16100    131.73098   -75.154381    139703.36   -39354.752    2644.5989   -41999.351    82.550227    223.19701 
   16150    133.16547    179.18005    139666.97   -39334.672    2673.3974    -42008.07     82.58092    225.62753 
   16200    131.26787    35.243669    139764.39    -39353.91    2635.3017   -41989.212    82.971532    222.41235 
   16250    133.54746    98.170946    139685.28   -39378.886    2681.0662   -42059.952    83.151546    226.27475 
   16300    132.69456    17.362201    139724.49   -39402.565    2663.9437   -42066.509    83.138713    224.82966 
   16350    130.32121     42.35233    139825.02   -39425.385    2616.2968   -42041.682    83.266704     220.8084 
   16400     130.7607   -46.198709    139854.16   -39464.897    2625.1199   -42090.017    83.730139    221.55304 
   16450    130.49455    35.336524    139777.61   -39463.622    2619.7766   -42083.399    84.083942    221.10208 
   16500    130.99666   -54.212187    139879.35    -39464.79     2629.857   -42094.647    84.430204    221.95284 
   16550    132.13438   -57.555014    139747.66    -39456.94    2652.6975   -42109.637    84.634179    223.88052 
   16600     132.1822   -26.495905    139718.14    -39508.53    2653.6576   -42162.187    84.988218    223.96154 
   16650    129.99437    26.701678    139714.34   -39507.751    2609.7351   -42117.486    85.120998    220.25461 
   16700    131.99599   -11.285896    139803.37   -39464.293    2649.9193   -42114.212    85.540871    223.64604 
   16750    130.11492   -173.08197    139691.35   -39505.045    2612.1554   -42117.201    85.662343    220.45887 
   16800    132.18955      94.5556    139747.31   -39448.745     2653.805    -42102.55    85.972416    223.97399 
   16850    133.10922    32.502351    139836.04   -39453.872    2672.2682    -42126.14     86.13704    225.53223 
   16900     132.7045    180.83034    139942.24    -39440.85    2664.1432   -42104.993    86.262252     224.8465 
   16950    134.60447   -6.6070653    140056.65    -39444.62    2702.2864   -42146.907    86.611864    228.06568 
   17000    131.25156    -9.576861    140058.89   -39483.354    2634.9742   -42118.328     86.86202    222.38472 
   17050    131.12917   -80.275606    139931.38   -39457.805    2632.5172   -42090.322    86.878517    222.17735 
   17100    133.75614   -41.926399    139814.51   -39466.702    2685.2556   -42151.958    86.980416    226.62833 
   17150    133.98677    112.63877    139864.66   -39427.401    2689.8858   -42117.286     87.04547     227.0191 
   17200    132.20836    24.464739    139846.26    -39447.07    2654.1827   -42101.253    87.398905    224.00586 
   17250    130.56137    60.009383     139772.3   -39380.037    2621.1181   -42001.155    87.433169     221.2153 
   17300    132.59711    96.807941    139767.39   -39380.844    2661.9872   -42042.831    87.569608    224.66454 
   17350    132.50157    211.55366    139885.16   -39350.911    2660.0691    -42010.98    87.685069    224.50266 
   17400    133.97242    157.54541    140158.81   -39310.746    2689.5976   -42000.344    87.929207    226.99478 
   17450    135.00513   -58.618697    140087.07   -39357.058    2710.3299   -42067.388    87.971796    228.74453 
   17500    133.75673   -44.894877    140028.84   -39357.012    2685.2675    -42042.28     87.88125    226.62934 
   17550     133.7944    95.847796    140009.49   -39345.554    2686.0237   -42031.577    87.926183    226.69316 
   17600    134.94754   -170.27581    139950.27   -39337.259    2709.1738   -42046.433    88.178939    228.64696 
   17650    135.33329   -20.820582    139935.16   -39322.154     2716.918   -42039.072    88.172036    229.30055 
   17700    136.26053     182.3789     140031.9   -39284.449    2735.5331   -42019.982    88.509242    230.87161 
   17750    134.37023   -131.37596    140008.24   -39277.942     2697.584   -41975.526    88.869512    227.66881 
   17800    136.43949    9.8267869    139908.98    -39292.53    2739.1259   -42031.656    88.922515    231.17484 
   17850    135.11653    101.23997    139996.26   -39293.174    2712.5664   -42005.741    89.003418    228.93329 
   17900    132.95205    47.246334     139930.3   -39344.663    2669.1128   -42013.776     89.30784    225.26592 
   17950    132.76457   -25.796204     139962.4   -39374.402     2665.349   -42039.751    89.554763    224.94827 
   18000    132.48578    -166.6436    139690.18   -39412.464    2659.7521   -42072.216    89.893693     224.4759 
   18050    134.16276   -80.944444    139674.75   -39399.092    2693.4188   -42092.511    90.074267    227.31728 
   18100    134.36991    54.583525    139694.79   -39381.137    2697.5776   -42078.714    90.341192    227.66827 
   18150    130.70882    140.99705    139859.67   -39387.823    2624.0783   -42011.902    90.714085    221.46513 
   18200    133.53398   -19.551409    139805.92   -39376.638    2680.7956   -42057.434    91.010953    226.25192 
   18250    132.04337   -37.614928    139731.76   -39428.305    2650.8704   -42079.176    90.928857    223.72631 
   18300    130.20595    11.330231    139637.73   -39484.488    2613.9829   -42098.471    91.169873     220.6131 
   18350    134.36913   -71.402939    139586.43   -39424.176    2697.5617   -42121.737    91.192858    227.66693 
   18400    132.96934    72.259903    139685.85    -39449.37      2669.46    -42118.83    91.211819    225.29522 
   18450    130.14697    65.779875    139766.02   -39435.716    2612.7987   -42048.514    91.534281    220.51316 
   18500    132.63394   -124.23334    139694.29    -39378.84    2662.7265   -42041.566    91.770568    224.72694 
   18550    134.24939   -177.04368    139702.03   -39351.525     2695.158   -42046.683    91.958019    227.46406 
   18600    133.54525   -140.02317    139718.36   -39357.915    2681.0218   -42038.936    91.989399      226.271 
   18650    131.36493    83.538617     139712.9   -39369.382    2637.2502   -42006.632    92.214272     222.5768 
   18700    132.38541   -23.655783    139761.09   -39354.996    2657.7371   -42012.734    92.398855    224.30584 
   18750    133.74557    35.144872       139771   -39339.744    2685.0434   -42024.787    92.828681    226.61042 
   18800    132.40905   -30.791989    139678.88   -39351.519    2658.2117    -42009.73    93.225069    224.34589 
   18850    132.59885   -205.89463    139584.51   -39337.265    2662.0221   -41999.287    93.617431    224.66748 
   18900    131.59931   -67.519357    139576.59   -39335.257    2641.9555   -41977.213     94.08068    222.97392 
   18950     132.7483   -33.743355    139404.71   -39315.829    2665.0225   -41980.852     93.92991    224.92071 
   19000    132.16661    91.926246    139483.49   -39294.572    2653.3445   -41947.917    94.043909    223.93512 
   19050    134.38063    49.676572    139712.19   -39245.965    2697.7927   -41943.757    94.055405    227.68643 
   19100    135.70543   -15.375692    139814.57   -39240.178     2724.389   -41964.567    94.261683    229.93108 
   19150    134.84631    13.017383    139909.52   -39273.938    2707.1416   -41981.079    94.470524    228.47545 
   19200    135.06375   -63.608592    139920.95   -39276.889    2711.5068   -41988.396    94.750599    228.84386 
   19250    134.21054   -18.563809    139960.95   -39333.632     2694.378    -42028.01    95.023632    227.39824 
   19300    135.84203    113.80604    139985.82     -39303.5    2727.1314   -42030.631     95.18724    230.16253 
   19350    135.27798   -75.416296    139905.26   -39340.978    2715.8078   -42056.786    95.468035    229.20685 
   19400    133.95422     -120.129     139790.8   -39360.817    2689.2322   -42050.049    95.908424    226.96394 
   19450    132.42383    44.118676    139667.74   -39375.404    2658.5084   -42033.913    96.144764    224.37094 
   19500    134.92722    34.446151     139659.6   -39348.328    2708.7658   -42057.094    96.600247    228.61253 
   19550    134.62405    -34.59292    139644.47    -39374.94    2702.6795   -42077.619    96.743039    228.09886 
   19600    134.34663   -25.596788    139691.69   -39395.759    2697.1102   -42092.869    96.699509    227.62883 
   19650    130.87367    77.078252    139602.32    -39377.87    2627.3878   -42005.258    96.753903    221.74445 
   19700    133.44894   -112.50152    139588.26   -39403.099    2679.0882   -42082.187    96.943735    226.10782 
   19750     132.5405    10.445552    139436.64   -39416.453    2660.8507   -42077.304    97.407846    224.56862 
   19800    130.41854    15.762676    139438.95   -39448.413    2618.2508   -42066.663    97.794679     220.9733 
   19850    132.63475    152.20265    139500.55   -39425.481    2662.7428   -42088.223     97.79997    224.72831 
   19900    132.22586    12.012587    139772.19   -39359.602    2654.5341   -42014.136    97.979266    224.03552 
   19950    130.21827   -87.869223    139689.89   -39365.239    2614.2301    -41979.47    98.241547    220.63397 
   20000    135.33759    -57.49503    139638.65   -39384.065    2717.0043   -42101.069    98.750052    229.30783 
   20050    131.60636   -134.48844    139507.83   -39391.576    2642.0971   -42033.673    99.117655    222.98587 
   20100    128.79974    18.790453    139413.12   -39471.516    2585.7521   -42057.268    99.428228     218.2305 
   20150    130.66884   -121.50193    139381.87   -39458.717    2623.2757   -42081.992    99.912607    221.39739 
   20200    132.55635    24.013915     139336.3   -39427.004    2661.1688   -42088.173    100.21693    224.59547 
   20250    130.98464   -203.18511     139406.7   -39453.789    2629.6156   -42083.404    100.59729    221.93247 
   20300    131.63265   -136.77852    139251.87   -39435.064     2642.625   -42077.689    100.95559    223.03042 
   20350    132.05691    86.186298    139207.15   -39392.627    2651.1422   -42043.769    101.10575    223.74925 
   20400    134.32286   -64.515965    139193.96   -39412.796     2696.633   -42109.429    100.99479    227.58855 
   20450    131.55822    48.978391    139254.52   -39380.628    2641.1306   -42021.759    101.20316     222.9043 
   20500    131.38156    41.893387    139313.57   -39375.251    2637.5841   -42012.835     101.3143    222.60498 
   20550    135.67997    32.428709     139338.6   -39314.391    2723.8779   -42038.269    101.41134    229.88795 
   20600    131.80695    105.08665    139343.82   -39356.212    2646.1241   -42002.336    101.57024    223.32573 
   20650    132.39102   -53.371472    139458.71   -39351.556    2657.8499   -42009.406    102.05066    224.31536 
   20700    135.57821   -53.054153     139398.4   -39361.163    2721.8349   -42082.998     102.2826    229.71553 
   20750    132.68501    121.36716    139403.11   -39335.391    2663.7518   -41999.143    102.30149    224.81346 
   20800    132.59255    64.324238    139607.07   -39311.751    2661.8956   -41973.647     102.4708    224.65681 
   20850    130.91383   -146.27432    139444.09    -39364.03     2628.194   -41992.224    102.84488    221.81249 
   20900    133.21507    109.49966     139411.1   -39329.742    2674.3933   -42004.135     103.0163    225.71158 
   20950    132.95236   -49.742048    139648.46   -39356.782    2669.1192   -42025.901    103.10601    225.26646 
   21000    131.68469   -139.97339    139522.45   -39322.315    2643.6696   -41965.985    103.34868    223.11858 
   21050    134.27569    82.353924    139444.34   -39304.852    2695.6859   -42000.538    103.81005    227.50862 
   21100     133.7546    1.4666036    139384.14   -39318.703    2685.2246   -42003.928    104.19899    226.62571 
   21150    135.58354    149.95408    139474.44   -39247.604     2721.942   -41969.546    104.54163    229.72456 
   21200    133.59947   -158.98133    139598.69   -39292.841    2682.1102   -41974.951    104.79095    226.36287 
   21250    133.07194   -178.00001    139523.56   -39306.742    2671.5197   -41978.262    105.04456    225.46906 
   21300    132.91071   -168.20774    139399.65   -39307.725    2668.2829   -41976.008    105.28757    225.19588 
   21350     133.8652   -45.467108       139352   -39352.004    2687.4451   -42039.449    105.81431    226.81312 
   21400    133.74055   -50.768914    139300.48    -39358.65    2684.9426   -42043.593    106.25265    226.60191 
   21450    132.15252   -225.48687    139138.83   -39388.712    2653.0617   -42041.774    106.21555    223.91125 
   21500    132.82285    24.863529    139084.83   -39435.913    2666.5191   -42102.432    106.39194    225.04701 
   21550    134.94441    75.652402    139208.67   -39358.924    2709.1111   -42068.035    106.77891    228.64167 
   21600    132.97238     41.38633    139316.13   -39343.174    2669.5211   -42012.695    107.07834    225.30038 
   21650    132.62105    3.7002246    139199.87    -39316.48    2662.4678   -41978.948    107.22759     224.7051 
   21700    133.65613     141.7188    139244.15   -39313.488    2683.2477   -41996.736    107.69273    226.45887 
   21750    134.69408    16.835914    139309.74   -39351.871    2704.0855   -42055.957    107.77549    228.21752 
   21800    132.44655    -79.90671    139347.22   -39348.494    2658.9645   -42007.458    108.01234    224.40943 
   21850    133.27413    105.30745    139432.55   -39361.387    2675.5789   -42036.965    108.22034    225.81164 
   21900     132.0187   -133.67978    139394.41   -39350.059    2650.3751   -42000.434    108.52643    223.68451 
   21950    129.51111   -43.343508    139278.85   -39306.559    2600.0334   -41906.593    108.60655    219.43581 
   22000    133.01736   -104.84846    139247.75   -39341.966    2670.4241    -42012.39    108.86023    225.37659 
   22050    131.48027    184.96988    139373.24   -39407.988    2639.5657   -42047.554    109.30919    222.77223 
   22100    133.94804    54.499725    139511.95   -39407.608    2689.1082   -42096.717    109.52137    226.95348 
   22150    130.88146   -50.324575    139536.59   -39463.495    2627.5441    -42091.04    109.65035    221.75764 
   22200    131.39357     50.66834    139586.95   -39461.219    2637.8252   -42099.044    109.73217    222.62533 
   22250    130.95196    -84.69224       139747    -39467.24    2628.9596     -42096.2    109.85615    221.87709 
   22300    132.48984    16.851484    139526.98   -39408.558    2659.8336   -42068.392     109.7361    224.48278 
   22350    131.58217   -55.580491    139529.09   -39345.933    2641.6116   -41987.545     110.0382    222.94489 
   22400    129.83246   -62.700541    139462.73    -39401.54    2606.4847   -42008.025    110.65292    219.98028 
   22450    132.74932  -0.37398017    139431.65   -39433.484     2665.043   -42098.527    110.76941    224.92244 
   22500     130.2227    66.358351    139327.32   -39390.972    2614.3191   -42005.291    110.80437    220.64148 
   22550    131.94515   -23.299497    139362.58   -39446.978    2648.8987   -42095.876    111.07511     223.5599 
   22600    130.61567   -147.53192    139340.36   -39445.117    2622.2083   -42067.326    111.64571    221.30731 
   22650    129.78995   -18.734168     139127.3   -39427.565    2605.6313   -42033.196     111.9412    219.90825 
   22700    130.34519   -86.140593     139020.9   -39399.925    2616.7781   -42016.704    112.49796    220.84901 
   22750    130.11237    53.858283    139062.26   -39401.067    2612.1041   -42013.171    112.81792    220.45454 
   22800    131.81036    80.894639    139169.41   -39334.188    2646.1926   -41980.381    112.83792    223.33152 
   22850    135.25071   -52.458327    139050.48   -39312.169    2715.2602   -42027.429    112.84355    229.16063 
   22900    134.23081    78.817008    139187.44   -39297.171     2694.785   -41991.956     113.3846    227.43259 
   22950    132.38747   -108.20308    139297.97   -39368.626    2657.7784   -42026.405    113.98722    224.30933 
   23000    131.37849    257.93601    139267.56   -39377.549    2637.5225   -42015.071    114.25831    222.59978 
   23050     132.5998    17.073819    139405.22   -39347.422    2662.0411   -42009.463    114.71504    224.66909 
   23100    129.35204   -20.402975    139423.27   -39356.183    2596.8399   -41953.023    115.10101    219.16628 
   23150    132.54175    180.03287    139462.14   -39329.431    2660.8759   -41990.307     115.2243    224.57075 
   23200    135.14058    39.498261    139532.74   -39322.796    2713.0493   -42035.845    115.41261    228.97404 
   23250    132.16762    45.696575    139553.06   -39315.154    2653.3649   -41968.519    115.82605    223.93684 
   23300     132.5094   -70.426049    139648.32   -39308.281    2660.2263   -41968.508    115.92821    224.51592 
   23350    132.52254    166.74804    139543.05   -39302.326    2660.4901   -41962.816    116.09361    224.53819 
   23400    135.47735   -83.429091    139517.64   -39270.799    2719.8102   -41990.609    116.39322    229.54464 
   23450    132.14131   -59.856672    139473.98   -39296.112    2652.8366   -41948.948    116.64831    223.89225 
   23500    131.53121   -43.035274    139504.47    -39319.81    2640.5885   -41960.399    117.06832    222.85855 
   23550    133.45054    117.83935    139502.59    -39365.43    2679.1205   -42044.551    117.57423    226.11054 
   23600    135.02653    74.857987    139480.71   -39377.708    2710.7596   -42088.468    117.90096     228.7808 
   23650    134.09856    244.68348    139556.15   -39370.466    2692.1299   -42062.596    118.28915     227.2085 
   23700    134.80851    56.250528    139658.86   -39308.694    2706.3827   -42015.077     118.7503     228.4114 
   23750     134.8071   -119.73927    139519.29   -39344.021    2706.3544   -42050.376    119.07357    228.40901 
   23800    134.64011    84.632048    139538.01   -39362.426     2703.002   -42065.428    119.27381    228.12608 
   23850    132.57172    8.4516903     139544.4   -39387.992    2661.4774   -42049.469    119.09071    224.62151 
   23900    133.99865   -46.194855    139479.89   -39364.505    2690.1241   -42054.629    119.45704    227.03922 
   23950    133.51324   -107.13725    139509.64   -39374.116    2680.3791   -42054.495     119.8444    226.21677 
   24000    136.26239    107.57996    139600.79   -39357.846    2735.5705   -42093.416    119.79633    230.87477 
   24050    135.69013   -22.248184    139552.08    -39359.54    2724.0819   -42083.622    120.12499    229.90517 
   24100    135.55441   -174.21502    139398.96   -39393.494    2721.3573   -42114.851    120.19482    229.67521 
   24150    132.57058   -53.126656    139363.28   -39374.383    2661.4545   -42035.838    120.15137    224.61958 
   24200    131.80201    135.58109    139393.92   -39323.842    2646.0249   -41969.867    120.43708    223.31736 
   24250    133.72163   -44.075442     139503.5   -39371.618    2684.5629   -42056.181    120.50573    226.56986 
   24300    136.11005   -26.903575    139462.27   -39321.089    2732.5122   -42053.602    120.44014    230.61666 
   24350     135.4861   0.14345838    139416.72    -39335.18    2719.9858   -42055.166    120.95708    229.55946 
   24400    133.59071    -47.21474    139439.95   -39346.951    2681.9344   -42028.885     121.2277    226.34803 
   24450    131.91818    136.34732    139472.79   -39391.357    2648.3572   -42039.715    121.17289    223.51421 
   24500    128.41867    41.700353    139389.15   -39417.076    2578.1018   -41995.178    121.35703    217.58483 
   24550    131.66371    183.84046    139473.41   -39338.897    2643.2486   -41982.145    121.73748    223.08305 
   24600    131.75508    111.88752    139540.88   -39348.644    2645.0828   -41993.727    122.10236    223.23785 
   24650      133.723   -107.47039    139620.39   -39354.676    2684.5902   -42039.266    122.29504    226.57217 
   24700    133.77086   -204.32022    139402.64   -39333.283     2685.551   -42018.834      122.483    226.65326 
   24750    135.02112   -16.052166    139308.36   -39333.262    2710.6509   -42043.913      122.612    228.77163 
   24800    132.09037   -5.5848711    139265.29   -39347.273    2651.8141   -41999.087    122.73418    223.80595 
   24850    132.25573    198.72364    139172.69   -39361.023    2655.1338   -42016.156    122.76012    224.08613 
   24900    132.40718   -6.9541204    139169.66   -39356.551    2658.1742   -42014.726    122.82404    224.34273 
   24950    130.70835   -95.417097    139067.65   -39363.683    2624.0688   -41987.752    122.79348    221.46433 
   25000    131.52524    5.9848409    138918.11   -39350.893    2640.4685   -41991.361    122.86635    222.84842 
   25050    132.47046    168.26345    138987.81   -39353.009    2659.4446   -42012.454      123.191    224.44995 
   25100    131.86394   -104.80929    139051.22   -39377.816    2647.2682   -42025.084    123.54771    223.42229 
   25150    132.44118   -80.930384    139100.95   -39397.182    2658.8568   -42056.038    123.46834    224.40034 
   25200    130.63999   -46.407826    139134.68   -39425.861    2622.6965   -42048.558    123.76302    221.34851 
   25250    129.93084   -106.30823    139030.32   -39421.735    2608.4598   -42030.195    124.01213    220.14697 
   25300    130.37321    141.16512    139068.32   -39420.512    2617.3407   -42037.853    124.36925    220.89649 
   25350      130.866    115.45126    139287.09   -39407.924    2627.2339   -42035.158    124.37615    221.73145 
   25400    131.49891   -11.279138     139309.2   -39422.253    2639.9399   -42062.193    124.87158    222.80381 
   25450    133.00048   -11.789206     139351.8   -39408.761    2670.0851   -42078.846    125.19094    225.34798 
   25500    134.21432    65.817321    139419.46   -39371.291    2694.4538   -42065.745    125.47028    227.40463 
   25550    134.39663    19.125675    139353.32   -39342.802     2698.114   -42040.916    125.70516    227.71354 
   25600    131.12276    143.49936    139420.51   -39334.346    2632.3886   -41966.734    125.96739    222.16649 
   25650    134.75254    41.333663    139491.88   -39340.142     2705.259   -42045.401    125.88883    228.31656 
   25700    131.76552    99.341475    139607.91   -39342.334    2645.2925   -41987.627    126.33048    223.25555 
   25750     131.6214    0.4029988    139583.36   -39361.642     2642.399   -42004.041    126.35319    223.01135 
   25800    132.34002     10.03103    139512.82   -39325.793    2656.8258   -41982.619    126.39158    224.22893 
   25850    130.45046    48.140373    139546.69   -39338.266    2618.8916   -41957.158    126.71764    221.02739 
   25900    134.94293   -123.89028    139436.36   -39313.595    2709.0813   -42022.677    126.89139    228.63916 
   25950    132.45477    193.35254    139403.09   -39306.603    2659.1296   -41965.733     127.0009    224.42337 
   26000    133.61504     -24.8629    139526.35   -39312.411    2682.4229   -41994.834     127.3757    226.38926 
   26050    133.63328    151.34242    139479.89   -39315.511    2682.7891     -41998.3    127.68234    226.42016 
   26100    132.46847    118.79127    139688.75   -39324.577    2659.4046   -41983.982    128.03063    224.44657 
   26150    132.88571    17.910476    139829.88   -39311.852     2667.781   -41979.633    128.31837    225.15352 
   26200    132.47433   -118.92462    139722.12   -39349.833    2659.5223   -42009.355    128.62512     224.4565 
   26250    131.89787    15.653806    139597.85   -39308.976    2647.9493   -41956.925    128.69231    223.47978 
   26300     132.7372    22.214825    139542.66   -39312.456    2664.7996   -41977.256    128.84908     224.9019 
   26350    133.32247    177.13112    139641.51   -39365.086    2676.5494   -42041.635    129.36479    225.89355 
   26400    132.45286    64.238483    139489.72   -39393.593    2659.0913   -42052.684    129.56932    224.42013 
   26450    132.90211    212.47337    139624.27   -39371.164    2668.1104   -42039.274    129.83558    225.18132 
   26500    135.50279   -71.679946    139713.06   -39358.751     2720.321   -42079.072    130.24242    229.58775 
   26550    132.85819   -139.96569    139421.37   -39385.365    2667.2285   -42052.594     130.4999    225.10689 
   26600    134.16704   -7.5136012    139248.57   -39431.164    2693.5047   -42124.669    130.93374    227.32453 
   26650    132.93543   -74.019425     139451.4   -39435.974    2668.7791   -42104.753    131.09489    225.23776 
   26700    130.95028    25.857072    139436.16   -39434.703    2628.9258   -42063.628    131.05416    221.87425 
   26750    132.36221    41.679009    139439.32   -39362.086    2657.2715   -42019.358    131.38975    224.26654 
   26800    133.95969    113.95321    139498.45   -39378.568     2689.342    -42067.91    131.77775    226.97321 
   26850    134.02167   -62.278351    139453.73   -39369.241    2690.5862   -42059.827    131.98187    227.07822 
   26900     132.1921    207.57658    139568.01   -39398.965    2653.8562   -42052.821     132.5855    223.97831 
   26950    133.34779    1.9689051    139680.64   -39436.813    2677.0576    -42113.87    132.73286    225.93644 
   27000    134.89469   -82.013816    139625.44   -39465.863    2708.1128   -42173.976    132.73694    228.55742 
   27050    132.37071    73.168729    139554.89   -39440.037     2657.442   -42097.479    133.17699    224.28094 
   27100    132.59998    49.077034    139581.11   -39434.188    2662.0448   -42096.233     133.2906     224.6694 
   27150    130.19567     104.5026    139675.19   -39425.668    2613.7764   -42039.445    133.30826    220.59568 
   27200    134.41566   -142.85589    139787.41   -39427.174     2698.496    -42125.67    133.54516    227.74578 
   27250    130.49131   -38.694679    139578.82   -39449.033    2619.7116   -42068.744    133.92023    221.09659 
   27300    131.11887    33.728552    139766.14   -39440.923    2632.3105   -42073.234    134.19144     222.1599 
   27350      132.281    36.534471    139782.12   -39419.649     2655.641    -42075.29    134.49842    224.12893 
   27400    132.46132    66.392109    139830.79   -39378.974    2659.2611   -42038.236     134.5003    224.43447 
   27450    131.32774    55.438547    139876.04   -39400.512    2636.5036   -42037.015    134.78438    222.51379 
   27500    133.66216    114.24572    139804.09   -39348.808    2683.3688   -42032.177    134.94063    226.46909 
   27550    130.59918   -1.1438532    139863.03   -39391.156    2621.8773   -42013.033    135.39662    221.27937 
   27600     132.7457    1.9588308       139887   -39344.894    2664.9703   -42009.865    135.81102     224.9163 
   27650    131.39227   -36.898621    139921.13   -39388.359    2637.7991   -42026.158    135.92424    222.62313 
   27700    132.05261   -122.39204    139961.12   -39402.043     2651.056   -42053.099    136.13504    223.74197 
   27750     132.0019   0.48120872    139987.52   -39403.461    2650.0378   -42053.499    136.50395    223.65604 
   27800    131.01433   -8.2929453    139903.59   -39466.741    2630.2117   -42096.952    136.42308    221.98277 
   27850    130.36746   -130.10359    139722.75   -39517.766    2617.2252   -42134.991    136.41819    220.88675 
   27900     130.3869   -89.154616    139668.45   -39526.845    2617.6156   -42144.461    136.82098     220.9197 
   27950    133.42854    -74.22146    139647.83    -39461.86    2678.6788   -42140.539    136.72903    226.07326 
   28000    131.91489    15.907718    139535.84   -39433.286    2648.2912   -42081.578    136.81081    223.50863 
   28050    132.95965    25.006707       139581   -39426.704    2669.2655    -42095.97    136.46525    225.27881 
   28100    129.74565    22.134111    139715.98   -39413.497    2604.7421   -42018.239    136.80235     219.8332 
   28150    129.81711   -198.28041    139403.61   -39428.288    2606.1767   -42034.464    136.91002    219.95428 
   28200    133.37655    2.2789953    139325.13   -39403.409     2677.635   -42081.044    137.15473    225.98517 
   28250    132.69454   -129.88986     139203.6   -39393.325    2663.9432   -42057.268     137.4503    224.82962 
   28300    130.87405   -17.176829     139162.2   -39381.782    2627.3955   -42009.177    137.94592     221.7451 
   28350     128.8672    -117.6995    139119.38       -39440    2587.1063   -42027.107    138.22846     218.3448 
   28400    130.58667   -72.607177    139108.19   -39440.397     2621.626   -42062.023    138.50801    221.25816 
   28450    129.72023    83.803718    139075.49   -39420.485    2604.2316   -42024.717    138.49544    219.79012 
   28500    128.67234    128.84386    139138.32   -39409.848    2583.1945   -41993.042    138.84306    218.01465 
   28550    130.39978    2.6177903    139027.78   -39401.595    2617.8742    -42019.47    139.33167    220.94152 
   28600    134.44092     41.88716    139100.17   -39348.762    2699.0031   -42047.765    139.52711    227.78858 
   28650    133.44297    171.83826    139236.01   -39307.622    2678.9684    -41986.59    139.74745    226.09771 
   28700    135.27856    40.105141    139447.57   -39289.172    2715.8192   -42004.991    140.11163    229.20782 
   28750    132.79286   -69.270963    139362.96   -39332.631    2665.9171   -41998.548    140.39814    224.99621 
   28800    134.26386    59.480301    139307.72    -39367.04    2695.4484   -42062.488    140.46823    227.48857 
   28850    135.06462    35.437058    139401.15   -39395.877    2711.5244   -42107.402    140.25463    228.84534 
   28900    134.27904    54.114652    139354.17   -39318.432    2695.7533   -42014.185    140.69352    227.51431 
   28950    131.30463   -28.811034    139497.82   -39296.981    2636.0396    -41933.02    140.94804    222.47463 
   29000    132.80363     98.49551    139546.43   -39328.941    2666.1332   -41995.075     141.3249    225.01445 
   29050    133.05696    45.967666    139711.35   -39407.547     2671.219   -42078.767    141.49541    225.44368 
   29100    134.65673    186.45423    139844.17   -39363.997    2703.3356   -42067.333    141.93962    228.15424 
   29150    129.45664   -103.06136    139721.76   -39391.811    2598.9398   -41990.751    142.24172    219.34351 
   29200    134.79371    186.41403    139758.94   -39367.414    2706.0857     -42073.5    142.58014    228.38633 
   29250    131.14141   -133.34605    139853.03    -39365.04     2632.763   -41997.803    143.12383    222.19809 
   29300    134.01921   -55.234854    139759.89   -39353.115     2690.537   -42043.652    143.33207    227.07406 
   29350    132.25606    11.042461    139868.21   -39391.398    2655.1404   -42046.538    143.41736    224.08669 
   29400    133.12377   -218.40481    139746.62   -39445.029    2672.5603    -42117.59    143.55388    225.55688 
   29450    131.31777    17.337216    139617.69   -39440.953    2636.3035   -42077.257     143.6906     222.4969 
   29500    131.34397    -143.0641    139622.12   -39418.827    2636.8296   -42055.656    143.69798     222.5413 
   29550    131.79906    4.1148569    139438.51    -39444.05    2645.9657   -42090.016      144.043    223.31237 
   29600    131.01856    67.865139     139564.1   -39427.574    2630.2966   -42057.871    144.26812    221.98993 
   29650    132.53219   -90.437195    139508.83   -39444.237     2660.684   -42104.921    144.37892    224.55455 
   29700    132.39092    34.182961    139551.08   -39427.713    2657.8478   -42085.561     144.6255    224.31519 
   29750    131.70828    114.26079    139593.15    -39427.87    2644.1433   -42072.014    144.59104    223.15857 
   29800    135.64064   -95.588368    139596.22   -39398.243    2723.0883   -42121.332    144.96081     229.8213 
   29850    132.49278      95.2859    139574.77   -39421.825    2659.8928   -42081.718    145.00447    224.48778 
   29900     131.6664   -152.49866    139621.13   -39410.571    2643.3024   -42053.873    145.16173    223.08759 
   29950    131.02662     74.26846    139610.33   -39421.963    2630.4584   -42052.421    145.65756    222.00359 
   30000    135.30092   -88.135561       139580   -39371.541    2716.2683    -42087.81    145.91376    229.24571 
   30050    132.86738    64.379527    139506.18   -39378.649    2667.4131   -42046.062    146.19897    225.12247 
   30100    135.02994   -9.6006626    139697.62   -39335.306    2710.8281   -42046.135    146.47024    228.78658 
   30150    132.16832   -120.64506    139631.83   -39356.602    2653.3789   -42009.981    146.59748    223.93802 
   30200    132.53342   -51.394492    139540.86    -39375.94    2660.7085   -42036.648    146.73707    224.55662 
   30250    133.47162    89.725958     139662.5   -39342.277    2679.5437    -42021.82    146.78891    226.14626 
   30300    131.58768    39.359508    139656.88   -39339.698    2641.7221    -41981.42    147.21179    222.95422 
   30350    132.99191    248.24827    139681.22   -39340.537     2669.913    -42010.45    147.58235    225.33345 
   30400    134.41238    55.557845    139961.39   -39382.696      2698.43   -42081.126    147.96359    227.74022 
   30450    131.43995   -65.236944    139960.47   -39375.622    2638.7564   -42014.378    148.28879    222.70392 
   30500    130.97783   -161.03665    139860.96   -39441.979     2629.479   -42071.458    148.49453    221.92093 
   30550    132.03007     160.0797    139868.92   -39412.848    2650.6033   -42063.451    148.59899    223.70377 
   30600    129.19401    162.50552    139869.95   -39405.663    2593.6673    -41999.33    148.79675    218.89853 
   30650    130.79181   -178.24655    139861.46   -39424.079    2625.7443   -42049.823    149.24729    221.60574 
   30700    132.96955    39.996062    139829.06   -39424.786    2669.4642    -42094.25    149.18522    225.29558 
   30750    132.94892    12.516963    139869.04     -39415.9      2669.05    -42084.95      149.268    225.26062 
   30800    131.70885    100.96194    139821.11   -39400.007    2644.1548   -42044.161    149.60053    223.15953 
   30850    133.24068   -78.664083    139723.21   -39404.737    2674.9074   -42079.644     149.5827    225.75497 
   30900    131.01911    30.674895    139688.95   -39398.396    2630.3076   -42028.703    149.92255    221.99086 
   30950    134.08212     21.73425    139691.17   -39349.039    2691.7998   -42040.839    150.34026    227.18064 
   31000    135.37526    69.645343    139772.22   -39319.932    2717.7607   -42037.692    150.74236    229.37167 
   31050    133.13641    24.465784     139822.6   -39303.269     2672.814   -41976.083    151.06833    225.57829 
   31100    130.27071    37.127205    139782.22    -39352.83     2615.283   -41968.113    151.30875    220.72283 
   31150    133.21529    11.394295    139883.38   -39343.523    2674.3977   -42017.921    151.31592    225.71195 
   31200    131.63198    96.517919    139910.14   -39299.396    2642.6114   -41942.007      151.837    223.02927 
   31250    131.92413    16.614761    139969.13   -39361.693    2648.4766    -42010.17    152.09667    223.52428 
   31300    132.07033    7.8002096    139849.09    -39347.65    2651.4116   -41999.062     152.2274    223.77199 
   31350    134.02314   -107.94788     139889.9   -39320.841    2690.6158   -42011.457    152.36481    227.08072 
   31400    131.13498   -202.46584    139733.14   -39353.347    2632.6338   -41985.981    152.75162    222.18719 
   31450    131.32693    72.614371    139862.91   -39330.592    2636.4875    -41967.08    153.37646    222.51243 
   31500    132.65134   -13.142513    139664.03   -39376.482    2663.0759   -42039.558    153.43457    224.75642 
   31550    133.04777   -14.854759    139601.69   -39356.963    2671.0346   -42027.998    153.49935    225.42812 
   31600    133.03321   -85.512406    139625.06   -39367.234    2670.7422   -42037.976    153.66035    225.40343 
   31650    131.73657     68.06905    139631.98   -39407.173    2644.7112   -42051.884    154.20731    223.20649 
   31700    133.24403    11.843976    139588.62   -39377.139    2674.9746   -42052.113    154.66195    225.76064 
   31750    133.83524     98.06997    139668.73   -39325.657    2686.8436   -42012.501    154.75045    226.76235 
   31800    130.52015    19.495232    139572.09   -39348.129    2620.2907    -41968.42    154.63292    221.14547 
   31850    130.76929    15.554067    139725.64    -39390.96    2625.2922   -42016.252    154.83191    221.56758 
   31900    131.58148   -58.409678    139810.52   -39403.137    2641.5975   -42044.734      154.989    222.94371 
   31950    132.42147     39.99987    139790.25   -39351.623    2658.4611   -42010.084    155.13895    224.36695 
   32000    135.74041   -139.23607    139642.57   -39315.891    2725.0913   -42040.983    155.09481    229.99035 
   32050    130.59157    132.53658    139560.75   -39334.816    2621.7245   -41956.541    155.15115    221.26647 
   32100    131.24157   -32.443001    139550.38   -39372.353    2634.7738   -42007.127     155.1141     222.3678 
   32150    132.53328   -3.9045349    139522.95   -39338.817    2660.7057   -41999.523    155.72404    224.55638 
   32200    132.07201     31.00115    139575.83   -39294.923    2651.4453   -41946.368    156.04858    223.77483 
   32250    134.16007    -133.5871    139585.78   -39253.009    2693.3649   -41946.374    156.35548    227.31273 
   32300    133.65775   -85.648872    139411.13   -39293.512    2683.2804   -41976.792    156.36505    226.46163 
   32350    133.11395   -96.702673    139412.08   -39313.919    2672.3631   -41986.282    156.60296    225.54024 
   32400    132.85252   -68.381682    139295.06   -39354.126    2667.1147   -42021.241     156.7884    225.09728 
   32450    132.80171    89.920076    139240.82   -39306.232    2666.0947   -41972.327    157.16848     225.0112 
   32500    134.46278    155.46832    139320.47   -39335.652     2699.442   -42035.094     157.2593    227.82562 
   32550    133.80929    -96.91244    139247.49   -39294.195    2686.3227   -41980.518    157.48765    226.71839 
   32600     133.9631   -49.604315    139147.83   -39350.317    2689.4104   -42039.727    157.64133    226.97899 
   32650     133.5536    -108.2204    139224.72   -39394.687    2681.1895   -42075.876     157.7386    226.28516 
   32700    131.95019    90.994653    139127.97   -39484.395    2648.9997   -42133.395    158.14276    223.56843 
   32750    130.27373   -11.796855    139027.74   -39481.419    2615.3436   -42096.763    158.61936    220.72795 
   32800    130.61491   -34.317328    138937.92   -39502.325    2622.1931   -42124.518    159.09096    221.30602 
   32850    130.99049   -104.71804    138701.71   -39427.906    2629.7331   -42057.639     159.4858    221.94238 
   32900    132.10732    11.452244    138759.54   -39383.197    2652.1543   -42035.351    159.54483    223.83467 
   32950    132.72964     74.62688     138922.1   -39346.296    2664.6479   -42010.944    159.72241    224.88909 
   33000    133.56464   -129.53569    138999.25   -39380.529    2681.4111    -42061.94    160.07371    226.30386 
   33050    133.63774    178.95825    138984.51    -39335.49    2682.8786   -42018.368    159.97575    226.42772 
   33100    131.75204   -47.961819     138908.7   -39384.482    2645.0217   -42029.503    160.10252    223.23269 
   33150    130.92227    48.063869    138885.87   -39398.416    2628.3635    -42026.78    160.24501    221.82679 
   33200    134.36567    143.55861    139098.43   -39372.008    2697.4923     -42069.5     160.5042    227.66108 
   33250    131.97226   -87.471562    139051.77   -39415.869    2649.4429   -42065.311    161.08858    223.60583 
   33300      131.573    187.72081     138913.7   -39396.928    2641.4274   -42038.356    161.25155    222.92935 
   33350    135.68591    109.15096    139177.92   -39366.397    2723.9972   -42090.394    161.14893    229.89802 
   33400    133.03748    186.77929    139496.06   -39338.026     2670.828   -42008.854    161.51133    225.41068 
   33450    134.35461    17.698023    139629.26   -39383.288    2697.2704   -42080.558    162.02594    227.64234 
   33500    133.07414   -99.431588    139741.53   -39372.414     2671.564   -42043.978    162.32144     225.4728 
   33550    132.12621   -152.67058    139618.42   -39401.416    2652.5336   -42053.949    162.53935    223.86668 
   33600     133.2033  -0.64778355     139536.5   -39442.845    2674.1569   -42117.002    162.43034    225.69163 
   33650    133.54933    29.518589    139539.01   -39428.798    2681.1037   -42109.901    162.15816    226.27792 
   33700    134.90626   -75.801773    139642.39   -39420.041     2708.345   -42128.386    162.38849    228.57702 
   33750    133.36323    59.099298    139703.76   -39413.605    2677.3676   -42090.972    162.91144    225.96261 
   33800    130.29438    -62.09783    139674.48   -39432.088    2615.7582   -42047.847    162.85677    220.76293 
   33850    133.87413   -187.81909    139504.37   -39429.875    2687.6244     -42117.5    162.89245    226.82825 
   33900    136.01585   -39.085696    139327.63   -39425.914     2730.621   -42156.535    162.87234    230.45705 
   33950    134.06812   -41.024876    139419.78    -39422.95    2691.5189   -42114.469    163.23023    227.15693 
[...]
   92000    132.60836    144.95617    139868.41   -39357.851     2662.213   -42020.064    418.96494    224.68359 
   92050    131.51206    33.795492    139856.97    -39404.51    2640.2041   -42044.714    419.27232     222.8261 
   92100    131.68474    72.612313    139863.97   -39414.365    2643.6706   -42058.036    418.92913    223.11867 
   92150    131.04195     70.93937    139780.17   -39425.939    2630.7662   -42056.705    419.22959    222.02957 
   92200    131.52928    10.713418    139706.89   -39427.288    2640.5497   -42067.838    419.22331    222.85527 
   92250    132.02458   -60.593853    139771.53   -39427.627    2650.4931    -42078.12    419.56116    223.69447 
   92300    131.95191   -263.82913     139733.6   -39437.679    2649.0342   -42086.713    420.54049    223.57134 
   92350    131.34102   -70.997739    139447.17   -39400.914    2636.7703   -42037.684    420.30361     222.5363 
   92400    134.42684    7.2425643    139499.33   -39403.767    2698.7204   -42102.487    420.15872    227.76472 
   92450    131.53006    6.5190063    139558.45   -39414.842    2640.5653   -42055.407     420.8379    222.85659 
   92500    131.86476    109.93826    139536.89   -39415.886    2647.2846   -42063.171    420.86551    223.42368 
   92550    133.34924    101.59852    139571.53   -39418.211    2677.0869   -42095.298    420.42512    225.93891 
   92600    132.76992    77.745167    139598.42   -39401.603    2665.4565   -42067.059    420.59633    224.95734 
   92650    132.48128    24.955181    139617.26   -39408.033    2659.6617   -42067.695    421.08201    224.46828 
   92700    132.86393    41.014209    139529.05   -39397.137    2667.3438   -42064.481    421.15515    225.11662 
   92750    131.76675   -95.884025    139558.08   -39376.362    2645.3171   -42021.679     421.3284    223.25763 
   92800    134.44254   -7.6373662    139656.42   -39361.062    2699.0355   -42060.097     421.5938    227.79132 
   92850     132.6699    38.278986    139613.96   -39381.913    2663.4484   -42045.361    421.55242    224.78786 
   92900    132.00821    83.690081    139792.36    -39390.26    2650.1647   -42040.424    422.34066    223.66675 
   92950    131.62317    11.833321    139850.93   -39410.552    2642.4346   -42052.986    422.85477    223.01435 
   93000     133.6802    100.54646    139896.41   -39355.635    2683.7311   -42039.366    422.83368    226.49966 
   93050    134.04528    124.94188    140006.93    -39351.47    2691.0602    -42042.53    423.02681    227.11822 
   93100    136.26134   -103.53589    140012.28   -39333.508    2735.5493   -42069.058    423.67883    230.87299 
   93150    135.81197    -52.03287    140052.55   -39271.278    2726.5279   -41997.806    423.84573     230.1116 
   93200    136.47709   -129.73952    139852.15   -39277.052    2739.8807   -42016.933    423.78587    231.23854 
   93250    135.56577   -214.14797    139725.77   -39321.005    2721.5852    -42042.59    423.77555    229.69445 
   93300    132.93174   -91.800876    139499.11   -39367.211    2668.7051   -42035.917    423.90415    225.23151 
   93350    135.90818    14.582092    139495.25   -39334.435    2728.4594   -42062.894     423.9341    230.27461 
   93400    131.96211    95.843837    139540.05   -39375.475    2649.2392   -42024.714    424.25582    223.58864 
   93450      133.509    -98.03496    139763.69   -39332.363    2680.2941   -42012.657    425.21767    226.20959 
   93500    132.82552   -147.83119    139646.96    -39345.01    2666.5728   -42011.583    425.40568    225.05155 
   93550     134.0121    159.63238    139654.71   -39280.231    2690.3942   -41970.625    425.54206    227.06201 
   93600    137.32415    7.1364104    139761.04   -39231.105    2756.8861   -41987.991    425.68077    232.67375 
   93650    135.26666  -0.74358413    139688.35   -39252.957    2715.5805   -41968.537    425.36235    229.18767 
   93700    136.63734    10.795243    139671.03   -39260.634    2743.0978   -42003.732     425.7058    231.51006 
   93750    133.05365   -102.76099    139629.29   -39291.031    2671.1526   -41962.184    425.73455    225.43807 
   93800    132.45567   -5.2615472    139336.68   -39287.993    2659.1476   -41947.141    425.11507    224.42489 
   93850    131.09109   -64.234252    139294.77   -39303.875    2631.7527   -41935.627    425.44464    222.11283 
   93900    133.11202    18.627747    139251.51    -39315.83    2672.3243   -41988.154    425.84816    225.53697 
   93950    132.69679   -10.962277    139383.84   -39310.687    2663.9884   -41974.676    426.68392    224.83343 
   94000    131.82964    72.218715    139386.26   -39360.583    2646.5796   -42007.162    426.82374    223.36418 
   94050    133.03829   -136.21455    139414.39   -39325.593    2670.8441   -41996.437    427.17469    225.41204 
   94100    133.94691    91.095949    139514.24   -39313.426    2689.0854   -42002.512    428.09917    226.95155 
   94150    131.79188    148.09025    139699.67   -39370.099    2645.8216   -42015.921    428.60275    223.30021 
   94200    136.63364   -76.449381    139674.01   -39335.391    2743.0236   -42078.414    429.27241    231.50379 
   94250    133.12388    68.155846    139652.49   -39349.131    2672.5625   -42021.694    429.50602    225.55707 
   94300    134.84096    55.217132    139763.77   -39372.882    2707.0342   -42079.917    429.80861    228.46639 
   94350    131.83157   -216.39096    139628.06   -39429.907    2646.6184   -42076.526    429.84505    223.36745 
   94400    133.77424    131.01611    139573.05   -39388.922     2685.619   -42074.541     429.9632      226.659 
   94450    132.01833    -63.70565    139495.68     -39421.5    2650.3678   -42071.868    430.26967    223.68389 
   94500     134.4484    224.53231    139495.69   -39445.032    2699.1533   -42144.185    430.61305    227.80125 
   94550    132.77558    200.24532    139631.82   -39460.478    2665.5701   -42126.048    431.39118    224.96693 
   94600    133.11867    70.720179    139680.42   -39408.373     2672.458   -42080.831    431.77225    225.54824 
   94650    131.99201    94.270884    139764.32   -39463.869    2649.8393   -42113.708    432.48314    223.63929 
   94700    130.98351   -45.572545     139716.3   -39515.746    2629.5929   -42145.339      432.735    221.93055 
   94750    134.40498   -54.731201    139666.86   -39488.933    2698.2816   -42187.215    432.80077    227.72768 
   94800    133.21278    -85.90105    139441.84   -39496.989    2674.3471   -42171.337     433.0466    225.70768 
   94850    131.10312    41.845918    139357.84   -39536.515    2631.9942   -42168.509    433.21228    222.13321 
   94900    132.89832   -146.75774    139273.56   -39525.714    2668.0342   -42193.748    432.95048    225.17489 
   94950    132.81594    33.312241    139222.18   -39519.389    2666.3804   -42185.769    432.93589    225.03531 
   95000    131.39629    154.55365    139333.35   -39495.266    2637.8798   -42133.146    433.16682    222.62994 
   95050     131.5171   -92.463958    139319.57   -39493.696    2640.3051   -42134.002    433.64545    222.83463 
   95100    130.20982   -144.34726    139176.24   -39493.816    2614.0605   -42107.877    433.33593    220.61965 
   95150    132.89412    39.117072    139040.18   -39507.435      2667.95   -42175.385    433.42442    225.16778 
   95200    131.23135    27.936953    139140.73   -39510.488    2634.5686   -42145.056    433.52355    222.35048 
   95250    131.52725    135.21467    139290.14   -39515.749    2640.5089   -42156.258    433.61861    222.85183 
   95300     133.1568    27.211369    139362.17   -39479.045    2673.2233   -42152.268    433.89753    225.61284 
   95350    131.10984    153.06495    139372.45   -39451.795     2632.129   -42083.924    433.96276    222.14459 
   95400    131.19355   -85.070365    139560.51   -39504.132    2633.8097   -42137.941    434.45223    222.28644 
   95450    133.52916    94.271648    139627.65   -39501.727    2680.6988   -42182.426    435.11667    226.24375 
   95500     136.3708   -53.462026    139646.91   -39494.053    2737.7469     -42231.8    435.43173    231.05845 
   95550    133.94721   -60.008893    139547.78   -39542.657    2689.0914   -42231.748    435.10955    226.95206 
   95600    130.42971    22.012249    139552.69   -39539.201    2618.4751   -42157.676    434.79712    220.99223 
   95650    131.55327    117.95152    139557.39   -39514.181    2641.0313   -42155.212    435.19004    222.89592 
   95700    134.40633     34.71878    139787.26   -39491.545    2698.3086   -42189.854    435.94891    227.72997 
   95750    130.54142   -132.87499    139803.46   -39508.344    2620.7176   -42129.062    436.31772    221.18149 
   95800    130.94953    90.408509    139655.99   -39518.122    2628.9107   -42147.033    436.29115    221.87297 
   95850     130.9889   -14.295166    139662.85   -39527.219    2629.7012    -42156.92    436.31408    221.93969 
   95900    129.87577    45.569052    139662.52   -39479.017    2607.3542   -42086.371    436.68577    220.05366 
   95950      130.253    42.118868    139787.53    -39480.65    2614.9274   -42095.577    437.15318    220.69282 
   96000    133.99854    64.892282    139743.87   -39438.445     2690.122   -42128.567    437.16225    227.03904 
   96050    132.33639   -52.541465    139712.25   -39462.272    2656.7529   -42119.024    437.32745    224.22278 
   96100    130.98747    40.776491    139765.92   -39402.187    2629.6725   -42031.859    437.79381    221.93726 
   96150    130.86903   -157.43924     139758.2   -39414.774    2627.2947   -42042.069    438.55504    221.73659 
   96200    132.56112    28.026404    139653.48   -39441.227    2661.2647   -42102.492    438.30428    224.60356 
   96250    132.02486   -40.855781    139782.26    -39435.89    2650.4989   -42086.389    439.02427    223.69496 
   96300    132.09045   -34.381578    139593.37   -39438.022    2651.8155   -42089.838    439.05096    223.80608 
   96350    131.30598    99.381412    139608.43   -39476.828    2636.0667   -42112.894    439.25155    222.47692 
   96400    132.21534   -76.160892    139494.08   -39426.387    2654.3228    -42080.71    439.44955    224.01768 
   96450    133.40089    46.429987    139593.76   -39405.918    2678.1236   -42084.042    439.87004    226.02641 
   96500    134.59994   -31.533914    139449.21   -39373.762    2702.1954   -42075.957    440.15651    228.05801 
   96550    133.90262   -23.025306    139555.95   -39401.376    2688.1964   -42089.572    440.60523    226.87652 
   96600    131.86767   -33.975512    139561.61   -39422.607    2647.3431    -42069.95    440.63001    223.42861 
   96650    131.36695    16.420924     139616.6    -39407.31    2637.2907   -42044.601    441.15404    222.58022 
   96700     132.0379    164.66474    139611.62   -39409.371    2650.7606   -42060.132    441.81371    223.71705 
   96750    130.98857    58.746825    139656.68   -39404.234    2629.6946   -42033.929    442.10982    221.93913 
   96800    131.62524    292.08312    139585.86   -39398.438    2642.4762   -42040.914    442.06366    223.01787 
   96850    134.06061    30.680617    139739.86   -39381.661     2691.368   -42073.029    442.92408     227.1442 
   96900    133.18313   -66.730345    139767.24   -39384.594     2673.752   -42058.346     443.3504    225.65745 
   96950    131.91134   -199.18483    139749.56   -39438.817    2648.2199   -42087.037    443.93132    223.50261 
   97000    131.29146     4.331677    139679.02   -39469.222    2635.7753   -42104.998    443.67805    222.45232 
   97050    130.83239    161.74511    139802.67   -39427.605    2626.5592   -42054.164    443.60614    221.67451 
   97100    131.02601     -12.5002    139765.82   -39465.551    2630.4461   -42095.997     443.8654    222.00255 
   97150    132.41323   -26.363066    139820.06   -39443.352    2658.2957   -42101.648     444.6169    224.35299 
   97200    132.53914   -247.97594    139649.17   -39415.007    2660.8235    -42075.83    444.45607    224.56632 
   97250    133.88285    144.54467    139736.51   -39392.942    2687.7994   -42080.741    445.11751    226.84302 
   97300    132.63332   -50.008025    139722.08   -39382.631    2662.7141   -42045.345    445.77467    224.72589 
   97350    133.45534   -100.81006    139646.12   -39302.422    2679.2168   -41981.638    446.12018    226.11867 
   97400    134.24619    24.501082    139505.47   -39307.312    2695.0937   -42002.405    445.87461    227.45863 
   97450    135.19749   -34.847739     139515.6   -39303.109    2714.1918   -42017.301      445.901    229.07047 
   97500    134.95206    92.152833    139666.03   -39250.903    2709.2646   -41960.167    445.99326    228.65463 
   97550    134.55509    44.297167    139734.56   -39260.845    2701.2951    -41962.14    446.35286    227.98202 
   97600    135.32475   -58.702439    139773.36   -39334.802    2716.7466   -42051.549    446.46551    229.28608 
   97650    134.47768   -56.932744    139713.18   -39287.449    2699.7411    -41987.19    446.39902    227.85087 
   97700    132.97726   -46.421202    139516.63   -39341.017    2669.6189   -42010.636     446.0024    225.30863 
   97750    132.36365   -27.748352     139445.5   -39351.077    2657.3003   -42008.377    446.11502    224.26897 
   97800    133.41836    74.197269    139598.31    -39401.25    2678.4744   -42079.725    446.40784    226.05601 
   97850    131.90677    215.44417    139685.13   -39417.723    2648.1282   -42065.851    446.50279    223.49488 
   97900    129.67516   -80.429316    139781.09   -39504.379    2603.3269   -42107.706    446.69366    219.71377 
   97950    131.33189   -57.942028    139767.82   -39486.943    2636.5869    -42123.53    446.61892    222.52082 
   98000    132.11793   -25.005698    139769.52   -39432.271    2652.3673   -42084.638    446.64715    223.85265 
   98050    130.40178   -28.916234    139812.02   -39400.321    2617.9142   -42018.236     446.8885     220.9449 
   98100    130.63992   -18.607337    139887.93   -39406.908    2622.6951   -42029.603    447.42502    221.34839 
   98150    133.68673   -169.53743    139772.32   -39395.181    2683.8621   -42079.043    447.34827    226.51072 
   98200    132.91062    -45.78761    139586.67   -39353.444    2668.2811   -42021.725    447.41907    225.19572 
   98250    133.93045   -44.310424    139766.47   -39371.939    2688.7551   -42060.694    447.77392    226.92367 
   98300    131.37729    34.920672    139765.73   -39401.827    2637.4984   -42039.325    448.06393    222.59775 
   98350    131.34302     -55.3784    139628.96   -39427.117    2636.8104   -42063.927    448.20137    222.53969 
   98400     131.2979     69.36205    139548.78   -39410.331    2635.9047   -42046.235    448.82489    222.46324 
   98450    132.47402    -73.23865    139411.61   -39421.243    2659.5161   -42080.759     448.7109    224.45599 
   98500    131.28561    110.70458    139534.02   -39415.942    2635.6579     -42051.6    448.49241    222.44242 
   98550    134.50754   0.27452083    139532.96   -39341.926    2700.3405   -42042.267    448.55606    227.90145 
   98600     132.5072   -19.281085    139526.23   -39357.814    2660.1822   -42017.996    448.97469    224.51221 
   98650    132.73807    47.862484    139552.52   -39381.921    2664.8171   -42046.738    448.73946    224.90338 
   98700     133.3986   -17.177241    139720.77   -39381.839    2678.0776   -42059.916    449.53127    226.02253 
   98750    131.07057    33.856492    139750.45   -39369.581    2631.3406   -42000.921     449.8771    222.07805 
   98800    132.25511    46.002895    139781.56   -39393.176    2655.1212   -42048.297    449.90752    224.08507 
   98850    132.04666    15.132449    139790.93   -39405.931    2650.9364   -42056.867    450.17419    223.73188 
   98900    131.84275   -108.80899    139780.44   -39399.969    2646.8429   -42046.812    450.63089     223.3864 
   98950    132.41214    35.658406    139690.01    -39470.03    2658.2737   -42128.304    449.93942    224.35113 
   99000    131.87654    179.33566    139760.67     -39453.4    2647.5211   -42100.921    449.97135    223.44364 
   99050    131.31779   -116.43906    139749.85   -39473.007    2636.3039   -42109.311    450.11145    222.49694 
   99100    130.64527    226.37161    139785.86   -39481.979    2622.8026   -42104.782    450.06821    221.35746 
   99150    132.54737    24.315943     139925.3   -39443.706    2660.9886   -42104.695     450.6987    224.58026 
   99200    133.51654   -113.78111    139974.27   -39451.157    2680.4455   -42131.603     451.2388    226.22237 
   99250    130.64406    87.777629    139811.03   -39473.424    2622.7783   -42096.202    451.39539    221.35541 
   99300    134.27186   -15.847571    139765.05   -39438.633    2695.6091   -42134.242    451.62769    227.50214 
   99350    131.36558   -50.016758    139669.18   -39457.108    2637.2632   -42094.371    451.15142     222.5779 
   99400    130.34743   -112.78397    139748.59   -39471.337    2616.8231   -42088.161    451.24623    220.85281 
   99450    131.54514   -0.4822603     139681.5   -39446.523    2640.8681   -42087.391    451.23503    222.88214 
   99500     132.0744   -109.52989    139644.26   -39462.631    2651.4934   -42114.125    451.45957    223.77889 
   99550     133.6919  -0.38208737    139604.93   -39454.067    2683.9659   -42138.032    452.23251    226.51948 
   99600    133.40127   -117.56686    139460.64   -39430.093    2678.1313   -42108.224    452.43795    226.02706 
   99650    135.35321     29.20484    139466.33   -39428.357    2717.3179   -42145.675    452.97865     229.3343 
   99700    133.92159    80.225878    139532.02   -39377.235    2688.5772   -42065.812    453.09149    226.90866 
   99750    132.36702   -55.600224    139560.72   -39433.854     2657.368   -42091.222    452.88727    224.27469 
   99800     130.5144   -62.488031    139619.41   -39458.767    2620.1753   -42078.942    452.95264    221.13572 
   99850    130.65961    321.80925    139813.96   -39347.964    2623.0905   -41971.054    453.05752    221.38176 
   99900    131.88818   -42.952333    139923.74   -39381.439    2647.7548   -42029.194    453.79063    223.46337 
   99950      133.642    34.048467    139859.91   -39405.991    2682.9641   -42088.955    453.77734    226.43494 
  100000    133.46988   -146.01284    139851.13   -39426.926    2679.5086   -42106.434    454.00026     226.1433 
Loop time of 328.852 on 40 procs for 100000 steps with 6736 atoms

Performance: 131.366 ns/day, 0.183 hours/ns, 304.088 timesteps/s
99.5% CPU use with 40 MPI tasks x no OpenMP threads

MPI task timing breakdown:
Section |  min time  |  avg time  |  max time  |%varavg| %total
---------------------------------------------------------------
Pair    | 57.839     | 150.53     | 272.09     | 628.4 | 45.77
Neigh   | 1.9581     | 4.1444     | 12.104     | 167.9 |  1.26
Comm    | 31.333     | 122.2      | 161.43     | 365.1 | 37.16
Output  | 0.20166    | 0.21392    | 0.31254    |   3.5 |  0.07
Modify  | 9.774      | 50.011     | 107.36     | 632.3 | 15.21
Other   |            | 1.758      |            |       |  0.53

Nlocal:    168.4 ave 404 max 111 min
Histogram: 32 0 0 0 0 0 0 2 3 3
Nghost:    1297.17 ave 1673 max 873 min
Histogram: 16 0 0 0 0 0 0 0 16 8
Neighs:    0 ave 0 max 0 min
Histogram: 40 0 0 0 0 0 0 0 0 0
FullNghs:  20403.2 ave 74448 max 7021 min
Histogram: 32 0 0 0 0 0 0 1 3 4

Total # of neighbors = 816126
Ave neighs/atom = 121.159
Neighbor list builds = 6130
Dangerous builds = 0

write_data		${DIR}/data.eq-${NAME}-${TEMP}
write_data		run_2/data.eq-${NAME}-${TEMP}
write_data		run_2/data.eq-het_freeze_2-${TEMP}
write_data		run_2/data.eq-het_freeze_2-225
undump          1

reset_timestep  0

unfix           2
unfix           3
unfix           4


################################################
#######         Run Simulation         #########
################################################

log				${DIR}/log.run_${NAME}
log				run_2/log.run_${NAME}
log				run_2/log.run_het_freeze_2
