LAMMPS data file via write_data, version 16 Mar 2018, timestep = 6000000

6736 atoms
2 atom types

0.0000000000000000e+00 4.9219999999999999e+01 xlo xhi
0.0000000000000000e+00 4.9019635930410494e+01 ylo yhi
4.4989029057857621e-01 5.9612109709420018e+01 zlo zhi

Masses

1 18.015
2 12.01

Atoms # atomic

3686 1 1.0169363238004772e+00 2.4278008823744948e+00 2.6384062494958247e+00 2 5 0
3656 1 1.6673753225925234e-01 6.7148516210164049e+00 2.4547029009310530e+00 1 -2 0
4598 1 5.1838369927289021e+00 6.7910644427724964e-01 2.2751885940488368e+00 0 -1 1
5184 1 6.4806087388569695e+00 3.1115857661128552e+00 1.7651881858386038e+00 -1 -1 0
2196 1 8.9126980879509645e+00 3.4870550199404939e+00 2.7084288545329089e+00 -2 2 0
382 1 1.0757354633294792e+01 1.5234518419742620e+00 1.6800204274504520e+00 -1 -2 0
2474 1 1.8700053068675999e+00 4.8159994986581633e+00 1.6076929551524821e+00 1 0 1
1931 1 1.8130280245643082e+00 1.6049119804959211e+01 8.5207081001781351e+00 2 -1 0
5558 1 4.7749712411084166e+00 5.0575879654600673e+00 2.2730801449221900e+00 2 1 0
1155 1 5.7533405582781061e+00 7.4606341649681100e+00 1.7416646513581255e+00 1 1 1
5279 1 8.3467632362397399e+00 7.7127448497821156e+00 2.5928736137776704e+00 1 1 0
1074 1 1.0057247443598195e+01 5.8677334829844421e+00 1.7138375166152371e+00 -2 0 1
1814 1 1.1554543939409274e+00 9.1327450186587349e+00 1.6826867518946222e+00 1 4 1
3563 1 4.0157891135439501e+00 9.6066592523123671e+00 2.4688536475768927e+00 -1 0 0
5412 1 4.7838554864015794e+00 1.2039418601614775e+01 2.0278735078775485e+00 1 0 0
3631 1 7.4405281447708065e+00 1.2380784129961095e+01 2.4904611905337326e+00 0 2 0
739 1 9.3988933105019399e+00 1.0196290942118241e+01 1.6546491525916207e+00 0 -1 0
1890 1 1.1734457621129918e+01 1.0499804021549469e+01 2.4835695967444824e+00 0 -3 0
5968 1 1.1711363738758390e+01 1.0577410781941653e+01 9.4955941580107268e+00 2 5 1
2138 1 2.8765475748404383e+00 1.3936908264210240e+01 2.2143948533585212e+00 2 1 0
987 1 8.4614650370739906e+00 1.4623203035742378e+01 1.2096866929277987e+00 1 4 1
2900 1 1.0932571656374472e+01 1.4735975063470478e+01 2.3839343760780589e+00 -3 1 1
6238 1 1.1201130298300814e+00 2.4736135279238947e+00 5.1622492804120048e+00 0 -4 0
165 1 3.7222755711915574e+00 2.3301853302693614e+00 6.1320199931195178e+00 0 0 0
158 1 5.3655522210622140e+00 7.3249484584899405e-01 5.0063674015642921e+00 -1 -1 0
305 1 3.8761770726309748e+00 2.6993830783541877e+00 9.1068156961423252e+00 1 -2 0
2747 1 7.9513188073459684e+00 1.6255719323035160e+00 6.0482869941357453e+00 1 -1 1
416 1 8.7265297340606853e+00 3.9844528585189014e+00 5.4580498772332540e+00 1 -2 0
2623 1 3.1522213227465947e+00 7.0128792373191082e+00 6.1230740279164309e+00 3 1 1
4312 1 6.1018532332489595e-01 6.8941029477039688e+00 5.2636099865381789e+00 -3 2 1
5298 1 4.6764448414228035e+00 4.9561016901413151e+00 4.7993058101690611e+00 2 3 0
5139 1 7.1163688126650184e+00 5.6030214583339415e+00 6.4502488090656165e+00 1 0 1
4592 1 1.1382062559843897e+01 4.3588518855796572e+00 6.4762374106327423e+00 -2 2 0
6297 1 8.2773571090039049e+00 7.7940637714243772e+00 5.5445843236562338e+00 -4 2 0
5223 1 2.2271877405271252e+00 1.1622090949070463e+01 5.8611698712901443e+00 5 1 1
4374 1 3.7553226244650681e+00 9.3414783747924108e+00 5.1292319768860013e+00 -2 0 1
3531 1 6.6425646984558266e+00 9.8044782631038565e+00 6.0892036172763584e+00 -3 -1 0
2661 1 7.7340943809029898e+00 1.2143024045522948e+01 5.0340826769325293e+00 0 2 0
4301 1 1.1565010373607251e+01 1.0514889736692911e+01 5.0757776588082431e+00 1 -1 1
2110 1 1.0738995560120809e+01 8.2646909368278685e+00 6.0683530115088988e+00 1 1 0
2802 1 1.5773375978750439e+00 1.5923757234074774e+01 5.7709193269738606e+00 2 3 1
3435 1 3.4281993904787025e+00 1.3931343831179046e+01 4.8991557351118482e+00 -3 -1 0
5344 1 6.4618548981201229e-03 4.7844654667805848e+00 8.8892209359926113e+00 2 -2 0
2069 1 6.0344594944899335e+00 1.4241325639969416e+01 5.5288858648489541e+00 4 0 0
1112 1 1.0337695282472527e+01 1.3056309953224684e+01 5.7127424508810876e+00 2 3 1
4522 1 1.1357206365899620e+01 1.5329474643042150e+01 4.9044507747182022e+00 2 -2 1
4511 1 1.3977554468736890e+00 2.5032592989177616e+00 9.4793383114575285e+00 2 -1 1
4123 1 5.8445996029657090e+00 1.4031430300769514e+01 8.2063229827286150e+00 0 -4 1
1760 1 8.0254216628196744e+00 1.2220793021270286e+01 1.2052191964277402e+01 2 5 0
2922 1 5.6328674229876929e+00 5.1780078995653123e-01 9.5534179477810035e+00 2 1 1
1929 1 8.2707269971875412e+00 9.3073569426074798e-01 8.8988112130058905e+00 -1 -2 0
2770 1 1.1439657189137321e+01 3.7439801919063358e+00 9.1198217484688833e+00 -1 1 1
5145 1 8.9216228329842568e+00 3.6314703240381099e+00 9.8659316927085747e+00 -2 -1 0
2814 1 3.2335646271300300e+00 7.3585062434363104e+00 8.9252856012693194e+00 -1 3 1
4508 1 6.2796726077069120e-01 7.3463002911365196e+00 1.0092781179243316e+01 1 -2 1
2536 1 1.0230064676567308e+01 1.2659218987075198e+01 8.5722160593129093e+00 1 -1 0
4490 1 7.0545043679222630e+00 5.2697235779287528e+00 8.9890132810757777e+00 1 0 1
821 1 4.6552237923437660e+00 5.0759651227339031e+00 9.9442385684562851e+00 -2 0 1
1726 1 8.0865915099408099e+00 7.8074394161229526e+00 9.5542433299224232e+00 -2 -1 0
2428 1 3.3358923970124557e+00 1.4192766652269544e+01 9.5249861302589487e+00 -1 2 1
5198 1 2.7107606365256971e+00 1.1633328430998176e+01 8.5901403782989174e+00 2 -3 1
933 1 1.0584456626064835e+01 8.3286183029513055e+00 8.5511473099638113e+00 -5 2 1
3747 1 6.7848271380666434e+00 9.7861399146621633e+00 8.6134510116509961e+00 -1 0 0
49 1 4.3070710397058045e+00 9.5824702023023463e+00 9.7145356404136702e+00 0 2 1
172 1 7.8077120332301355e+00 1.2238999734420950e+01 9.3069823606995143e+00 0 0 1
2561 1 1.1098256110989126e+01 1.5052100951972523e+01 9.7567859622397535e+00 0 0 1
2727 1 2.4723882836132125e+00 4.8708837283812084e-01 1.7371371299425966e+00 3 3 1
3485 1 3.0049683267375029e-02 1.1467683681011792e+01 9.8907836299282526e+00 -3 -2 1
193 1 3.9791397944408082e+00 1.6328832024859810e+01 1.1771929989396588e+00 2 -2 0
2826 1 1.2115195894123509e+01 4.9035055797871957e-02 6.2759515625368678e+00 2 1 1
771 1 1.2231543254224389e+01 6.2413060034752004e+00 9.6873047536704888e+00 -1 2 1
1779 1 2.6839595002390837e-01 1.3700726815410153e+01 1.7559018425663799e+00 -2 -4 1
235 1 6.9401001462185867e+00 1.6208549242870408e+01 1.1762830048757657e+01 0 2 0
3847 1 5.5293947959497496e+00 8.1221373378233452e-01 1.2240264089854094e+01 -2 0 0
2645 1 1.0912795696254019e+01 3.9951700983651079e+00 2.3665417890024433e+01 0 4 1
6018 1 4.2016870133443653e+00 2.7482489803951244e+00 1.3439447576346886e+01 0 2 1
5322 1 4.8655156552362144e-01 1.1227608826652562e+01 1.2704031778276025e+01 0 3 0
1069 1 4.1001347153212748e+00 2.5893292067446958e+00 1.6280109033028701e+01 -2 3 1
2139 1 8.4613869934741529e-02 9.0026668980257103e+00 2.3823031295882600e+01 3 2 0
2127 1 7.9925625248322749e+00 1.1121090532728248e+00 1.3037229001799350e+01 -3 1 0
2766 1 1.1435672398496262e+01 4.2020426987144193e+00 1.6232067011811893e+01 -2 1 0
3731 1 1.1622270499914531e+01 3.8776091490050866e+00 1.3250276764038052e+01 4 -2 1
2113 1 7.9445188274103868e+00 1.1162829262488094e+00 1.5810378039793106e+01 -1 5 0
5542 1 4.7905925823512643e+00 7.4753264096235688e+00 2.3748830287182670e+01 3 1 0
6278 1 3.5118210699989119e+00 7.2089968560289277e+00 1.3469511905789460e+01 0 0 0
4143 1 3.2555082398033552e+00 7.1556140513254638e+00 1.6106078453919945e+01 3 0 1
2454 1 3.2965119747474043e+00 5.2589674239338147e-01 1.9995801377475875e+01 -5 -1 1
3633 1 5.4933913595892916e+00 1.4157519913943039e+01 2.3450561590467498e+01 0 1 0
1922 1 9.5059655153119440e+00 1.2312601238338686e+01 2.3108730897315699e+01 0 1 1
5360 1 7.6022841823921459e+00 5.3251627546684084e+00 1.3225601504780967e+01 -1 0 0
1036 1 7.3048826143417589e+00 5.4495126052809963e+00 1.6113523134799077e+01 1 1 1
2045 1 1.0901536524988073e+01 8.5309269203421678e+00 1.6125358012140786e+01 1 -1 0
210 1 2.8475699571719972e+00 1.1455595466695502e+01 1.3278952054752532e+01 -3 0 0
785 1 2.6286989239661347e+00 1.1652612368372507e+01 1.5882184131038724e+01 -4 5 0
1740 1 1.8223170230754759e-01 4.1347914712388585e+00 1.6807244532838030e+01 0 1 0
3394 1 6.8128336996944974e+00 1.0115279393704871e+01 1.3167594290799913e+01 1 -1 0
1182 1 6.5039218434582402e+00 9.9323729129356249e+00 1.5945809521744195e+01 2 4 1
4154 1 6.6874468977401573e+00 9.5286221145192496e+00 2.0836797891428326e+01 0 1 0
5492 1 1.0600497396544499e+01 8.5153556588391464e+00 1.3290192851058890e+01 -1 1 0
264 1 3.0704442312142084e+00 3.3097377477810414e-01 1.7323562480033377e+01 -1 3 0
1916 1 2.4334022854669857e+00 1.6123190743788399e+01 1.3306695856515962e+01 4 2 0
321 1 1.3254634866522268e+00 1.5883017693453496e+01 2.3588183891631974e+01 -1 4 0
182 1 6.4136858639231553e+00 1.4163542101801363e+01 1.3161558830995027e+01 -1 2 0
397 1 6.1667790184905238e+00 1.4383021628209907e+01 1.6143747166507637e+01 -1 1 0
887 1 9.9687668168555508e+00 1.2474823949192583e+01 1.6076509289662667e+01 -2 -1 1
5096 1 1.0126729638055574e+01 1.2554138766778230e+01 1.3518735561554038e+01 -2 3 0
201 1 8.2268438186837596e+00 7.9235605916219898e+00 1.2532149412033405e+01 0 2 0
2832 1 1.4177009639484766e+00 2.4966520010162916e+00 1.2408984022739924e+01 -4 -1 1
6213 1 6.5560368061703143e+00 5.3201567448156020e+00 2.3228557686022860e+01 -1 -1 1
4129 1 6.5825230461459414e+00 3.1111472023439912e+00 1.7014361608556019e+01 -3 0 1
5288 1 6.8450727380816865e+00 3.3228807406822112e+00 1.9901274764733405e+01 -3 0 0
5161 1 1.0466886936577410e+01 1.4087447422608070e+00 1.6782684651141761e+01 2 5 0
3428 1 1.0356672191607860e+01 1.1498238983201385e+00 1.9958476185295417e+01 -2 -4 0
2456 1 2.6659185992759009e+00 4.6072808609378368e+00 1.7484607238495695e+01 -1 0 0
2463 1 2.6310025809573361e+00 4.4472648531625598e+00 2.0079130543938479e+01 2 2 1
4454 1 5.7722254171751972e+00 7.4718359965659396e+00 1.6915414846461278e+01 -2 3 1
6268 1 6.0280868850886336e+00 7.2897103836608395e+00 1.9652176177173281e+01 3 1 1
3701 1 9.7863474392232810e+00 6.0246441447392796e+00 1.7229172468082009e+01 2 -1 0
4483 1 1.0338397279358484e+01 5.6473939228118493e+00 1.9929975738522117e+01 1 -2 0
983 1 2.0923677237244451e+00 9.1999493770187932e+00 1.7094002728892040e+01 0 0 1
3725 1 1.9940929146973452e+00 9.1511992761270697e+00 1.9824581328940717e+01 0 3 0
2606 1 5.0060182245976517e+00 1.2198066707772755e+01 1.7055325892106513e+01 -2 0 1
4250 1 5.2285643606246648e+00 1.1807890595613008e+01 1.9764795703763561e+01 1 0 1
1861 1 9.0966983850642134e+00 9.9869367616573026e+00 1.9866605127342570e+01 -3 4 1
2490 1 9.0415813166686814e+00 1.0121140626458695e+01 1.7032756636522521e+01 1 -3 1
1049 1 1.3887696614296909e+00 1.4106702573383824e+01 1.6996950915608970e+01 0 3 1
3551 1 1.3128392517772660e+00 1.3360420915246243e+01 1.9689206485958774e+01 4 1 1
5954 1 1.0346993492253567e+00 1.3826172719190311e-01 1.3484692812573691e+01 0 1 1
1092 1 4.9123887133804454e+00 5.2308221516617985e+00 1.2821111537490156e+01 4 1 1
5935 1 8.5092052991725531e+00 1.4457564054587060e+01 1.7142708468993742e+01 -2 6 1
50 1 8.2921407635791233e+00 1.4818852605964414e+01 1.9867924373014919e+01 -3 0 0
199 1 9.1385326237939530e+00 3.3939014834371979e+00 1.2465018376379682e+01 3 -4 0
3593 1 1.0106581362275843e+01 1.2265010710681748e+01 2.0547408342056613e+01 -1 -2 0
6168 1 4.3507769644393193e+00 2.7175255388183901e+00 2.1122469995631278e+01 0 2 1
815 1 4.3477874259706156e-01 4.4202170018271554e+00 2.3909696808154788e+01 1 -1 1
1936 1 7.7419856475389910e+00 1.1496969916772528e+00 2.1173500342714327e+01 0 1 0
2437 1 1.5102153065070147e+00 1.1322557318481419e+01 2.3351280900903468e+01 3 0 1
971 1 1.1294344518631208e+01 3.2142567871282650e+00 2.1213470296912341e+01 -2 0 1
4148 1 2.1174058515165162e+00 1.5815088070949322e+01 2.0826123026784021e+01 -1 1 1
4109 1 4.6876736474300458e+00 1.6055137000228722e+01 1.9810289914425354e+01 1 0 0
2066 1 3.3719625763211654e+00 7.0058058407063886e+00 2.1038263120461941e+01 -1 1 0
4383 1 5.5696097224451373e+00 2.9915283693790276e+00 2.4077830064843216e+01 -1 4 1
2506 1 2.3906095554377968e-01 4.1505134465643936e+00 1.3905704667782404e+01 0 1 1
2751 1 7.6263180706759099e+00 5.5465739610763984e+00 2.0916912937398568e+01 -2 3 1
2100 1 1.0650803315560058e+01 7.9032139383985145e+00 2.3288500780989757e+01 -2 1 0
3714 1 1.0893006551983778e+01 7.8897884173959199e+00 2.0693154183014556e+01 -1 -1 0
3499 1 7.7383449642514144e+00 1.0881275529358090e+00 2.3953440588826041e+01 0 1 0
6028 1 2.8173096488037830e-01 4.3105731865073986e+00 2.1124981849746611e+01 0 2 1
4534 1 2.8738160194947930e+00 1.1405355321359187e+01 2.0767409119083656e+01 1 3 0
5874 1 4.2496260667028043e+00 1.1549319007156017e+01 2.4041431018669225e+01 2 0 1
1933 1 6.0363009128124903e+00 9.6102833332990141e+00 2.3333409366658014e+01 4 3 0
925 1 6.1264221221809203e+00 1.4283416106613876e+01 2.0907389462952427e+01 0 5 1
1015 1 8.0105433843552054e-01 6.3434751427923546e+00 1.2754839896239844e+01 -1 4 1
5474 1 1.8842543218088841e+00 6.9780368109157669e+00 2.3724185989174003e+01 1 -1 0
1794 1 8.6582526737388683e+00 9.9267687874397694e+00 2.3712407073760009e+01 4 1 0
5265 1 2.5577269875909039e+00 1.6229077566188941e+01 1.5970596285856304e+01 3 1 1
2087 1 2.4881549291259608e+00 2.4924088552021897e+00 2.3810629766193987e+01 -3 2 0
3388 1 1.1092956636306258e+01 1.5057650607482355e+01 1.2746671601715555e+01 1 4 0
5275 1 1.2252846613278768e+01 1.2760994225755626e+01 2.4025965470801737e+01 4 1 0
5086 1 4.9818732098766469e+00 1.6265542075442280e+01 1.7115136404510828e+01 0 -1 0
4357 1 8.1508660017234309e+00 1.4362389263412208e+01 2.3897909566712944e+01 0 -1 1
99 1 3.9394849915043615e+00 1.3804473385366160e+01 1.2394305999901075e+01 1 2 0
1747 1 4.5407100623548802e+00 9.4709800952247249e+00 1.2349647841923934e+01 2 1 1
4614 1 1.1821298941759411e+01 1.0832027398355264e+01 1.2437978317870108e+01 -1 -1 1
1080 1 1.2223266934184940e+01 6.1393723309532957e+00 1.2283374101065817e+01 -1 2 0
511 2 0.0000000000000000e+00 2.8417180249513345e+00 2.6770498620776728e+01 0 0 0
512 2 0.0000000000000000e+00 0.0000000000000000e+00 2.6770498620776728e+01 0 0 0
513 2 1.2305000000000001e+00 7.1042950623783474e-01 2.6770498620776728e+01 0 0 0
517 2 1.2305000000000001e+00 2.1312885187134998e+00 2.6770498620776728e+01 0 0 0
518 2 2.4610000000000003e+00 2.8417180249513345e+00 2.6770498620776728e+01 0 0 0
519 2 2.4610000000000003e+00 0.0000000000000000e+00 2.6770498620776728e+01 0 0 0
520 2 3.6915000000000004e+00 7.1042950623783474e-01 2.6770498620776728e+01 0 0 0
528 2 3.6914999999999996e+00 2.1312885187134998e+00 2.6770498620776728e+01 0 0 0
529 2 4.9220000000000006e+00 2.8417180249513332e+00 2.6770498620776728e+01 0 0 0
530 2 4.9220000000000006e+00 0.0000000000000000e+00 2.6770498620776728e+01 0 0 0
531 2 6.1524999999999999e+00 7.1042950623783407e-01 2.6770498620776728e+01 0 0 0
543 2 6.1524999999999999e+00 2.1312885187134989e+00 2.6770498620776728e+01 0 0 0
544 2 7.3829999999999991e+00 2.8417180249513345e+00 2.6770498620776728e+01 0 0 0
545 2 7.3829999999999991e+00 0.0000000000000000e+00 2.6770498620776728e+01 0 0 0
546 2 8.6134999999999984e+00 7.1042950623783407e-01 2.6770498620776728e+01 0 0 0
562 2 8.6134999999999984e+00 2.1312885187135002e+00 2.6770498620776728e+01 0 0 0
563 2 9.8440000000000012e+00 2.8417180249513332e+00 2.6770498620776728e+01 0 0 0
564 2 9.8440000000000012e+00 0.0000000000000000e+00 2.6770498620776728e+01 0 0 0
565 2 1.1074500000000002e+01 7.1042950623783330e-01 2.6770498620776728e+01 0 0 0
585 2 1.1074500000000002e+01 2.1312885187135002e+00 2.6770498620776728e+01 0 0 0
3709 1 5.6610135169509812e+00 1.1827899417987821e+01 3.5615745073889343e+01 2 -1 -1
514 2 0.0000000000000000e+00 7.1042950623783341e+00 2.6770498620776728e+01 0 0 0
515 2 0.0000000000000000e+00 4.2625770374269996e+00 2.6770498620776728e+01 0 0 0
516 2 1.2305000000000001e+00 4.9730065436648339e+00 2.6770498620776728e+01 0 0 0
524 2 1.2305000000000001e+00 6.3938655561404980e+00 2.6770498620776728e+01 0 0 0
525 2 2.4610000000000003e+00 7.1042950623783341e+00 2.6770498620776728e+01 0 0 0
526 2 2.4610000000000003e+00 4.2625770374269996e+00 2.6770498620776728e+01 0 0 0
527 2 3.6914999999999996e+00 4.9730065436648339e+00 2.6770498620776728e+01 0 0 0
539 2 3.6914999999999996e+00 6.3938655561404980e+00 2.6770498620776728e+01 0 0 0
4595 1 1.6477434547088752e+00 1.3134578871295277e+01 3.5840956495757624e+01 1 2 -1
540 2 4.9220000000000006e+00 7.1042950623783341e+00 2.6770498620776728e+01 0 0 0
541 2 4.9220000000000006e+00 4.2625770374269978e+00 2.6770498620776728e+01 0 0 0
542 2 6.1524999999999999e+00 4.9730065436648339e+00 2.6770498620776728e+01 0 0 0
558 2 6.1524999999999999e+00 6.3938655561404980e+00 2.6770498620776728e+01 0 0 0
559 2 7.3830000000000009e+00 7.1042950623783341e+00 2.6770498620776728e+01 0 0 0
560 2 7.3829999999999991e+00 4.2625770374269996e+00 2.6770498620776728e+01 0 0 0
561 2 8.6135000000000002e+00 4.9730065436648339e+00 2.6770498620776728e+01 0 0 0
581 2 8.6135000000000002e+00 6.3938655561404980e+00 2.6770498620776728e+01 0 0 0
582 2 9.8440000000000012e+00 7.1042950623783341e+00 2.6770498620776728e+01 0 0 0
583 2 9.8440000000000012e+00 4.2625770374270004e+00 2.6770498620776728e+01 0 0 0
584 2 1.1074500000000002e+01 4.9730065436648339e+00 2.6770498620776728e+01 0 0 0
605 2 1.1074500000000002e+01 6.3938655561404980e+00 2.6770498620776728e+01 0 0 0
521 2 0.0000000000000000e+00 1.1366872099805333e+01 2.6770498620776728e+01 0 0 0
522 2 0.0000000000000000e+00 8.5251540748539991e+00 2.6770498620776728e+01 0 0 0
523 2 1.2305000000000001e+00 9.2355835810918343e+00 2.6770498620776728e+01 0 0 0
535 2 1.2305000000000001e+00 1.0656442593567498e+01 2.6770498620776728e+01 0 0 0
536 2 2.4610000000000003e+00 1.1366872099805333e+01 2.6770498620776728e+01 0 0 0
537 2 2.4610000000000003e+00 8.5251540748539991e+00 2.6770498620776728e+01 0 0 0
538 2 3.6915000000000004e+00 9.2355835810918343e+00 2.6770498620776728e+01 0 0 0
554 2 3.6914999999999996e+00 1.0656442593567499e+01 2.6770498620776728e+01 0 0 0
555 2 4.9220000000000006e+00 1.1366872099805333e+01 2.6770498620776728e+01 0 0 0
556 2 4.9220000000000006e+00 8.5251540748539991e+00 2.6770498620776728e+01 0 0 0
557 2 6.1524999999999999e+00 9.2355835810918343e+00 2.6770498620776728e+01 0 0 0
577 2 6.1524999999999999e+00 1.0656442593567499e+01 2.6770498620776728e+01 0 0 0
578 2 7.3829999999999991e+00 1.1366872099805333e+01 2.6770498620776728e+01 0 0 0
579 2 7.3830000000000009e+00 8.5251540748539991e+00 2.6770498620776728e+01 0 0 0
580 2 8.6134999999999984e+00 9.2355835810918343e+00 2.6770498620776728e+01 0 0 0
601 2 8.6134999999999984e+00 1.0656442593567498e+01 2.6770498620776728e+01 0 0 0
602 2 9.8440000000000012e+00 1.1366872099805333e+01 2.6770498620776728e+01 0 0 0
603 2 9.8440000000000012e+00 8.5251540748539956e+00 2.6770498620776728e+01 0 0 0
604 2 1.1074500000000002e+01 9.2355835810918343e+00 2.6770498620776728e+01 0 0 0
625 2 1.1074500000000002e+01 1.0656442593567498e+01 2.6770498620776728e+01 0 0 0
626 2 1.2304999999999998e+01 1.1366872099805333e+01 2.6770498620776728e+01 0 0 0
532 2 0.0000000000000000e+00 1.5629449137232333e+01 2.6770498620776728e+01 0 0 0
533 2 0.0000000000000000e+00 1.2787731112280996e+01 2.6770498620776728e+01 0 0 0
534 2 1.2305000000000001e+00 1.3498160618518829e+01 2.6770498620776728e+01 0 0 0
550 2 1.2305000000000001e+00 1.4919019630994494e+01 2.6770498620776728e+01 0 0 0
551 2 2.4610000000000003e+00 1.5629449137232328e+01 2.6770498620776728e+01 0 0 0
552 2 2.4610000000000003e+00 1.2787731112280996e+01 2.6770498620776728e+01 0 0 0
553 2 3.6915000000000004e+00 1.3498160618518829e+01 2.6770498620776728e+01 0 0 0
573 2 3.6915000000000004e+00 1.4919019630994494e+01 2.6770498620776728e+01 0 0 0
574 2 4.9220000000000006e+00 1.5629449137232333e+01 2.6770498620776728e+01 0 0 0
575 2 4.9220000000000006e+00 1.2787731112280996e+01 2.6770498620776728e+01 0 0 0
576 2 6.1524999999999990e+00 1.3498160618518829e+01 2.6770498620776728e+01 0 0 0
597 2 6.1524999999999990e+00 1.4919019630994494e+01 2.6770498620776728e+01 0 0 0
598 2 7.3829999999999991e+00 1.5629449137232333e+01 2.6770498620776728e+01 0 0 0
599 2 7.3829999999999991e+00 1.2787731112280996e+01 2.6770498620776728e+01 0 0 0
1542 2 1.1074500000000002e+01 1.4919019630994494e+01 3.3291501379256744e+01 0 0 0
600 2 8.6135000000000002e+00 1.3498160618518835e+01 2.6770498620776728e+01 0 0 0
621 2 8.6135000000000002e+00 1.4919019630994494e+01 2.6770498620776728e+01 0 0 0
622 2 9.8440000000000012e+00 1.5629449137232328e+01 2.6770498620776728e+01 0 0 0
623 2 9.8440000000000012e+00 1.2787731112280996e+01 2.6770498620776728e+01 0 0 0
624 2 1.1074500000000002e+01 1.3498160618518829e+01 2.6770498620776728e+01 0 0 0
642 2 1.1074500000000002e+01 1.4919019630994494e+01 2.6770498620776728e+01 0 0 0
1250 2 0.0000000000000000e+00 1.4208590124756650e+00 3.0030999999999491e+01 0 0 0
1251 2 0.0000000000000000e+00 0.0000000000000000e+00 3.0030999999999491e+01 0 0 0
1254 2 1.2305000000000001e+00 3.5521475311891644e+00 3.0030999999999491e+01 0 0 0
1255 2 1.2305000000000001e+00 2.1312885187134998e+00 3.0030999999999491e+01 0 0 0
1256 2 2.4610000000000003e+00 1.4208590124756650e+00 3.0030999999999491e+01 0 0 0
1257 2 2.4610000000000003e+00 0.0000000000000000e+00 3.0030999999999491e+01 0 0 0
1264 2 3.6914999999999996e+00 3.5521475311891644e+00 3.0030999999999491e+01 0 0 0
1265 2 3.6914999999999996e+00 2.1312885187134998e+00 3.0030999999999491e+01 0 0 0
1266 2 4.9220000000000006e+00 1.4208590124756650e+00 3.0030999999999491e+01 0 0 0
1267 2 4.9220000000000006e+00 0.0000000000000000e+00 3.0030999999999491e+01 0 0 0
1278 2 6.1524999999999999e+00 3.5521475311891644e+00 3.0030999999999491e+01 0 0 0
1279 2 6.1524999999999999e+00 2.1312885187134989e+00 3.0030999999999491e+01 0 0 0
1280 2 7.3829999999999991e+00 1.4208590124756659e+00 3.0030999999999491e+01 0 0 0
1281 2 7.3829999999999991e+00 0.0000000000000000e+00 3.0030999999999491e+01 0 0 0
1296 2 8.6134999999999984e+00 3.5521475311891657e+00 3.0030999999999491e+01 0 0 0
1297 2 8.6134999999999984e+00 2.1312885187135002e+00 3.0030999999999491e+01 0 0 0
1298 2 9.8440000000000012e+00 1.4208590124756659e+00 3.0030999999999491e+01 0 0 0
1299 2 9.8440000000000012e+00 0.0000000000000000e+00 3.0030999999999491e+01 0 0 0
1318 2 1.1074500000000002e+01 3.5521475311891644e+00 3.0030999999999491e+01 0 0 0
1319 2 1.1074500000000002e+01 2.1312885187135002e+00 3.0030999999999491e+01 0 0 0
1252 2 0.0000000000000000e+00 5.6834360499026637e+00 3.0030999999999491e+01 0 0 0
1253 2 0.0000000000000000e+00 4.2625770374269996e+00 3.0030999999999491e+01 0 0 0
1260 2 1.2305000000000001e+00 7.8147245686161639e+00 3.0030999999999491e+01 0 0 0
1261 2 1.2305000000000001e+00 6.3938655561404980e+00 3.0030999999999491e+01 0 0 0
1262 2 2.4610000000000003e+00 5.6834360499026637e+00 3.0030999999999491e+01 0 0 0
1263 2 2.4610000000000003e+00 4.2625770374269996e+00 3.0030999999999491e+01 0 0 0
1274 2 3.6914999999999996e+00 7.8147245686161639e+00 3.0030999999999491e+01 0 0 0
1275 2 3.6914999999999996e+00 6.3938655561404980e+00 3.0030999999999491e+01 0 0 0
1276 2 4.9220000000000006e+00 5.6834360499026637e+00 3.0030999999999491e+01 0 0 0
1277 2 4.9220000000000006e+00 4.2625770374269978e+00 3.0030999999999491e+01 0 0 0
1292 2 6.1524999999999999e+00 7.8147245686161639e+00 3.0030999999999491e+01 0 0 0
1293 2 6.1524999999999999e+00 6.3938655561404980e+00 3.0030999999999491e+01 0 0 0
1294 2 7.3829999999999991e+00 5.6834360499026637e+00 3.0030999999999491e+01 0 0 0
1295 2 7.3829999999999991e+00 4.2625770374269996e+00 3.0030999999999491e+01 0 0 0
1314 2 8.6135000000000002e+00 7.8147245686161639e+00 3.0030999999999491e+01 0 0 0
1315 2 8.6135000000000002e+00 6.3938655561404980e+00 3.0030999999999491e+01 0 0 0
1316 2 9.8440000000000012e+00 5.6834360499026637e+00 3.0030999999999491e+01 0 0 0
1317 2 9.8440000000000012e+00 4.2625770374270004e+00 3.0030999999999491e+01 0 0 0
1337 2 1.1074500000000002e+01 7.8147245686161639e+00 3.0030999999999491e+01 0 0 0
1338 2 1.1074500000000002e+01 6.3938655561404980e+00 3.0030999999999491e+01 0 0 0
1258 2 0.0000000000000000e+00 9.9460130873296642e+00 3.0030999999999491e+01 0 0 0
1259 2 0.0000000000000000e+00 8.5251540748539991e+00 3.0030999999999491e+01 0 0 0
1270 2 1.2305000000000001e+00 1.2077301606043163e+01 3.0030999999999491e+01 0 0 0
1271 2 1.2305000000000001e+00 1.0656442593567498e+01 3.0030999999999491e+01 0 0 0
1272 2 2.4610000000000003e+00 9.9460130873296642e+00 3.0030999999999491e+01 0 0 0
1273 2 2.4610000000000003e+00 8.5251540748539991e+00 3.0030999999999491e+01 0 0 0
1288 2 3.6914999999999996e+00 1.2077301606043163e+01 3.0030999999999491e+01 0 0 0
1289 2 3.6914999999999996e+00 1.0656442593567499e+01 3.0030999999999491e+01 0 0 0
1290 2 4.9220000000000006e+00 9.9460130873296642e+00 3.0030999999999491e+01 0 0 0
1291 2 4.9220000000000006e+00 8.5251540748539991e+00 3.0030999999999491e+01 0 0 0
1310 2 6.1524999999999999e+00 1.2077301606043163e+01 3.0030999999999491e+01 0 0 0
1311 2 6.1524999999999999e+00 1.0656442593567499e+01 3.0030999999999491e+01 0 0 0
1312 2 7.3830000000000009e+00 9.9460130873296642e+00 3.0030999999999491e+01 0 0 0
1313 2 7.3830000000000009e+00 8.5251540748539991e+00 3.0030999999999491e+01 0 0 0
1333 2 8.6135000000000002e+00 1.2077301606043163e+01 3.0030999999999491e+01 0 0 0
1334 2 8.6134999999999984e+00 1.0656442593567498e+01 3.0030999999999491e+01 0 0 0
1335 2 9.8440000000000012e+00 9.9460130873296642e+00 3.0030999999999491e+01 0 0 0
1336 2 9.8440000000000012e+00 8.5251540748539956e+00 3.0030999999999491e+01 0 0 0
1356 2 1.1074500000000002e+01 1.2077301606043163e+01 3.0030999999999491e+01 0 0 0
1357 2 1.1074500000000002e+01 1.0656442593567498e+01 3.0030999999999491e+01 0 0 0
1268 2 0.0000000000000000e+00 1.4208590124756663e+01 3.0030999999999491e+01 0 0 0
1269 2 0.0000000000000000e+00 1.2787731112280996e+01 3.0030999999999491e+01 0 0 0
1285 2 1.2305000000000001e+00 1.4919019630994494e+01 3.0030999999999491e+01 0 0 0
1286 2 2.4610000000000003e+00 1.4208590124756663e+01 3.0030999999999491e+01 0 0 0
1287 2 2.4610000000000003e+00 1.2787731112280996e+01 3.0030999999999491e+01 0 0 0
1307 2 3.6915000000000004e+00 1.4919019630994494e+01 3.0030999999999491e+01 0 0 0
1308 2 4.9220000000000006e+00 1.4208590124756663e+01 3.0030999999999491e+01 0 0 0
1309 2 4.9220000000000006e+00 1.2787731112280996e+01 3.0030999999999491e+01 0 0 0
1330 2 6.1524999999999990e+00 1.4919019630994494e+01 3.0030999999999491e+01 0 0 0
1331 2 7.3830000000000009e+00 1.4208590124756663e+01 3.0030999999999491e+01 0 0 0
1332 2 7.3829999999999991e+00 1.2787731112280996e+01 3.0030999999999491e+01 0 0 0
1374 2 1.1074500000000002e+01 1.4919019630994494e+01 3.0030999999999491e+01 0 0 0
1355 2 9.8440000000000012e+00 1.2787731112280996e+01 3.0030999999999491e+01 0 0 0
1375 2 1.2304999999999998e+01 1.4208590124756658e+01 3.0030999999999491e+01 0 0 0
1354 2 9.8440000000000012e+00 1.4208590124756663e+01 3.0030999999999491e+01 0 0 0
1373 2 1.1074500000000002e+01 1.6339878643470161e+01 3.0030999999999491e+01 0 0 0
1353 2 8.6135000000000002e+00 1.4919019630994494e+01 3.0030999999999491e+01 0 0 0
1411 2 0.0000000000000000e+00 2.8417180249513345e+00 3.3291501379256744e+01 0 0 0
1412 2 0.0000000000000000e+00 0.0000000000000000e+00 3.3291501379256744e+01 0 0 0
1413 2 1.2305000000000001e+00 7.1042950623783474e-01 3.3291501379256744e+01 0 0 0
1417 2 1.2305000000000001e+00 2.1312885187134998e+00 3.3291501379256744e+01 0 0 0
1418 2 2.4610000000000003e+00 2.8417180249513345e+00 3.3291501379256744e+01 0 0 0
1419 2 2.4610000000000003e+00 0.0000000000000000e+00 3.3291501379256744e+01 0 0 0
1420 2 3.6915000000000004e+00 7.1042950623783474e-01 3.3291501379256744e+01 0 0 0
1428 2 3.6914999999999996e+00 2.1312885187134998e+00 3.3291501379256744e+01 0 0 0
1522 2 9.8440000000000012e+00 1.5629449137232328e+01 3.3291501379256744e+01 0 0 0
1429 2 4.9220000000000006e+00 2.8417180249513332e+00 3.3291501379256744e+01 0 0 0
1430 2 4.9220000000000006e+00 0.0000000000000000e+00 3.3291501379256744e+01 0 0 0
1431 2 6.1524999999999999e+00 7.1042950623783407e-01 3.3291501379256744e+01 0 0 0
1443 2 6.1524999999999999e+00 2.1312885187134989e+00 3.3291501379256744e+01 0 0 0
1444 2 7.3829999999999991e+00 2.8417180249513345e+00 3.3291501379256744e+01 0 0 0
1445 2 7.3829999999999991e+00 0.0000000000000000e+00 3.3291501379256744e+01 0 0 0
1446 2 8.6134999999999984e+00 7.1042950623783407e-01 3.3291501379256744e+01 0 0 0
1462 2 8.6134999999999984e+00 2.1312885187135002e+00 3.3291501379256744e+01 0 0 0
1463 2 9.8440000000000012e+00 2.8417180249513332e+00 3.3291501379256744e+01 0 0 0
1464 2 9.8440000000000012e+00 0.0000000000000000e+00 3.3291501379256744e+01 0 0 0
1465 2 1.1074500000000002e+01 7.1042950623783330e-01 3.3291501379256744e+01 0 0 0
1485 2 1.1074500000000002e+01 2.1312885187135002e+00 3.3291501379256744e+01 0 0 0
1414 2 0.0000000000000000e+00 7.1042950623783341e+00 3.3291501379256744e+01 0 0 0
1415 2 0.0000000000000000e+00 4.2625770374269996e+00 3.3291501379256744e+01 0 0 0
1416 2 1.2305000000000001e+00 4.9730065436648339e+00 3.3291501379256744e+01 0 0 0
1424 2 1.2305000000000001e+00 6.3938655561404980e+00 3.3291501379256744e+01 0 0 0
1425 2 2.4610000000000003e+00 7.1042950623783341e+00 3.3291501379256744e+01 0 0 0
1426 2 2.4610000000000003e+00 4.2625770374269996e+00 3.3291501379256744e+01 0 0 0
1427 2 3.6914999999999996e+00 4.9730065436648339e+00 3.3291501379256744e+01 0 0 0
1439 2 3.6914999999999996e+00 6.3938655561404980e+00 3.3291501379256744e+01 0 0 0
1440 2 4.9220000000000006e+00 7.1042950623783341e+00 3.3291501379256744e+01 0 0 0
1441 2 4.9220000000000006e+00 4.2625770374269978e+00 3.3291501379256744e+01 0 0 0
1442 2 6.1524999999999999e+00 4.9730065436648339e+00 3.3291501379256744e+01 0 0 0
1458 2 6.1524999999999999e+00 6.3938655561404980e+00 3.3291501379256744e+01 0 0 0
1459 2 7.3830000000000009e+00 7.1042950623783341e+00 3.3291501379256744e+01 0 0 0
1460 2 7.3829999999999991e+00 4.2625770374269996e+00 3.3291501379256744e+01 0 0 0
1524 2 1.1074500000000002e+01 1.3498160618518829e+01 3.3291501379256744e+01 0 0 0