LAMMPS data file via write_data, version 16 Mar 2018, timestep = 100000

6489 atoms
2 atom types

0.0000000000000000e+00 4.9219999999999999e+01 xlo xhi
0.0000000000000000e+00 4.9019635930410494e+01 ylo yhi
1.9957164624039869e+00 5.8066283537595780e+01 zlo zhi

Masses

1 18.015
2 12.01

Atoms # atomic

3333 1 1.7257729273527205e+00 1.1602027613326198e+01 4.0260630708703911e+00 0 1 0
3677 1 8.3963307852288800e+00 1.2219955384496959e+01 6.3759251221021254e+00 -1 0 1
6346 1 3.1949624610004652e+00 3.5261790539380078e+00 2.5597129817255668e+00 1 1 0
1591 1 3.1341911949405932e-01 4.8768924807789551e+00 2.4406196778809317e+00 0 0 1
5187 1 5.4788977938778816e+00 1.2151527129818906e+01 6.3741460177883349e+00 1 1 0
1926 1 8.8519532493243425e+00 1.8849791496138919e+00 3.9535594795081641e+00 1 1 1
3060 1 1.1156153465801919e+01 3.0972687484776014e+00 5.5156007532109541e+00 0 1 0
4841 1 2.7085660354818324e+00 6.6237206944547316e+00 4.8118982978839195e+00 1 1 1
1773 1 5.2976456239351650e+00 3.0448739962867308e+00 8.3219372558790567e+00 1 1 0
1999 1 7.1075108045610511e+00 6.5773870680862538e+00 2.7005825882465571e+00 0 1 0
1440 1 1.4040285267023909e+00 1.0337202857295079e+01 6.9516976105385382e+00 0 0 1
5123 1 9.8368341780476811e+00 5.2597267257522953e+00 6.4031692554980957e+00 2 1 1
2017 1 8.6492145364863351e+00 9.3817346701117490e+00 5.8151081191199854e+00 0 -1 1
352 1 4.7349139449072792e+00 1.0956517984735212e+01 3.9181277024920567e+00 0 0 0
3129 1 6.1547124873229917e+00 7.9390681424357439e+00 7.0852848669967488e+00 0 0 1
5024 1 4.8652758455592782e+00 8.1311385618816949e+00 3.9949476653786604e+00 1 1 0
2216 1 1.0022957885112422e+01 9.9856397679650293e+00 8.4073752683477601e+00 1 1 1
3321 1 1.0677511146307571e+01 7.5401707592773288e+00 5.1455443998965711e+00 0 0 0
2031 1 8.8238154380735683e+00 8.6382259608754293e+00 2.8639668731216807e+00 0 1 0
1524 1 7.7285531325645964e+00 4.8561577621402368e+00 8.2421240120095973e+00 1 0 1
224 1 2.3978427212696789e+00 6.2056311192766644e+00 9.0033332220804141e+00 1 0 1
2006 1 1.3909012042798170e+00 2.3295265567038603e+00 4.4856559912324405e+00 1 1 0
1511 1 4.8978084469449721e+00 1.1686343936826205e+00 6.1326255443211366e+00 1 1 0
6352 1 7.2968261607783242e+00 1.8486552328042186e-01 5.3967321955588599e+00 1 1 1
383 1 1.2156469235278777e+01 1.6887002296752052e+00 7.8493221465642522e+00 1 0 1
5219 1 7.2291642181054827e-01 8.4564922724586289e+00 4.3867710130512094e+00 1 2 1
1575 1 3.2855781921475020e+00 8.1545312205257190e+00 7.1462722866247397e+00 0 1 1
4982 1 2.4351735212088537e+00 4.0990743264042129e+00 7.1986577782845433e+00 0 0 0
1755 1 6.6353928035992142e+00 5.5938452946642423e+00 5.3712092344795952e+00 0 1 0
3162 1 4.3636420743657327e+00 3.9180261266749548e+00 5.3397005620035021e+00 1 0 0
1297 1 5.3785325357826537e+00 1.0533874492758203e+01 8.6324126287394911e+00 0 1 1
3211 1 1.2000068555197888e+01 8.3538974256364487e+00 7.8405586698043948e+00 1 1 0
337 1 1.9467274589064929e+00 9.6143986891345197e+00 2.0897916402436891e+00 1 1 0
5396 1 2.2225290614527600e+00 2.5844059903665060e+00 1.1546090092771260e+01 1 0 0
523 1 4.7309167353928965e+00 4.0023284151352208e+00 1.2522864044574673e+01 -1 1 1
186 1 2.8485828676527283e+00 7.7096442841608992e+00 1.5359135717589432e+01 1 0 0
3694 1 7.8117595080532514e+00 1.7914863844999422e+00 9.2997090453435582e+00 1 0 0
3286 1 1.1264155819054604e+01 2.4724012401378932e+00 1.2180766638457362e+01 1 0 0
5328 1 2.0422647682904995e+00 4.8764611833321689e+00 1.5108958299367201e+01 1 0 1
1316 1 5.0040770745912564e+00 8.9025648461973788e+00 1.1446701525550406e+01 1 0 0
1328 1 3.0017921310229960e+00 1.1802845794172880e+01 9.6894501636447430e+00 0 0 1
3658 1 1.2048238709073621e+01 9.3786158525649306e+00 1.1715733704197719e+01 0 0 0
4585 1 4.0893679930470466e+00 2.7742762417777027e+00 1.5447053948614311e+01 0 1 1
3428 1 8.6634061108461147e+00 8.3767023582993509e+00 1.1269748992331694e+01 1 -1 0
106 1 1.0684417246697453e+01 6.1893825853749771e+00 9.4123078100954061e+00 1 -1 1
2109 1 1.8665805965116378e+00 8.4945921877363926e+00 1.2604558478533351e+01 1 1 0
1699 1 5.0164105940808401e+00 1.1858487595614051e+01 1.2067429181364050e+01 0 1 0
5313 1 6.8051425173501583e+00 8.6438170846437377e+00 1.3533222934803877e+01 0 1 1
3265 1 6.5021084618219041e+00 1.8841750523505745e+00 1.1735540172108212e+01 0 0 1
5333 1 1.1434421073030737e+01 1.1627919786655113e+01 1.3223850430125372e+01 1 1 1
1797 1 1.5982923824991729e-01 3.7113957630720429e+00 1.3367533499184992e+01 0 0 0
3530 1 8.0343022193842302e+00 1.1110277104186745e+01 1.0910894153272737e+01 0 0 0
3094 1 2.5348124371225915e+00 7.9561318390767044e-01 1.4325632753918931e+01 0 0 1
3249 1 1.2098632083049139e+01 6.8591884009642214e+00 1.2595010539034272e+01 1 0 0
3594 1 3.5121569364600864e+00 6.5816638831689334e+00 1.1400084790366634e+01 -1 0 0
60 1 8.5606591901950981e+00 7.0598000008887443e+00 1.5652920153331509e+01 1 1 0
3179 1 7.8052750408670351e+00 1.0950222452320030e+01 1.4822927851526918e+01 0 0 1
2080 1 1.0351713771081638e+01 3.1184019572020900e+00 9.4889038445848293e+00 0 0 0
4491 1 5.0612818933875907e+00 6.5319269913513995e+00 1.4180364813078818e+01 0 1 1
1988 1 8.7820963574991371e+00 3.5732955350762419e+00 1.3125093680433528e+01 1 0 0
1527 1 9.2876183792142939e+00 6.2765912267802522e+00 1.3046306299943748e+01 0 0 0
5176 1 7.1380091950527336e-01 1.1116423662322161e+01 1.2858349272142400e+01 0 1 0
5265 1 8.8633898262079551e+00 2.8051573782976900e+00 1.5957177182413565e+01 0 1 0
218 1 4.2627311356189672e+00 9.6569806112541712e-01 9.9953995792573256e+00 0 0 1
1916 1 8.7146608986448371e-01 9.9024923760162409e+00 9.6567310992111075e+00 0 -1 0
4850 1 6.6115341439886732e+00 6.8102442388988154e+00 9.7756731984284357e+00 0 0 1
3557 1 9.9356257410700994e+00 9.4139144498597034e+00 1.6006407777140353e+01 1 0 0
4880 1 2.3628102885304436e-01 1.1495415230934392e+00 1.5915338032551860e+01 1 0 0
2077 1 1.3904914443004728e+00 1.9372720899862035e+00 9.0629393136677621e+00 0 1 0
3177 1 9.2580627436369567e-01 6.5818875500721772e+00 1.9417008075468559e+01 1 0 0
1572 1 3.3756261916538945e+00 3.9693871204449507e+00 1.8890218492521068e+01 1 1 1
5119 1 6.1326961823794948e+00 2.9645098687165898e+00 1.7616662296657289e+01 0 1 0
3123 1 1.0879629110946917e+01 7.9509987673593119e-01 1.7550781469629229e+01 0 0 0
1345 1 7.6813356861039095e-01 3.5550592736721538e+00 1.7560081340086185e+01 1 1 1
1952 1 6.8003400041709421e+00 1.1062161785291488e+01 2.1986428261725955e+01 1 1 0
3592 1 8.7335514214625380e+00 8.8401597279349140e+00 2.1716634822418637e+01 1 0 1
1932 1 6.7024425142109427e+00 8.0255295457963935e+00 1.8445282383467323e+01 1 1 0
44 1 6.3100460061155736e+00 7.0317594036689286e+00 2.1295682098031300e+01 1 0 0
3238 1 9.0337690961151349e+00 9.9130893643271349e+00 1.8608043964995932e+01 1 1 0
5285 1 1.0136584268997646e+01 5.2414828091258290e+00 1.6863004320387610e+01 0 1 0
3092 1 2.6220237427412565e+00 1.2199306826404073e+00 1.9969395722546913e+01 0 0 1
2040 1 3.4331141233206659e+00 1.0035332488986008e+01 1.6706406150880824e+01 0 1 1
3464 1 1.1572747290414586e+01 1.1091507170768702e+01 2.1475436429593586e+01 0 0 0
6299 1 4.2543393456727285e+00 9.4640824409416346e+00 1.9162942268662679e+01 0 1 0
5235 1 2.9878536402039152e-01 9.7888958075310697e+00 1.9498171191500507e+01 1 -1 0
1878 1 1.1004245819891343e+01 8.3549298313066025e+00 2.0193572185641898e+01 0 0 0
416 1 1.3104453036060533e+00 1.1961850374579862e+01 1.6265251297241122e+01 1 -1 0
1274 1 6.1672584606165337e+00 5.5417662743986629e+00 1.6581456491740489e+01 1 1 1
5426 1 4.5850000286677259e+00 2.2523561881803364e+00 2.1599735553499002e+01 0 1 1
3467 1 8.0533215005188463e+00 5.0762408154842005e+00 2.1762661443790208e+01 1 0 0
421 1 7.1393168274646692e+00 2.9611244656692026e+00 2.0232793947071944e+01 1 1 0
5442 1 8.5281019215335474e-01 4.9439105586325489e+00 2.1870359908085980e+01 1 0 0
3689 1 9.6865576059346576e+00 2.0964388448937066e+00 1.9958379203845208e+01 1 0 0
5395 1 3.6176339567911260e+00 6.5892517885927662e+00 1.7898638548678505e+01 0 -1 1
1802 1 3.8302779127175444e+00 5.3723842554181456e+00 2.1028406271583204e+01 0 1 1
2128 1 1.0125052614912072e+01 5.7793731540811670e+00 1.9446820213698615e+01 0 2 1
4692 1 1.1269406022691900e+01 4.0324200632800178e+00 2.1055191124776890e+01 0 1 1
6313 1 6.6967427745216035e-01 1.7669395248719952e+00 2.1963198712496038e+01 1 1 1
1324 1 2.4513331067597366e+00 8.6028332364394604e+00 2.0950017074209832e+01 1 1 1
4945 1 5.5691626754297268e+00 1.1764151231835051e+01 1.6267377527147751e+01 1 0 0
385 1 5.0190508824348807e+00 1.1951775057246058e+01 2.0180093636502821e+01 0 0 0
3803 1 1.8806617447971139e+00 8.1798984776291928e-01 2.4221755272758354e+01 1 0 1
793 2 1.1074500000000002e+01 1.0656442593567498e+01 2.6873327155609289e+01 0 0 0
750 2 9.8440000000000012e+00 8.5251540748539956e+00 2.6873327155609289e+01 0 0 0
795 2 1.2304999999999998e+01 1.1366872099805333e+01 2.6873327155609289e+01 0 0 0
746 2 8.6134999999999984e+00 1.0656442593567498e+01 2.6873327155609289e+01 0 0 0
6416 1 3.2461637836667507e+00 6.0331115567832443e+00 2.4071204791915978e+01 1 1 0
360 1 3.5450696805319102e+00 3.1777543814824383e+00 2.4038735749845223e+01 1 1 1
5298 1 8.4536095298303380e+00 7.0653791592305870e+00 2.4459763775607463e+01 0 0 0
3263 1 8.3795612177538192e+00 4.0678464389036604e+00 2.4316437273815399e+01 1 1 0
748 2 9.8440000000000012e+00 1.1366872099805333e+01 2.6873327155609289e+01 0 0 0
4490 1 1.0757155139102233e+01 3.1124002394944261e+00 2.3874836616381380e+01 0 0 1
71 1 6.0582664851035748e+00 2.5781055705400542e+00 2.4468575084207309e+01 0 0 0
3159 1 5.6678603317638681e+00 7.6161771458732943e+00 2.4186082554482983e+01 0 2 1
5272 1 2.8503609444724907e+00 9.2177933489231805e+00 2.3537137764926221e+01 0 2 0
518 1 5.6220191607045287e+00 1.0548652673331150e+01 2.4390529090064238e+01 2 0 1
5158 1 9.3432640116225514e+00 9.5426875007815983e+00 2.4424693032390952e+01 1 1 0
5302 1 1.1320903110703968e+01 4.9855153825935755e-01 2.4343895442579900e+01 1 1 1
572 2 0.0000000000000000e+00 2.8417180249513345e+00 2.6873327155609289e+01 0 0 0
574 2 0.0000000000000000e+00 0.0000000000000000e+00 2.6873327155609289e+01 0 0 0
576 2 1.2305000000000001e+00 7.1042950623783474e-01 2.6873327155609289e+01 0 0 0
583 2 1.2305000000000001e+00 2.1312885187134998e+00 2.6873327155609289e+01 0 0 0
585 2 2.4610000000000003e+00 2.8417180249513345e+00 2.6873327155609289e+01 0 0 0
587 2 2.4610000000000003e+00 0.0000000000000000e+00 2.6873327155609289e+01 0 0 0
589 2 3.6915000000000004e+00 7.1042950623783474e-01 2.6873327155609289e+01 0 0 0
604 2 3.6914999999999996e+00 2.1312885187134998e+00 2.6873327155609289e+01 0 0 0
606 2 4.9220000000000006e+00 2.8417180249513332e+00 2.6873327155609289e+01 0 0 0
608 2 4.9220000000000006e+00 0.0000000000000000e+00 2.6873327155609289e+01 0 0 0
610 2 6.1524999999999999e+00 7.1042950623783407e-01 2.6873327155609289e+01 0 0 0
633 2 6.1524999999999999e+00 2.1312885187134989e+00 2.6873327155609289e+01 0 0 0
635 2 7.3829999999999991e+00 2.8417180249513345e+00 2.6873327155609289e+01 0 0 0
637 2 7.3829999999999991e+00 0.0000000000000000e+00 2.6873327155609289e+01 0 0 0
639 2 8.6134999999999984e+00 7.1042950623783407e-01 2.6873327155609289e+01 0 0 0
670 2 8.6134999999999984e+00 2.1312885187135002e+00 2.6873327155609289e+01 0 0 0
672 2 9.8440000000000012e+00 2.8417180249513332e+00 2.6873327155609289e+01 0 0 0
674 2 9.8440000000000012e+00 0.0000000000000000e+00 2.6873327155609289e+01 0 0 0
676 2 1.1074500000000002e+01 7.1042950623783330e-01 2.6873327155609289e+01 0 0 0
715 2 1.1074500000000002e+01 2.1312885187135002e+00 2.6873327155609289e+01 0 0 0
579 2 0.0000000000000000e+00 4.2625770374269996e+00 2.6873327155609289e+01 0 0 0
581 2 1.2305000000000001e+00 4.9730065436648339e+00 2.6873327155609289e+01 0 0 0
596 2 1.2305000000000001e+00 6.3938655561404980e+00 2.6873327155609289e+01 0 0 0
600 2 2.4610000000000003e+00 4.2625770374269996e+00 2.6873327155609289e+01 0 0 0
602 2 3.6914999999999996e+00 4.9730065436648339e+00 2.6873327155609289e+01 0 0 0
625 2 3.6914999999999996e+00 6.3938655561404980e+00 2.6873327155609289e+01 0 0 0
577 2 0.0000000000000000e+00 7.1042950623783341e+00 2.6873327155609289e+01 0 0 0
598 2 2.4610000000000003e+00 7.1042950623783341e+00 2.6873327155609289e+01 0 0 0
629 2 4.9220000000000006e+00 4.2625770374269978e+00 2.6873327155609289e+01 0 0 0
631 2 6.1524999999999999e+00 4.9730065436648339e+00 2.6873327155609289e+01 0 0 0
662 2 6.1524999999999999e+00 6.3938655561404980e+00 2.6873327155609289e+01 0 0 0
666 2 7.3829999999999991e+00 4.2625770374269996e+00 2.6873327155609289e+01 0 0 0
627 2 4.9220000000000006e+00 7.1042950623783341e+00 2.6873327155609289e+01 0 0 0
664 2 7.3830000000000009e+00 7.1042950623783341e+00 2.6873327155609289e+01 0 0 0
668 2 8.6135000000000002e+00 4.9730065436648339e+00 2.6873327155609289e+01 0 0 0
707 2 8.6135000000000002e+00 6.3938655561404980e+00 2.6873327155609289e+01 0 0 0
711 2 9.8440000000000012e+00 4.2625770374270004e+00 2.6873327155609289e+01 0 0 0
713 2 1.1074500000000002e+01 4.9730065436648339e+00 2.6873327155609289e+01 0 0 0
754 2 1.1074500000000002e+01 6.3938655561404980e+00 2.6873327155609289e+01 0 0 0
709 2 9.8440000000000012e+00 7.1042950623783341e+00 2.6873327155609289e+01 0 0 0
592 2 0.0000000000000000e+00 8.5251540748539991e+00 2.6873327155609289e+01 0 0 0
594 2 1.2305000000000001e+00 9.2355835810918343e+00 2.6873327155609289e+01 0 0 0
621 2 2.4610000000000003e+00 8.5251540748539991e+00 2.6873327155609289e+01 0 0 0
623 2 3.6915000000000004e+00 9.2355835810918343e+00 2.6873327155609289e+01 0 0 0
590 2 0.0000000000000000e+00 1.1366872099805333e+01 2.6873327155609289e+01 0 0 0
617 2 1.2305000000000001e+00 1.0656442593567498e+01 2.6873327155609289e+01 0 0 0
619 2 2.4610000000000003e+00 1.1366872099805333e+01 2.6873327155609289e+01 0 0 0
654 2 3.6914999999999996e+00 1.0656442593567499e+01 2.6873327155609289e+01 0 0 0
658 2 4.9220000000000006e+00 8.5251540748539991e+00 2.6873327155609289e+01 0 0 0
660 2 6.1524999999999999e+00 9.2355835810918343e+00 2.6873327155609289e+01 0 0 0
703 2 7.3830000000000009e+00 8.5251540748539991e+00 2.6873327155609289e+01 0 0 0
656 2 4.9220000000000006e+00 1.1366872099805333e+01 2.6873327155609289e+01 0 0 0
699 2 6.1524999999999999e+00 1.0656442593567499e+01 2.6873327155609289e+01 0 0 0
701 2 7.3829999999999991e+00 1.1366872099805333e+01 2.6873327155609289e+01 0 0 0
705 2 8.6134999999999984e+00 9.2355835810918343e+00 2.6873327155609289e+01 0 0 0
752 2 1.1074500000000002e+01 9.2355835810918343e+00 2.6873327155609289e+01 0 0 0
6302 1 1.2014524473816213e+01 9.7485255986211605e+00 2.3991681515264116e+01 0 1 0
3555 1 1.1323601822849103e-01 6.2163429791456135e+00 2.4295150242286496e+01 1 0 1
5222 1 3.1600146645883660e+00 1.2202265759198454e+01 2.3891358213377593e+01 0 0 0
3356 1 2.4115343769637576e-01 9.1609588864338196e+00 2.4333847322697007e+01 1 0 1
573 2 0.0000000000000000e+00 1.4208590124756650e+00 3.0031000000000198e+01 0 0 0
575 2 0.0000000000000000e+00 0.0000000000000000e+00 3.0031000000000198e+01 0 0 0
584 2 1.2305000000000001e+00 2.1312885187134998e+00 3.0031000000000198e+01 0 0 0
586 2 2.4610000000000003e+00 1.4208590124756650e+00 3.0031000000000198e+01 0 0 0
588 2 2.4610000000000003e+00 0.0000000000000000e+00 3.0031000000000198e+01 0 0 0
605 2 3.6914999999999996e+00 2.1312885187134998e+00 3.0031000000000198e+01 0 0 0
582 2 1.2305000000000001e+00 3.5521475311891644e+00 3.0031000000000198e+01 0 0 0
603 2 3.6914999999999996e+00 3.5521475311891644e+00 3.0031000000000198e+01 0 0 0
901 2 0.0000000000000000e+00 2.8417180249513345e+00 3.3188672844390794e+01 0 0 0
902 2 0.0000000000000000e+00 0.0000000000000000e+00 3.3188672844390794e+01 0 0 0
903 2 1.2305000000000001e+00 7.1042950623783474e-01 3.3188672844390794e+01 0 0 0
907 2 1.2305000000000001e+00 2.1312885187134998e+00 3.3188672844390794e+01 0 0 0
908 2 2.4610000000000003e+00 2.8417180249513345e+00 3.3188672844390794e+01 0 0 0
909 2 2.4610000000000003e+00 0.0000000000000000e+00 3.3188672844390794e+01 0 0 0
910 2 3.6915000000000004e+00 7.1042950623783474e-01 3.3188672844390794e+01 0 0 0
918 2 3.6914999999999996e+00 2.1312885187134998e+00 3.3188672844390794e+01 0 0 0
607 2 4.9220000000000006e+00 1.4208590124756650e+00 3.0031000000000198e+01 0 0 0
609 2 4.9220000000000006e+00 0.0000000000000000e+00 3.0031000000000198e+01 0 0 0
634 2 6.1524999999999999e+00 2.1312885187134989e+00 3.0031000000000198e+01 0 0 0
636 2 7.3829999999999991e+00 1.4208590124756659e+00 3.0031000000000198e+01 0 0 0
638 2 7.3829999999999991e+00 0.0000000000000000e+00 3.0031000000000198e+01 0 0 0
632 2 6.1524999999999999e+00 3.5521475311891644e+00 3.0031000000000198e+01 0 0 0
919 2 4.9220000000000006e+00 2.8417180249513332e+00 3.3188672844390794e+01 0 0 0
920 2 4.9220000000000006e+00 0.0000000000000000e+00 3.3188672844390794e+01 0 0 0
921 2 6.1524999999999999e+00 7.1042950623783407e-01 3.3188672844390794e+01 0 0 0
933 2 6.1524999999999999e+00 2.1312885187134989e+00 3.3188672844390794e+01 0 0 0
934 2 7.3829999999999991e+00 2.8417180249513345e+00 3.3188672844390794e+01 0 0 0
935 2 7.3829999999999991e+00 0.0000000000000000e+00 3.3188672844390794e+01 0 0 0
671 2 8.6134999999999984e+00 2.1312885187135002e+00 3.0031000000000198e+01 0 0 0
673 2 9.8440000000000012e+00 1.4208590124756659e+00 3.0031000000000198e+01 0 0 0
675 2 9.8440000000000012e+00 0.0000000000000000e+00 3.0031000000000198e+01 0 0 0
716 2 1.1074500000000002e+01 2.1312885187135002e+00 3.0031000000000198e+01 0 0 0
669 2 8.6134999999999984e+00 3.5521475311891657e+00 3.0031000000000198e+01 0 0 0
714 2 1.1074500000000002e+01 3.5521475311891644e+00 3.0031000000000198e+01 0 0 0
936 2 8.6134999999999984e+00 7.1042950623783407e-01 3.3188672844390794e+01 0 0 0
952 2 8.6134999999999984e+00 2.1312885187135002e+00 3.3188672844390794e+01 0 0 0
953 2 9.8440000000000012e+00 2.8417180249513332e+00 3.3188672844390794e+01 0 0 0
954 2 9.8440000000000012e+00 0.0000000000000000e+00 3.3188672844390794e+01 0 0 0
955 2 1.1074500000000002e+01 7.1042950623783330e-01 3.3188672844390794e+01 0 0 0
975 2 1.1074500000000002e+01 2.1312885187135002e+00 3.3188672844390794e+01 0 0 0
578 2 0.0000000000000000e+00 5.6834360499026637e+00 3.0031000000000198e+01 0 0 0
580 2 0.0000000000000000e+00 4.2625770374269996e+00 3.0031000000000198e+01 0 0 0
597 2 1.2305000000000001e+00 6.3938655561404980e+00 3.0031000000000198e+01 0 0 0
599 2 2.4610000000000003e+00 5.6834360499026637e+00 3.0031000000000198e+01 0 0 0
601 2 2.4610000000000003e+00 4.2625770374269996e+00 3.0031000000000198e+01 0 0 0
626 2 3.6914999999999996e+00 6.3938655561404980e+00 3.0031000000000198e+01 0 0 0
595 2 1.2305000000000001e+00 7.8147245686161639e+00 3.0031000000000198e+01 0 0 0
624 2 3.6914999999999996e+00 7.8147245686161639e+00 3.0031000000000198e+01 0 0 0
905 2 0.0000000000000000e+00 4.2625770374269996e+00 3.3188672844390794e+01 0 0 0
906 2 1.2305000000000001e+00 4.9730065436648339e+00 3.3188672844390794e+01 0 0 0
914 2 1.2305000000000001e+00 6.3938655561404980e+00 3.3188672844390794e+01 0 0 0
916 2 2.4610000000000003e+00 4.2625770374269996e+00 3.3188672844390794e+01 0 0 0
917 2 3.6914999999999996e+00 4.9730065436648339e+00 3.3188672844390794e+01 0 0 0
929 2 3.6914999999999996e+00 6.3938655561404980e+00 3.3188672844390794e+01 0 0 0
904 2 0.0000000000000000e+00 7.1042950623783341e+00 3.3188672844390794e+01 0 0 0
915 2 2.4610000000000003e+00 7.1042950623783341e+00 3.3188672844390794e+01 0 0 0
628 2 4.9220000000000006e+00 5.6834360499026637e+00 3.0031000000000198e+01 0 0 0
630 2 4.9220000000000006e+00 4.2625770374269978e+00 3.0031000000000198e+01 0 0 0
663 2 6.1524999999999999e+00 6.3938655561404980e+00 3.0031000000000198e+01 0 0 0
665 2 7.3829999999999991e+00 5.6834360499026637e+00 3.0031000000000198e+01 0 0 0
667 2 7.3829999999999991e+00 4.2625770374269996e+00 3.0031000000000198e+01 0 0 0
661 2 6.1524999999999999e+00 7.8147245686161639e+00 3.0031000000000198e+01 0 0 0
931 2 4.9220000000000006e+00 4.2625770374269978e+00 3.3188672844390794e+01 0 0 0
932 2 6.1524999999999999e+00 4.9730065436648339e+00 3.3188672844390794e+01 0 0 0
948 2 6.1524999999999999e+00 6.3938655561404980e+00 3.3188672844390794e+01 0 0 0
950 2 7.3829999999999991e+00 4.2625770374269996e+00 3.3188672844390794e+01 0 0 0
930 2 4.9220000000000006e+00 7.1042950623783341e+00 3.3188672844390794e+01 0 0 0
949 2 7.3830000000000009e+00 7.1042950623783341e+00 3.3188672844390794e+01 0 0 0
708 2 8.6135000000000002e+00 6.3938655561404980e+00 3.0031000000000198e+01 0 0 0
710 2 9.8440000000000012e+00 5.6834360499026637e+00 3.0031000000000198e+01 0 0 0
712 2 9.8440000000000012e+00 4.2625770374270004e+00 3.0031000000000198e+01 0 0 0
755 2 1.1074500000000002e+01 6.3938655561404980e+00 3.0031000000000198e+01 0 0 0
706 2 8.6135000000000002e+00 7.8147245686161639e+00 3.0031000000000198e+01 0 0 0
753 2 1.1074500000000002e+01 7.8147245686161639e+00 3.0031000000000198e+01 0 0 0
951 2 8.6135000000000002e+00 4.9730065436648339e+00 3.3188672844390794e+01 0 0 0
971 2 8.6135000000000002e+00 6.3938655561404980e+00 3.3188672844390794e+01 0 0 0
973 2 9.8440000000000012e+00 4.2625770374270004e+00 3.3188672844390794e+01 0 0 0
974 2 1.1074500000000002e+01 4.9730065436648339e+00 3.3188672844390794e+01 0 0 0
995 2 1.1074500000000002e+01 6.3938655561404980e+00 3.3188672844390794e+01 0 0 0
972 2 9.8440000000000012e+00 7.1042950623783341e+00 3.3188672844390794e+01 0 0 0
591 2 0.0000000000000000e+00 9.9460130873296642e+00 3.0031000000000198e+01 0 0 0
593 2 0.0000000000000000e+00 8.5251540748539991e+00 3.0031000000000198e+01 0 0 0
620 2 2.4610000000000003e+00 9.9460130873296642e+00 3.0031000000000198e+01 0 0 0
622 2 2.4610000000000003e+00 8.5251540748539991e+00 3.0031000000000198e+01 0 0 0
616 2 1.2305000000000001e+00 1.2077301606043163e+01 3.0031000000000198e+01 0 0 0
618 2 1.2305000000000001e+00 1.0656442593567498e+01 3.0031000000000198e+01 0 0 0
653 2 3.6914999999999996e+00 1.2077301606043163e+01 3.0031000000000198e+01 0 0 0
655 2 3.6914999999999996e+00 1.0656442593567499e+01 3.0031000000000198e+01 0 0 0
912 2 0.0000000000000000e+00 8.5251540748539991e+00 3.3188672844390794e+01 0 0 0
913 2 1.2305000000000001e+00 9.2355835810918343e+00 3.3188672844390794e+01 0 0 0
927 2 2.4610000000000003e+00 8.5251540748539991e+00 3.3188672844390794e+01 0 0 0
928 2 3.6915000000000004e+00 9.2355835810918343e+00 3.3188672844390794e+01 0 0 0
911 2 0.0000000000000000e+00 1.1366872099805333e+01 3.3188672844390794e+01 0 0 0
925 2 1.2305000000000001e+00 1.0656442593567498e+01 3.3188672844390794e+01 0 0 0
926 2 2.4610000000000003e+00 1.1366872099805333e+01 3.3188672844390794e+01 0 0 0
944 2 3.6914999999999996e+00 1.0656442593567499e+01 3.3188672844390794e+01 0 0 0
657 2 4.9220000000000006e+00 9.9460130873296642e+00 3.0031000000000198e+01 0 0 0
659 2 4.9220000000000006e+00 8.5251540748539991e+00 3.0031000000000198e+01 0 0 0
702 2 7.3830000000000009e+00 9.9460130873296642e+00 3.0031000000000198e+01 0 0 0
704 2 7.3830000000000009e+00 8.5251540748539991e+00 3.0031000000000198e+01 0 0 0
698 2 6.1524999999999999e+00 1.2077301606043163e+01 3.0031000000000198e+01 0 0 0
700 2 6.1524999999999999e+00 1.0656442593567499e+01 3.0031000000000198e+01 0 0 0
946 2 4.9220000000000006e+00 8.5251540748539991e+00 3.3188672844390794e+01 0 0 0
947 2 6.1524999999999999e+00 9.2355835810918343e+00 3.3188672844390794e+01 0 0 0
969 2 7.3830000000000009e+00 8.5251540748539991e+00 3.3188672844390794e+01 0 0 0
945 2 4.9220000000000006e+00 1.1366872099805333e+01 3.3188672844390794e+01 0 0 0
967 2 6.1524999999999999e+00 1.0656442593567499e+01 3.3188672844390794e+01 0 0 0
968 2 7.3829999999999991e+00 1.1366872099805333e+01 3.3188672844390794e+01 0 0 0
749 2 9.8440000000000012e+00 9.9460130873296642e+00 3.0031000000000198e+01 0 0 0
751 2 9.8440000000000012e+00 8.5251540748539956e+00 3.0031000000000198e+01 0 0 0
745 2 8.6135000000000002e+00 1.2077301606043163e+01 3.0031000000000198e+01 0 0 0
747 2 8.6134999999999984e+00 1.0656442593567498e+01 3.0031000000000198e+01 0 0 0
792 2 1.1074500000000002e+01 1.2077301606043163e+01 3.0031000000000198e+01 0 0 0
794 2 1.1074500000000002e+01 1.0656442593567498e+01 3.0031000000000198e+01 0 0 0
970 2 8.6134999999999984e+00 9.2355835810918343e+00 3.3188672844390794e+01 0 0 0
993 2 9.8440000000000012e+00 8.5251540748539956e+00 3.3188672844390794e+01 0 0 0
994 2 1.1074500000000002e+01 9.2355835810918343e+00 3.3188672844390794e+01 0 0 0
991 2 8.6134999999999984e+00 1.0656442593567498e+01 3.3188672844390794e+01 0 0 0
992 2 9.8440000000000012e+00 1.1366872099805333e+01 3.3188672844390794e+01 0 0 0
1015 2 1.1074500000000002e+01 1.0656442593567498e+01 3.3188672844390794e+01 0 0 0
1016 2 1.2304999999999998e+01 1.1366872099805333e+01 3.3188672844390794e+01 0 0 0
1861 1 1.7813181668984885e+00 2.5932821009061642e+00 3.5582693856261798e+01 2 1 -1
3611 1 2.9906514876984511e+00 1.1938198287876665e+01 3.5728585047418093e+01 0 1 0
1295 1 4.2005818252204046e+00 9.0682791248487804e-01 3.5651688555497287e+01 0 1 0
273 1 9.4481144720156784e+00 2.1865014612993527e+00 3.5479178693489445e+01 0 0 -1
28 1 2.4904385934484385e+00 9.1830869282041014e+00 3.5841603525051042e+01 1 0 -1
3675 1 3.9292639965345466e+00 6.2178851338595784e+00 3.6090766852557877e+01 0 1 0
1466 1 9.1929390201146468e+00 5.0298591328522084e+00 3.5518738536618159e+01 0 1 0
3347 1 6.2155452023941828e+00 4.5869433495662486e+00 3.6018269392589232e+01 0 1 -1
4759 1 1.1776785682795243e+00 5.4885325875743547e+00 3.6025674341796503e+01 0 0 0
119 1 8.1517090074874741e+00 7.6931943899162727e+00 3.6098803469760682e+01 0 0 -1
3161 1 5.7487584098297031e+00 8.9421219549651472e+00 3.6163350491493048e+01 0 1 -1
3228 1 5.8594284158042163e+00 1.1640265671412504e+01 3.5871985607407041e+01 0 1 0
6229 1 9.9789869550126440e+00 9.5252518099332200e+00 3.5327023928526742e+01 0 1 0
3072 1 1.2080117934520670e+01 4.0055936275945569e+00 3.6071872828119041e+01 0 1 0
2879 1 8.6475788425489792e+00 1.2119104517659698e+01 3.5571652671532760e+01 0 1 0
6222 1 1.7115943083288434e+00 1.6970821929214110e+00 3.8116824116880693e+01 0 1 0
4507 1 4.1507973568327463e+00 2.6371478662262868e+00 4.0178661096920095e+01 -1 0 0
529 1 1.0288991598847886e+01 1.5579085360486118e+00 3.9459119794465607e+01 0 0 0
6411 1 6.5562464700902865e+00 4.0843412772159882e+00 4.1040445066033797e+01 1 -1 0
5320 1 3.3012493233112936e+00 6.0494678947852822e+00 4.1117231386577856e+01 0 0 -1
4564 1 3.9512704935743752e+00 7.4415845455662364e+00 3.8774578303418693e+01 0 0 0
1334 1 4.6522791818290781e+00 4.7413780028403778e+00 4.3082028132679241e+01 0 2 0
1342 1 6.5722041479633893e+00 6.0971361311177636e+00 3.8874019100768948e+01 0 0 0
222 1 9.8082001888355297e+00 5.3485376588784002e+00 3.8321593633007538e+01 0 1 -1
3496 1 2.9470914779094559e+00 1.0090766618937087e+01 3.8459539796795937e+01 1 1 -1
2209 1 7.9017206811113494e-01 8.1533289322852145e+00 3.9654668891357730e+01 0 1 -1
1306 1 6.8957441446864589e+00 9.0018079903627335e+00 3.8825437770751023e+01 1 0 0
6439 1 5.3081558392957389e+00 1.1660305316468889e+01 3.8864864007491988e+01 1 1 -1
2013 1 8.5442222395931182e+00 9.0100515925858176e+00 4.1733888283185891e+01 0 1 0
1299 1 3.3104334643278976e+00 2.0850628917291663e+00 4.3416737847626990e+01 0 0 0
205 1 9.7504562479991179e+00 9.8383189518384668e+00 3.8729311237130773e+01 0 0 -1
5322 1 5.7311063627599008e+00 1.0397750089539063e+01 4.1437610075949834e+01 1 1 -1
3341 1 8.1861668629641238e-01 1.1846102113872188e+00 4.2622742052547920e+01 1 1 0
1682 1 1.6542282810810596e+00 3.7276739913480395e+00 4.0802633411324749e+01 0 1 -1
1303 1 1.1573985774339478e+01 7.4697742651226386e+00 3.8134117386152255e+01 1 0 0
6133 1 1.1760450002933288e+01 3.7753845314479451e+00 3.9089404210221076e+01 1 0 0
3290 1 9.9357065464334475e+00 1.1594459385646342e+01 4.1171907129819317e+01 0 0 -1
3769 1 8.2838155724517897e+00 2.0427025845927766e+00 4.1336191579658504e+01 0 0 -1
506 1 1.1426722665925702e+00 1.2009373427327096e+01 3.9783162733237063e+01 1 0 -1
1483 1 3.4650462677490639e+00 8.9722268434217298e+00 4.2183842429216014e+01 0 1 0
6151 1 1.2152931331708107e+01 5.4231985969690530e+00 4.1841607681028464e+01 0 1 0
2174 1 9.6869339024457872e+00 6.6704417163716858e+00 4.1196108109766200e+01 -1 0 0
3275 1 8.2386985950956664e+00 1.7543439806180028e+00 3.7884906519937473e+01 1 1 -1
1327 1 5.5209401848073227e+00 2.5234476685357885e+00 3.7700141754779366e+01 -1 1 -1
1387 1 1.0336140778017942e+00 1.0462412649820450e+01 4.2123723986793166e+01 0 -1 0
499 1 6.4189253968467117e+00 6.7573183904567928e+00 4.3566525406171607e+01 0 1 0
6174 1 8.5424641589178592e+00 4.9667228884395538e+00 4.2869476885795137e+01 0 1 0
6489 1 1.0685566304790365e+01 1.0758722020924422e+01 4.3688229831483838e+01 0 -1 0
4567 1 1.0164423334314741e+01 1.5793433928858318e+00 4.3300355485590501e+01 0 2 0
6225 1 3.9570715811864767e+00 6.0221770763085658e-02 4.1116312002189943e+01 0 1 -1
456 1 4.0493467963981056e+00 5.7214083678231136e+00 4.5801598154068600e+01 0 1 0
1758 1 3.6078608090077213e+00 4.8574121783289109e-01 4.7959885832972290e+01 0 0 0
4611 1 5.5469356967284904e+00 3.5646805866381666e+00 4.7926810407455307e+01 0 1 0
243 1 1.7903003053856721e+00 1.0484598317862769e+01 4.8678031561685344e+01 0 0 -1
365 1 8.8925374296624293e-01 8.3835106209490662e-01 4.7787737961713731e+01 1 0 -1
2912 1 9.8326053015370860e+00 6.1335490148544229e+00 4.9645233077832941e+01 0 1 -1
3288 1 4.4217021095208864e+00 7.2360791628414640e+00 4.8108134031825173e+01 0 0 0
384 1 4.2599629372161614e+00 8.8076527958310802e+00 4.4974102115009899e+01 1 0 -1
6143 1 7.2171502206150349e+00 5.5744200745676382e+00 4.6089675972765022e+01 1 1 -1
158 1 7.1767384614254892e+00 9.3077004214729993e+00 4.9077629142189366e+01 0 1 -1
6382 1 2.8279588215304396e-01 1.1229151050039437e+01 4.5684491871394087e+01 0 0 0
3772 1 1.1218143650410786e+01 7.6585900868105936e+00 4.6124990441124226e+01 0 1 0
146 1 9.3933392863976088e+00 3.6993044334107115e+00 4.5231245802058950e+01 1 0 -1
2180 1 1.0912922304710191e+01 5.1971662017662084e+00 4.7095576622925591e+01 0 1 -1
5243 1 1.3655499739314259e+00 7.5962904395262258e+00 4.5867174985224452e+01 1 1 -1