LAMMPS data file via write_data, version 16 Mar 2018, timestep = 6000000

6489 atoms
2 atom types

0.0000000000000000e+00 4.9219999999999999e+01 xlo xhi
0.0000000000000000e+00 4.9019635930410494e+01 ylo yhi
6.0022520760493947e-01 5.9461774792411433e+01 zlo zhi

Masses

1 18.015
2 12.01

Atoms # atomic

5226 1 3.2357430256182167e+00 4.0807146178224407e+00 2.4696808223865725e+00 3 -2 0
471 1 7.0921645039026981e-01 3.5825099491153334e+00 1.7013060832095936e+00 2 2 1
159 1 4.6003508295019193e+00 1.5503198802892033e+00 1.7668493712142823e+00 -1 0 0
3711 1 7.3727369124196285e+00 1.4695319187311677e+00 2.7698408570647288e+00 2 3 0
2922 1 8.2142685276993586e+00 3.7755557025523201e+00 1.5243246379551707e+00 0 0 1
1349 1 1.0859856794021088e+01 3.9486991316959728e+00 2.7203222374213532e+00 -1 1 0
3163 1 9.0818491230890288e+00 1.0999836508494283e+01 6.3665037727262570e+00 0 -1 1
454 1 1.0316170772441620e+01 8.6254188615640679e+00 5.3663329344222195e+00 1 1 1
4969 1 4.5611481250624957e+00 6.2516709739304961e+00 1.3496273855003458e+00 0 -4 1
4529 1 7.0367853246541205e+00 5.9599902987592408e+00 2.7879511046885903e+00 3 1 1
4997 1 1.1914520944864215e+01 6.3218979002409839e+00 1.6392073893736789e+00 -1 -1 0
2169 1 2.8036240236644514e+00 7.8455211825486648e+00 2.6266777222815398e+00 1 1 1
1681 1 3.7236075303351432e+00 1.0290749499335403e+01 1.7755514821026335e+00 0 -2 0
4655 1 8.0053575786839151e+00 8.4720010801502674e+00 2.1492231401477899e+00 0 2 1
5227 1 6.5076137932090941e+00 1.0701822622865341e+01 2.8017268963683746e+00 1 -1 0
4832 1 1.0812652219211184e+01 8.6184907753988984e+00 2.8136195641684854e+00 0 -2 1
1595 1 1.1465695076699925e+01 1.1146460632712925e+01 2.1207641158152111e+00 -1 -1 0
5400 1 2.2620665072198931e+00 1.3486575288767835e+00 6.3460781110845863e+00 0 1 1
5107 1 3.5541767289354924e+00 3.9457513627912357e+00 5.1906648296859421e+00 2 -1 1
153 1 6.9806155290074061e+00 1.0906876389804601e+00 5.5110452735157924e+00 -1 -2 1
6176 1 6.0050493346329530e+00 3.4654491066329123e+00 6.4567489275871957e+00 4 0 1
5079 1 9.4693452185978817e+00 1.8642263256921539e+00 6.2733143604343651e+00 2 2 1
3451 1 1.0834989675218234e+01 4.1767175122676017e+00 5.3288507530009639e+00 1 -1 1
4585 1 1.6815564049748719e+00 5.7192511750859802e+00 6.1693416473604996e+00 0 0 1
1560 1 7.0933560389973485e+00 5.6738838846222954e+00 5.3047852169639444e+00 -1 2 1
5323 1 9.3706841603795112e+00 6.2796922602039444e+00 6.3869748863749232e+00 0 1 0
3252 1 2.8121379602800713e+00 8.0883984554446666e+00 5.3868339729729442e+00 2 -3 0
3075 1 1.0295510143104372e+00 1.0081299206929641e+01 6.3705760146658630e+00 3 0 1
3259 1 5.4360400926589012e+00 7.9072969107339484e+00 6.1062426704335167e+00 3 1 1
2113 1 6.3237397358198573e+00 1.0753834219099829e+01 5.6278837010090417e+00 2 2 1
4672 1 1.2005449742257250e+01 1.4908949811235981e+00 1.7579340783695407e+00 0 0 1
3060 1 2.5599326425703273e-01 8.0382925819022173e+00 1.6256812494069701e+00 -2 4 0
4591 1 2.2147023314868175e+00 1.2475023005609682e+00 9.0026103253831842e+00 1 0 1
4865 1 4.9364119302073339e-01 3.5117771488178642e+00 9.7661179477961415e+00 -3 1 1
4834 1 4.6603687997290741e+00 8.7460284396877797e-01 1.0190880467808883e+01 0 1 1
2199 1 5.5607749006979983e+00 3.3753518945878906e+00 9.2235593484688980e+00 0 -2 1
5128 1 9.2965156383411429e+00 1.7802654961269644e+00 9.0670405376404659e+00 1 1 0
1296 1 1.8392037705222102e+00 6.0384863065462691e+00 8.8375493354024552e+00 2 2 0
6354 1 1.1839907931111457e+01 6.1336595211714329e+00 1.0228243502199728e+01 -1 -1 1
150 1 8.1435114152700034e+00 3.9347309218390616e+00 1.0147421329690912e+01 2 0 0
6181 1 4.2840206728298185e+00 5.8484017444248622e+00 9.9448806563775793e+00 2 2 1
2102 1 9.2032333151083598e+00 6.1775620857180291e+00 9.1601163935196084e+00 0 0 1
5145 1 1.1497965900855728e+01 1.0669740357544093e+01 1.3213921925862062e+01 -2 0 0
4627 1 1.1657572757204098e+00 1.0289082898757041e+01 9.0398805262980613e+00 -1 0 1
3024 1 3.8075849846624044e+00 1.0410903829505216e+01 9.9217729263821752e+00 -2 0 0
3533 1 5.2762667857637524e+00 8.0724204546646234e+00 8.8344725425991140e+00 3 0 0
5197 1 7.8441951533563090e+00 8.4981022091810789e+00 1.0070159260739803e+01 1 0 0
218 1 9.0413363033005680e+00 1.0912476813154711e+01 9.1527857699565125e+00 1 -2 1
1276 1 1.1393664752983758e+01 1.0801499151670601e+01 1.0292230965190715e+01 1 0 1
3390 1 3.2411776120060618e+00 3.3896173301585071e+00 1.3705775048220254e+01 -1 1 0
3600 1 9.5227104059575962e-01 3.4029899688921939e+00 1.2887169402388981e+01 0 -1 0
4734 1 4.5673046079773902e+00 1.0795458575459131e+00 1.3024458666704479e+01 -1 2 0
6209 1 7.1734767913204651e+00 1.6963384761745008e+00 1.3755239845160713e+01 2 -1 1
316 1 8.0367210972154197e+00 3.9126995397911832e+00 1.2869795823038750e+01 1 -2 1
6417 1 1.0832298213224306e+01 3.7425587925501982e+00 1.3820357645527501e+01 1 1 0
4718 1 1.0227121795479004e-01 8.1749540247375840e+00 1.2667013200770333e+01 0 0 1
1404 1 4.0881894328433210e+00 5.9639458939078098e+00 1.2642306368780757e+01 2 2 1
3748 1 6.6050254633368057e+00 5.9110352851143437e+00 1.3801490582856816e+01 -1 0 1
3215 1 4.7563785615778492e-01 8.1185091946121233e+00 9.9474342660970620e+00 -1 2 1
6373 1 2.6288810647898426e+00 8.2793663821341106e+00 1.3538675215089016e+01 3 3 1
2989 1 3.7847410428369312e+00 1.0513504816592592e+01 1.2742339089878840e+01 1 -1 0
1580 1 7.7868162873102849e+00 8.5389368164698567e+00 1.2902077730484782e+01 0 -2 0
4680 1 6.3534202774191542e+00 1.0821419226146176e+01 1.3663254710335849e+01 0 1 1
1581 1 1.0325390772488444e+01 8.2622405719869896e+00 1.4131342150339698e+01 1 -3 1
5294 1 1.1781019361981771e+01 6.2072109729825380e+00 1.3077471082100040e+01 -1 0 0
6336 1 1.1893957386065921e+01 1.5629872868462109e+00 9.9944406227349791e+00 0 0 1
3481 1 1.2042689401236736e+01 1.3052443544174377e+00 1.2917889148952430e+01 1 1 0
2155 1 2.2821752618225082e+00 1.0975274529369183e+00 1.7432848869809245e+01 1 -1 1
1565 1 2.9215661026673745e+00 3.6687363668381532e+00 1.6312548154571545e+01 4 -1 0
1839 1 7.0525436480812838e+00 1.4425706271101781e+00 1.6595033153284099e+01 1 2 0
4898 1 5.3493972582547142e+00 3.4296930938870855e+00 1.7512642603937632e+01 0 0 0
5115 1 9.5318979755944042e+00 1.6808920864197954e+00 1.7588838353068176e+01 -1 2 0
2941 1 1.0630579262136603e+01 4.2367523345419338e+00 1.6575381132880583e+01 -1 0 1
3297 1 2.0030699292821859e+00 5.9198461846901420e+00 1.7424053273373353e+01 3 0 0
2999 1 6.1017319626142541e+00 6.1283125049200784e+00 1.6693319220348005e+01 0 2 1
1994 1 8.9874951740253426e+00 6.0607800773797900e+00 1.7629835912878086e+01 -2 0 0
5017 1 2.5551681961925001e+00 8.2467533581706238e+00 1.6393180217580753e+01 1 -2 0
440 1 1.6051270980870449e+00 1.0640784837598600e+01 1.7632695980936425e+01 0 2 1
370 1 5.1027177561544068e+00 8.7285688013275013e+00 1.7446703737864269e+01 2 3 0
4700 1 6.4450171571796542e+00 1.1119628448151385e+01 1.6602011109146222e+01 3 -2 1
5394 1 9.8429234755079253e+00 8.5529664622351742e+00 1.7010756517170684e+01 1 -1 1
4868 1 8.9354172381611612e+00 1.0910817023061405e+01 1.7741452447622866e+01 1 0 0
1491 1 2.5192266647847585e+00 1.3948794202083650e+00 2.0127678638297741e+01 2 1 1
517 1 1.3509596546083535e+00 3.6900778148742703e+00 2.1082509102172558e+01 1 2 1
2893 1 5.1970189532969169e+00 9.5895806837248121e-01 2.1192265492761184e+01 2 0 1
6388 1 5.6103347949565130e+00 3.6662959504796455e+00 2.0314492775983830e+01 2 2 0
4932 1 9.4831290958196099e+00 1.5513440739833055e+00 2.0356915609875326e+01 -1 3 0
3568 1 2.1934105001720576e+00 5.9726878283259177e+00 1.9997910030918042e+01 1 0 0
467 1 1.1123778733038760e+01 1.0638629938884302e+01 2.1543408596726650e+01 -2 2 0
4967 1 4.6134291217825076e+00 5.9417584256648208e+00 2.1365150244086824e+01 -2 2 0
3795 1 5.1263906535877455e+00 8.4304119010720964e+00 2.0437055216647227e+01 3 -3 1
4782 1 8.0184264199660227e+00 3.8972889284185146e+00 2.1350431505232912e+01 -1 3 0
5198 1 9.0593981546564759e+00 6.3091754048624056e+00 2.0224367916950413e+01 -1 1 0
165 1 8.6948955116971511e+00 1.0923996870428477e+01 2.0439075109269538e+01 2 1 0
3233 1 1.1308471820973089e+00 1.0473288603944962e+01 2.0228626901256895e+01 -2 -1 1
4616 1 3.7794840113604704e+00 1.0596664417561820e+01 2.1217426274302611e+01 2 -4 1
2108 1 7.7236727148290898e+00 8.5466053857802944e+00 2.1389136633767670e+01 1 -1 1
5336 1 8.5091159942978034e-01 8.0852386249567232e+00 2.1013051494489630e+01 5 2 1
3152 1 1.1563885426119317e+01 6.1956638180946664e+00 2.1567722531292944e+01 0 2 0
90 1 1.2021881891686627e+01 1.9377285866470844e+00 2.1118920431075690e+01 0 -2 1
2079 1 1.7648544140553284e+00 3.3930498037275152e+00 2.3664942822374915e+01 0 2 0
748 2 9.8440000000000012e+00 1.1366872099805333e+01 2.6716150045774203e+01 0 0 0
1825 1 3.2952920163071866e+00 1.1220291503904436e+00 2.3738339977801044e+01 0 -1 0
6165 1 6.1948669449653293e+00 1.7556947519392372e+00 2.3957170588551165e+01 -2 0 1
6474 1 1.4462317058501257e+00 7.8237264434666685e+00 2.3869882396062131e+01 1 1 1
3720 1 3.2060942010120410e+00 5.5727192448593499e+00 2.4193378121262437e+01 1 1 1
2882 1 6.0681474230557706e+00 6.1707273176860031e+00 2.4274138237798699e+01 0 1 1
372 1 7.8496584679731214e+00 3.9695575788739688e+00 2.3929109522754064e+01 -1 1 1
4929 1 1.0714269655981949e+01 4.4115014850964913e+00 2.3786510735844651e+01 -1 -3 0
1779 1 2.4156310241503940e+00 1.0599042092997848e+01 2.3781558695387027e+01 3 2 0
3235 1 5.1883410840519222e+00 1.0897583543345498e+01 2.4240388708188668e+01 0 1 0
375 1 7.2920673754007588e+00 8.7469218380812102e+00 2.4107444631194447e+01 1 3 0
3707 1 1.0230031161826988e+01 9.1953174346836697e+00 2.4281036820483521e+01 -2 1 0
750 2 9.8440000000000012e+00 8.5251540748539956e+00 2.6716150045774203e+01 0 0 0
572 2 0.0000000000000000e+00 2.8417180249513345e+00 2.6716150045774203e+01 0 0 0
574 2 0.0000000000000000e+00 0.0000000000000000e+00 2.6716150045774203e+01 0 0 0
576 2 1.2305000000000001e+00 7.1042950623783474e-01 2.6716150045774203e+01 0 0 0
583 2 1.2305000000000001e+00 2.1312885187134998e+00 2.6716150045774203e+01 0 0 0
585 2 2.4610000000000003e+00 2.8417180249513345e+00 2.6716150045774203e+01 0 0 0
587 2 2.4610000000000003e+00 0.0000000000000000e+00 2.6716150045774203e+01 0 0 0
589 2 3.6915000000000004e+00 7.1042950623783474e-01 2.6716150045774203e+01 0 0 0
604 2 3.6914999999999996e+00 2.1312885187134998e+00 2.6716150045774203e+01 0 0 0
606 2 4.9220000000000006e+00 2.8417180249513332e+00 2.6716150045774203e+01 0 0 0
608 2 4.9220000000000006e+00 0.0000000000000000e+00 2.6716150045774203e+01 0 0 0
610 2 6.1524999999999999e+00 7.1042950623783407e-01 2.6716150045774203e+01 0 0 0
633 2 6.1524999999999999e+00 2.1312885187134989e+00 2.6716150045774203e+01 0 0 0
635 2 7.3829999999999991e+00 2.8417180249513345e+00 2.6716150045774203e+01 0 0 0
637 2 7.3829999999999991e+00 0.0000000000000000e+00 2.6716150045774203e+01 0 0 0
639 2 8.6134999999999984e+00 7.1042950623783407e-01 2.6716150045774203e+01 0 0 0
670 2 8.6134999999999984e+00 2.1312885187135002e+00 2.6716150045774203e+01 0 0 0
672 2 9.8440000000000012e+00 2.8417180249513332e+00 2.6716150045774203e+01 0 0 0
674 2 9.8440000000000012e+00 0.0000000000000000e+00 2.6716150045774203e+01 0 0 0
676 2 1.1074500000000002e+01 7.1042950623783330e-01 2.6716150045774203e+01 0 0 0
715 2 1.1074500000000002e+01 2.1312885187135002e+00 2.6716150045774203e+01 0 0 0
579 2 0.0000000000000000e+00 4.2625770374269996e+00 2.6716150045774203e+01 0 0 0
581 2 1.2305000000000001e+00 4.9730065436648339e+00 2.6716150045774203e+01 0 0 0
596 2 1.2305000000000001e+00 6.3938655561404980e+00 2.6716150045774203e+01 0 0 0
600 2 2.4610000000000003e+00 4.2625770374269996e+00 2.6716150045774203e+01 0 0 0
602 2 3.6914999999999996e+00 4.9730065436648339e+00 2.6716150045774203e+01 0 0 0
625 2 3.6914999999999996e+00 6.3938655561404980e+00 2.6716150045774203e+01 0 0 0
577 2 0.0000000000000000e+00 7.1042950623783341e+00 2.6716150045774203e+01 0 0 0
598 2 2.4610000000000003e+00 7.1042950623783341e+00 2.6716150045774203e+01 0 0 0
629 2 4.9220000000000006e+00 4.2625770374269978e+00 2.6716150045774203e+01 0 0 0
631 2 6.1524999999999999e+00 4.9730065436648339e+00 2.6716150045774203e+01 0 0 0
662 2 6.1524999999999999e+00 6.3938655561404980e+00 2.6716150045774203e+01 0 0 0
666 2 7.3829999999999991e+00 4.2625770374269996e+00 2.6716150045774203e+01 0 0 0
627 2 4.9220000000000006e+00 7.1042950623783341e+00 2.6716150045774203e+01 0 0 0
664 2 7.3830000000000009e+00 7.1042950623783341e+00 2.6716150045774203e+01 0 0 0
668 2 8.6135000000000002e+00 4.9730065436648339e+00 2.6716150045774203e+01 0 0 0
707 2 8.6135000000000002e+00 6.3938655561404980e+00 2.6716150045774203e+01 0 0 0
711 2 9.8440000000000012e+00 4.2625770374270004e+00 2.6716150045774203e+01 0 0 0
713 2 1.1074500000000002e+01 4.9730065436648339e+00 2.6716150045774203e+01 0 0 0
754 2 1.1074500000000002e+01 6.3938655561404980e+00 2.6716150045774203e+01 0 0 0
709 2 9.8440000000000012e+00 7.1042950623783341e+00 2.6716150045774203e+01 0 0 0
592 2 0.0000000000000000e+00 8.5251540748539991e+00 2.6716150045774203e+01 0 0 0
594 2 1.2305000000000001e+00 9.2355835810918343e+00 2.6716150045774203e+01 0 0 0
621 2 2.4610000000000003e+00 8.5251540748539991e+00 2.6716150045774203e+01 0 0 0
623 2 3.6915000000000004e+00 9.2355835810918343e+00 2.6716150045774203e+01 0 0 0
590 2 0.0000000000000000e+00 1.1366872099805333e+01 2.6716150045774203e+01 0 0 0
617 2 1.2305000000000001e+00 1.0656442593567498e+01 2.6716150045774203e+01 0 0 0
619 2 2.4610000000000003e+00 1.1366872099805333e+01 2.6716150045774203e+01 0 0 0
654 2 3.6914999999999996e+00 1.0656442593567499e+01 2.6716150045774203e+01 0 0 0
658 2 4.9220000000000006e+00 8.5251540748539991e+00 2.6716150045774203e+01 0 0 0
660 2 6.1524999999999999e+00 9.2355835810918343e+00 2.6716150045774203e+01 0 0 0
703 2 7.3830000000000009e+00 8.5251540748539991e+00 2.6716150045774203e+01 0 0 0
656 2 4.9220000000000006e+00 1.1366872099805333e+01 2.6716150045774203e+01 0 0 0
699 2 6.1524999999999999e+00 1.0656442593567499e+01 2.6716150045774203e+01 0 0 0
701 2 7.3829999999999991e+00 1.1366872099805333e+01 2.6716150045774203e+01 0 0 0
793 2 1.1074500000000002e+01 1.0656442593567498e+01 2.6716150045774203e+01 0 0 0
705 2 8.6134999999999984e+00 9.2355835810918343e+00 2.6716150045774203e+01 0 0 0
752 2 1.1074500000000002e+01 9.2355835810918343e+00 2.6716150045774203e+01 0 0 0
795 2 1.2304999999999998e+01 1.1366872099805333e+01 2.6716150045774203e+01 0 0 0
746 2 8.6134999999999984e+00 1.0656442593567498e+01 2.6716150045774203e+01 0 0 0
17 1 1.1151642357619178e+01 1.1604669254163882e+01 2.4159623949636774e+01 -2 -1 1
336 1 1.2076883147535497e+01 7.2705228040280652e+00 2.4091409727148033e+01 -1 0 0
3189 1 1.1783912619814915e+01 1.8487667647255783e+00 2.3894821867613512e+01 -1 0 0
573 2 0.0000000000000000e+00 1.4208590124756650e+00 3.0031000000008657e+01 0 0 0
575 2 0.0000000000000000e+00 0.0000000000000000e+00 3.0031000000008657e+01 0 0 0
584 2 1.2305000000000001e+00 2.1312885187134998e+00 3.0031000000008657e+01 0 0 0
586 2 2.4610000000000003e+00 1.4208590124756650e+00 3.0031000000008657e+01 0 0 0
588 2 2.4610000000000003e+00 0.0000000000000000e+00 3.0031000000008657e+01 0 0 0
605 2 3.6914999999999996e+00 2.1312885187134998e+00 3.0031000000008657e+01 0 0 0
582 2 1.2305000000000001e+00 3.5521475311891644e+00 3.0031000000008657e+01 0 0 0
603 2 3.6914999999999996e+00 3.5521475311891644e+00 3.0031000000008657e+01 0 0 0
901 2 0.0000000000000000e+00 2.8417180249513345e+00 3.3345849954229550e+01 0 0 0
902 2 0.0000000000000000e+00 0.0000000000000000e+00 3.3345849954229550e+01 0 0 0
903 2 1.2305000000000001e+00 7.1042950623783474e-01 3.3345849954229550e+01 0 0 0
907 2 1.2305000000000001e+00 2.1312885187134998e+00 3.3345849954229550e+01 0 0 0
908 2 2.4610000000000003e+00 2.8417180249513345e+00 3.3345849954229550e+01 0 0 0
909 2 2.4610000000000003e+00 0.0000000000000000e+00 3.3345849954229550e+01 0 0 0
910 2 3.6915000000000004e+00 7.1042950623783474e-01 3.3345849954229550e+01 0 0 0
918 2 3.6914999999999996e+00 2.1312885187134998e+00 3.3345849954229550e+01 0 0 0
607 2 4.9220000000000006e+00 1.4208590124756650e+00 3.0031000000008657e+01 0 0 0
609 2 4.9220000000000006e+00 0.0000000000000000e+00 3.0031000000008657e+01 0 0 0
634 2 6.1524999999999999e+00 2.1312885187134989e+00 3.0031000000008657e+01 0 0 0
636 2 7.3829999999999991e+00 1.4208590124756659e+00 3.0031000000008657e+01 0 0 0
638 2 7.3829999999999991e+00 0.0000000000000000e+00 3.0031000000008657e+01 0 0 0
632 2 6.1524999999999999e+00 3.5521475311891644e+00 3.0031000000008657e+01 0 0 0
919 2 4.9220000000000006e+00 2.8417180249513332e+00 3.3345849954229550e+01 0 0 0
920 2 4.9220000000000006e+00 0.0000000000000000e+00 3.3345849954229550e+01 0 0 0
921 2 6.1524999999999999e+00 7.1042950623783407e-01 3.3345849954229550e+01 0 0 0
933 2 6.1524999999999999e+00 2.1312885187134989e+00 3.3345849954229550e+01 0 0 0
934 2 7.3829999999999991e+00 2.8417180249513345e+00 3.3345849954229550e+01 0 0 0
935 2 7.3829999999999991e+00 0.0000000000000000e+00 3.3345849954229550e+01 0 0 0
671 2 8.6134999999999984e+00 2.1312885187135002e+00 3.0031000000008657e+01 0 0 0
673 2 9.8440000000000012e+00 1.4208590124756659e+00 3.0031000000008657e+01 0 0 0
675 2 9.8440000000000012e+00 0.0000000000000000e+00 3.0031000000008657e+01 0 0 0
716 2 1.1074500000000002e+01 2.1312885187135002e+00 3.0031000000008657e+01 0 0 0
669 2 8.6134999999999984e+00 3.5521475311891657e+00 3.0031000000008657e+01 0 0 0
714 2 1.1074500000000002e+01 3.5521475311891644e+00 3.0031000000008657e+01 0 0 0
936 2 8.6134999999999984e+00 7.1042950623783407e-01 3.3345849954229550e+01 0 0 0
952 2 8.6134999999999984e+00 2.1312885187135002e+00 3.3345849954229550e+01 0 0 0
953 2 9.8440000000000012e+00 2.8417180249513332e+00 3.3345849954229550e+01 0 0 0
954 2 9.8440000000000012e+00 0.0000000000000000e+00 3.3345849954229550e+01 0 0 0
955 2 1.1074500000000002e+01 7.1042950623783330e-01 3.3345849954229550e+01 0 0 0
975 2 1.1074500000000002e+01 2.1312885187135002e+00 3.3345849954229550e+01 0 0 0
578 2 0.0000000000000000e+00 5.6834360499026637e+00 3.0031000000008657e+01 0 0 0
580 2 0.0000000000000000e+00 4.2625770374269996e+00 3.0031000000008657e+01 0 0 0
597 2 1.2305000000000001e+00 6.3938655561404980e+00 3.0031000000008657e+01 0 0 0
599 2 2.4610000000000003e+00 5.6834360499026637e+00 3.0031000000008657e+01 0 0 0
601 2 2.4610000000000003e+00 4.2625770374269996e+00 3.0031000000008657e+01 0 0 0
626 2 3.6914999999999996e+00 6.3938655561404980e+00 3.0031000000008657e+01 0 0 0
595 2 1.2305000000000001e+00 7.8147245686161639e+00 3.0031000000008657e+01 0 0 0
624 2 3.6914999999999996e+00 7.8147245686161639e+00 3.0031000000008657e+01 0 0 0
905 2 0.0000000000000000e+00 4.2625770374269996e+00 3.3345849954229550e+01 0 0 0
906 2 1.2305000000000001e+00 4.9730065436648339e+00 3.3345849954229550e+01 0 0 0
914 2 1.2305000000000001e+00 6.3938655561404980e+00 3.3345849954229550e+01 0 0 0
916 2 2.4610000000000003e+00 4.2625770374269996e+00 3.3345849954229550e+01 0 0 0
917 2 3.6914999999999996e+00 4.9730065436648339e+00 3.3345849954229550e+01 0 0 0
929 2 3.6914999999999996e+00 6.3938655561404980e+00 3.3345849954229550e+01 0 0 0
904 2 0.0000000000000000e+00 7.1042950623783341e+00 3.3345849954229550e+01 0 0 0
915 2 2.4610000000000003e+00 7.1042950623783341e+00 3.3345849954229550e+01 0 0 0
628 2 4.9220000000000006e+00 5.6834360499026637e+00 3.0031000000008657e+01 0 0 0
630 2 4.9220000000000006e+00 4.2625770374269978e+00 3.0031000000008657e+01 0 0 0
663 2 6.1524999999999999e+00 6.3938655561404980e+00 3.0031000000008657e+01 0 0 0
665 2 7.3829999999999991e+00 5.6834360499026637e+00 3.0031000000008657e+01 0 0 0
667 2 7.3829999999999991e+00 4.2625770374269996e+00 3.0031000000008657e+01 0 0 0
661 2 6.1524999999999999e+00 7.8147245686161639e+00 3.0031000000008657e+01 0 0 0
931 2 4.9220000000000006e+00 4.2625770374269978e+00 3.3345849954229550e+01 0 0 0
932 2 6.1524999999999999e+00 4.9730065436648339e+00 3.3345849954229550e+01 0 0 0
948 2 6.1524999999999999e+00 6.3938655561404980e+00 3.3345849954229550e+01 0 0 0
950 2 7.3829999999999991e+00 4.2625770374269996e+00 3.3345849954229550e+01 0 0 0
930 2 4.9220000000000006e+00 7.1042950623783341e+00 3.3345849954229550e+01 0 0 0
949 2 7.3830000000000009e+00 7.1042950623783341e+00 3.3345849954229550e+01 0 0 0
708 2 8.6135000000000002e+00 6.3938655561404980e+00 3.0031000000008657e+01 0 0 0
710 2 9.8440000000000012e+00 5.6834360499026637e+00 3.0031000000008657e+01 0 0 0
712 2 9.8440000000000012e+00 4.2625770374270004e+00 3.0031000000008657e+01 0 0 0
755 2 1.1074500000000002e+01 6.3938655561404980e+00 3.0031000000008657e+01 0 0 0
706 2 8.6135000000000002e+00 7.8147245686161639e+00 3.0031000000008657e+01 0 0 0
753 2 1.1074500000000002e+01 7.8147245686161639e+00 3.0031000000008657e+01 0 0 0
951 2 8.6135000000000002e+00 4.9730065436648339e+00 3.3345849954229550e+01 0 0 0
971 2 8.6135000000000002e+00 6.3938655561404980e+00 3.3345849954229550e+01 0 0 0
973 2 9.8440000000000012e+00 4.2625770374270004e+00 3.3345849954229550e+01 0 0 0
974 2 1.1074500000000002e+01 4.9730065436648339e+00 3.3345849954229550e+01 0 0 0
995 2 1.1074500000000002e+01 6.3938655561404980e+00 3.3345849954229550e+01 0 0 0
972 2 9.8440000000000012e+00 7.1042950623783341e+00 3.3345849954229550e+01 0 0 0
591 2 0.0000000000000000e+00 9.9460130873296642e+00 3.0031000000008657e+01 0 0 0
593 2 0.0000000000000000e+00 8.5251540748539991e+00 3.0031000000008657e+01 0 0 0
620 2 2.4610000000000003e+00 9.9460130873296642e+00 3.0031000000008657e+01 0 0 0
622 2 2.4610000000000003e+00 8.5251540748539991e+00 3.0031000000008657e+01 0 0 0
616 2 1.2305000000000001e+00 1.2077301606043163e+01 3.0031000000008657e+01 0 0 0
618 2 1.2305000000000001e+00 1.0656442593567498e+01 3.0031000000008657e+01 0 0 0
653 2 3.6914999999999996e+00 1.2077301606043163e+01 3.0031000000008657e+01 0 0 0
655 2 3.6914999999999996e+00 1.0656442593567499e+01 3.0031000000008657e+01 0 0 0
912 2 0.0000000000000000e+00 8.5251540748539991e+00 3.3345849954229550e+01 0 0 0
913 2 1.2305000000000001e+00 9.2355835810918343e+00 3.3345849954229550e+01 0 0 0
927 2 2.4610000000000003e+00 8.5251540748539991e+00 3.3345849954229550e+01 0 0 0
928 2 3.6915000000000004e+00 9.2355835810918343e+00 3.3345849954229550e+01 0 0 0
911 2 0.0000000000000000e+00 1.1366872099805333e+01 3.3345849954229550e+01 0 0 0
925 2 1.2305000000000001e+00 1.0656442593567498e+01 3.3345849954229550e+01 0 0 0
926 2 2.4610000000000003e+00 1.1366872099805333e+01 3.3345849954229550e+01 0 0 0
944 2 3.6914999999999996e+00 1.0656442593567499e+01 3.3345849954229550e+01 0 0 0
657 2 4.9220000000000006e+00 9.9460130873296642e+00 3.0031000000008657e+01 0 0 0
659 2 4.9220000000000006e+00 8.5251540748539991e+00 3.0031000000008657e+01 0 0 0
702 2 7.3830000000000009e+00 9.9460130873296642e+00 3.0031000000008657e+01 0 0 0
704 2 7.3830000000000009e+00 8.5251540748539991e+00 3.0031000000008657e+01 0 0 0
698 2 6.1524999999999999e+00 1.2077301606043163e+01 3.0031000000008657e+01 0 0 0
700 2 6.1524999999999999e+00 1.0656442593567499e+01 3.0031000000008657e+01 0 0 0
946 2 4.9220000000000006e+00 8.5251540748539991e+00 3.3345849954229550e+01 0 0 0
947 2 6.1524999999999999e+00 9.2355835810918343e+00 3.3345849954229550e+01 0 0 0
969 2 7.3830000000000009e+00 8.5251540748539991e+00 3.3345849954229550e+01 0 0 0
945 2 4.9220000000000006e+00 1.1366872099805333e+01 3.3345849954229550e+01 0 0 0
967 2 6.1524999999999999e+00 1.0656442593567499e+01 3.3345849954229550e+01 0 0 0
968 2 7.3829999999999991e+00 1.1366872099805333e+01 3.3345849954229550e+01 0 0 0
749 2 9.8440000000000012e+00 9.9460130873296642e+00 3.0031000000008657e+01 0 0 0
751 2 9.8440000000000012e+00 8.5251540748539956e+00 3.0031000000008657e+01 0 0 0
745 2 8.6135000000000002e+00 1.2077301606043163e+01 3.0031000000008657e+01 0 0 0
747 2 8.6134999999999984e+00 1.0656442593567498e+01 3.0031000000008657e+01 0 0 0
792 2 1.1074500000000002e+01 1.2077301606043163e+01 3.0031000000008657e+01 0 0 0
794 2 1.1074500000000002e+01 1.0656442593567498e+01 3.0031000000008657e+01 0 0 0
970 2 8.6134999999999984e+00 9.2355835810918343e+00 3.3345849954229550e+01 0 0 0
993 2 9.8440000000000012e+00 8.5251540748539956e+00 3.3345849954229550e+01 0 0 0
994 2 1.1074500000000002e+01 9.2355835810918343e+00 3.3345849954229550e+01 0 0 0
991 2 8.6134999999999984e+00 1.0656442593567498e+01 3.3345849954229550e+01 0 0 0
992 2 9.8440000000000012e+00 1.1366872099805333e+01 3.3345849954229550e+01 0 0 0
1015 2 1.1074500000000002e+01 1.0656442593567498e+01 3.3345849954229550e+01 0 0 0
1016 2 1.2304999999999998e+01 1.1366872099805333e+01 3.3345849954229550e+01 0 0 0
3034 1 4.7249842207945605e+00 1.1602080040393510e+00 3.5562222489943196e+01 0 -2 -1
1513 1 1.1101987852845644e+01 8.8996311357090772e+00 3.5781075774825581e+01 2 0 -1
6472 1 7.3386386529396637e+00 1.6244058987851704e+00 3.6490317131667950e+01 0 0 -1
409 1 8.7329293111597739e+00 3.7589803335811340e+00 3.5602879904455179e+01 1 2 -1
1740 1 3.1866544246029571e+00 3.2564483822179446e+00 3.6444273119056064e+01 -1 -1 -1
303 1 2.5858554837302608e+00 8.0270162871304844e+00 3.6215094332767393e+01 1 -3 -1
2873 1 4.3543495099884924e+00 5.7873677872653184e+00 3.6154760137844136e+01 -5 -1 0
4881 1 7.2774306066771448e+00 6.0460445866440509e+00 3.5864516398163843e+01 1 -1 0
4959 1 1.1201012649340232e+01 4.5492626046237925e+00 3.5597300907606879e+01 -1 2 -1
2075 1 8.5757933974861427e+00 8.4935289982033293e+00 3.6203435513345667e+01 1 -1 -1
267 1 3.8799024852003114e+00 1.0432596716878001e+01 3.5561728107323361e+01 0 -1 -1
3754 1 6.6027113830340864e+00 1.0574385273784076e+01 3.6292950729643664e+01 0 1 0
98 1 1.1757047703460779e+01 1.1602108815966664e+01 3.6181314250649265e+01 2 1 -1
1542 1 4.4657422819194670e-01 2.6873072191718501e+00 3.6219275969716477e+01 3 0 0
417 1 3.2297615578605319e+00 3.4695390786490012e+00 3.8837799818954110e+01 -1 3 -1
1424 1 1.1956296216293909e+01 1.1471601654543774e+01 3.9653497420578503e+01 -1 3 0
4601 1 4.7415164874459439e+00 1.1022056908115048e+00 3.9674980885691014e+01 0 2 0
2117 1 7.2333859033371617e+00 1.8791285541063660e+00 3.9093531973016283e+01 0 1 0
4778 1 8.5783194890663399e+00 4.3136399606683122e+00 3.9584812431663011e+01 -1 0 0
5392 1 1.1204816719868379e+01 4.2488302334660943e+00 3.8434372392599542e+01 1 1 -1
5288 1 1.1532146063265017e+01 1.1314382367149296e+01 4.2332217361201288e+01 1 1 -1
1312 1 4.3315562437105841e+00 6.0205362886083327e+00 3.9591547381014195e+01 2 1 0
1524 1 6.8005579700616439e+00 6.2869661389709535e+00 3.8540513061710669e+01 1 -1 0
320 1 2.7388079430020782e+00 8.1867158758733662e+00 4.3355776258857148e+01 1 0 0
2960 1 2.9933130081940478e+00 8.2169813304438417e+00 3.8801787981718036e+01 -2 1 0
2161 1 4.0923016574998918e+00 1.0795471502003750e+01 3.9542089826769711e+01 1 0 0
3403 1 6.6845270437335262e+00 1.1035383954285926e+01 3.9072334770572539e+01 -2 4 -1
4574 1 8.0472079879954421e+00 8.4725849198364003e+00 3.9090904408960498e+01 -1 3 0
2118 1 1.0844026113700563e+01 8.9030081061773245e+00 3.8758319761500630e+01 -1 2 -1
269 1 7.0724750456941288e-01 3.4400842546101456e+00 3.9652499141910766e+01 2 -2 -1
6444 1 7.3881427663109955e-02 8.1688198204642823e+00 4.2404685341318100e+01 -1 0 -1
1547 1 3.3591295730935298e+00 3.4287211369624817e+00 4.3254613259756823e+01 2 1 0
1737 1 4.5792670045248824e+00 9.6537088835727414e-01 4.2604393364632784e+01 -1 3 -1
5130 1 7.5209293387527971e+00 1.3108886901079115e+00 4.3098205539510431e+01 2 2 0
3339 1 8.2424358518526439e+00 3.9432970097446463e+00 4.2434972058117097e+01 1 -1 0
5086 1 1.0462278181642100e+01 8.8169390487822934e+00 4.3228811370546609e+01 1 -2 -1
247 1 6.4034921813245411e+00 1.0844268847920606e+01 4.3176377357071729e+01 1 3 -1
67 1 4.2613353804231195e+00 5.9593471783908445e+00 4.2326907110227765e+01 -1 -3 0
2906 1 6.9053993919896186e+00 6.2345047822765771e+00 4.3067533811706156e+01 0 0 0
1975 1 1.0800708560952518e+01 4.0052069999916560e+00 4.2907463795112861e+01 3 0 -1
328 1 7.9478385320614207e+00 8.7529391120377635e+00 4.2068751297441793e+01 1 1 -1
5174 1 3.7958687386676009e+00 1.0581487514391968e+01 4.2450809450275997e+01 2 -1 -1
5102 1 2.7148826746379340e-01 8.1078226225056245e+00 3.9486922517132015e+01 1 1 -1
261 1 7.9605843612328064e-01 3.8098172533054520e+00 4.2457986955848710e+01 1 -1 -1
5172 1 1.1934406132035011e+01 6.6085723345197955e+00 4.2317830672997474e+01 3 0 -1
3026 1 1.2255561534773651e+01 2.0401754315192711e+00 4.2249083521862431e+01 0 0 0
4533 1 1.2282795955095446e+01 6.7004304088971569e+00 3.9570709239128178e+01 0 1 -1
2927 1 2.4603274463070384e+00 1.0104099947491803e+00 4.6917852789873862e+01 1 1 0
4800 1 3.2635615746352586e+00 3.6047757717027009e+00 4.5924219731847401e+01 1 3 0
6450 1 7.3558867681397055e+00 1.2306591865611705e+00 4.6104200876738702e+01 3 3 -1
5395 1 5.7949965709397340e+00 3.8785559838749597e+00 4.6525622075857015e+01 -2 -4 0
340 1 1.0048535981912904e+01 1.6205616474546118e+00 4.6721807675961458e+01 1 0 -1
2206 1 1.8758112700477068e+00 5.7481670529842539e+00 4.7128916200067920e+01 1 0 0
86 1 6.7248249901262653e+00 6.3499871777524097e+00 4.5749502835543211e+01 -2 0 -1
4651 1 5.6902290011838952e+00 8.7307772683496641e+00 4.6569157034401769e+01 1 1 0
1401 1 1.0927699859928477e+01 4.0139096363797968e+00 4.5900978115203230e+01 2 0 0
3005 1 9.3743765309195144e+00 6.1870321310191114e+00 4.6603052023163798e+01 -1 2 0
5051 1 3.0465630153284797e+00 8.0879504658602190e+00 4.6301637100183470e+01 1 1 -1
52 1 1.3279914572239451e+00 1.0321164654008836e+01 4.7001221812906010e+01 0 0 0
4807 1 6.4037795752328703e+00 1.1268363583419420e+01 4.5908224253953989e+01 0 1 -1
5333 1 1.0377635708489070e+01 8.6112904815194788e+00 4.6045477006477626e+01 1 3 0
1316 1 9.0489551440578015e+00 1.0981260804597559e+01 4.6592095364629870e+01 2 0 -1
405 1 2.4037051514164980e+00 1.4353609034916275e+00 4.9618759930772967e+01 1 -1 -1
3567 1 8.7659870870443346e-01 3.5336798208366664e+00 5.0413065146844616e+01 3 1 -1
6339 1 4.9982763816902178e+00 1.5880726114916242e+00 5.0283115789414580e+01 3 1 -1
4645 1 6.0070913815648330e+00 3.9850861964198572e+00 4.9433529217876696e+01 2 -2 0