
# Create simulation box and atoms

read_data data.ML_graphite_m500atm_240K
  orthogonal box = (0 0 2.16312) to (49.22 49.0196 57.8989)
  4 by 4 by 8 MPI processor grid
  reading atoms ...
  6489 atoms
  reading velocities ...
  6489 velocities
group water type 1
3729 atoms in group water
group graphite type 2
2760 atoms in group graphite

# Define potential

pair_style sw
pair_coeff * * MLC_e.sw mW C


# Fix graphite atoms in place

fix 5 graphite setforce 0.0 0.0 0.0
velocity graphite set 0.0 0.0 0.0


# Equilibration of molecular water

# Add velocity/set timestep

velocity	    water create ${TEMP} ${SEED} rot yes dist gaussian
velocity	    water create 240 ${SEED} rot yes dist gaussian
velocity	    water create 240 5710 rot yes dist gaussian
timestep	    5.0

# Define output

compute			1 water msd
compute			3 water temp
thermo	    	50
thermo_style	custom step temp press vol etotal ke pe c_1[4] c_3

# Neighbor lists

neigh_modify    delay 0 every 1 check yes

# Set fixes

fix             1 water momentum 10 linear 1 1 1 rescale
fix             2 water nve
fix             3 water temp/csvr ${TEMP} ${TEMP} 500.0 ${SEED}
fix             3 water temp/csvr 240 ${TEMP} 500.0 ${SEED}
fix             3 water temp/csvr 240 240 500.0 ${SEED}
fix             3 water temp/csvr 240 240 500.0 5710
fix             4 water press/berendsen z ${PRES} ${PRES} 1000.0 modulus 20000
fix             4 water press/berendsen z -500 ${PRES} 1000.0 modulus 20000
fix             4 water press/berendsen z -500 -500 1000.0 modulus 20000

# Run 0.5 ns equilibration

dump		    1 all atom 2000 ${DIR}/eq.${NAME}-${TEMP}.dump
dump		    1 all atom 2000 run_11/eq.${NAME}-${TEMP}.dump
dump		    1 all atom 2000 run_11/eq.het_freeze_11-${TEMP}.dump
dump		    1 all atom 2000 run_11/eq.het_freeze_11-240.dump

reset_timestep  0

run	            100000
Neighbor list info ...
  update every 1 steps, delay 0 steps, check yes
  max neighbors/atom: 2000, page size: 100000
  master list distance cutoff = 6.67472
  ghost atom cutoff = 6.67472
  binsize = 3.33736, bins = 15 15 17
  1 neighbor lists, perpetual/occasional/extra = 1 0 0
  (1) pair sw, perpetual
      attributes: full, newton on
      pair build: full/bin/atomonly
      stencil: full/bin/3d
      bin: standard
Per MPI rank memory allocation (min/avg/max) = 4.068 | 4.178 | 4.493 Mbytes
Step Temp Press Volume TotEng KinEng PotEng c_1[4] c_3 
       0    137.90382   -585.46729    134476.24   -35583.071    2666.9904   -38250.061            0          240 
      50    139.97034   -661.14391    134529.86   -35555.016    2706.9557   -38261.972   0.50741919    243.59645 
     100    138.40836   -749.11072    134515.28   -35648.245    2676.7479   -38324.993   0.83556767    240.87807 
     150    136.74289   -621.54803    134581.06   -35642.089    2644.5384   -38286.628    1.0362683    237.97957 
     200    138.46215   -487.66761    134610.88   -35750.507    2677.7881   -38428.295    1.2363995    240.97168 
     250    134.03416   -774.52306     134677.1   -35740.536    2592.1531   -38332.689    1.4277331    233.26546 
     300    135.23405   -588.63913    134722.98   -35731.691    2615.3582    -38347.05    1.5987112    235.35367 
     350    136.87113   -657.17329    134753.53   -35710.016    2647.0187   -38357.035    1.8086371    238.20277 
     400    137.94107   -655.98216    134770.54   -35684.066    2667.7107   -38351.776    1.9920712    240.06482 
     450    136.51732   -692.28739    134830.77   -35707.701     2640.176   -38347.877     2.146237      237.587 
     500    138.22076   -661.43651     134934.7   -35734.864    2673.1198   -38407.984    2.3031699    240.55159 
     550    138.05158   -770.05923     134913.7   -35741.705     2669.848   -38411.553    2.4671885    240.25715 
     600    135.11337   -703.38152    134995.04   -35770.532    2613.0243   -38383.556    2.6544905    235.14365 
     650    140.12781   -804.92709    134904.38   -35754.551    2710.0013   -38464.552    2.8415741    243.87051 
     700    138.05558   -728.89743    134946.81   -35724.668    2669.9253   -38394.593    2.9640733    240.26411 
     750     136.5684   -797.45692     134969.7   -35695.662     2641.164   -38336.826    3.1237732    237.67591 
     800    139.25855   -363.95647    134982.89   -35672.847    2693.1901   -38366.037    3.2961766    242.35769 
     850    137.21795   -626.87286    134984.25   -35703.203    2653.7259   -38356.929    3.4130929    238.80634 
     900    137.64479   -728.81548    134966.41   -35634.364    2661.9808   -38296.345    3.5776138    239.54919 
     950     138.7799   -384.55309    134974.51   -35642.694    2683.9333   -38326.627    3.7284988    241.52468 
    1000     137.0979   -555.97863     135011.3   -35701.715    2651.4042   -38353.119    3.9203649    238.59741 
    1050    138.94247   -697.84678    135047.16   -35704.589    2687.0774   -38391.667    4.0969966    241.80761 
    1100    137.02771   -781.13511    135013.85   -35768.695    2650.0468   -38418.742    4.2705957    238.47527 
    1150    137.72556   -717.36958    134947.51   -35767.834    2663.5429   -38431.377    4.4342662    239.68976 
    1200    135.92719   -614.53674    134941.07   -35774.974    2628.7634   -38403.738    4.5713388    236.55999 
    1250    136.07697   -648.68084    134911.76   -35766.656      2631.66   -38398.316    4.6722433    236.82065 
    1300    136.10309   -719.06256    134930.49   -35773.856    2632.1652   -38406.021    4.7884782    236.86612 
    1350    140.04925   -737.44126    134875.37   -35710.832    2708.4819   -38419.314    5.0018506    243.73379 
    1400    139.86201   -734.93029    134772.26   -35685.579    2704.8606   -38390.439    5.1282959    243.40791 
    1450    140.09491   -629.59107    134802.51   -35677.561    2709.3649   -38386.926    5.2250543    243.81325 
    1500    137.66898   -471.02308    134847.15   -35701.724    2662.4486   -38364.173    5.3811296    239.59129 
    1550    136.51274   -743.20217    134756.34   -35686.739    2640.0876   -38326.826    5.4631158    237.57904 
    1600    138.34048   -564.09691     134707.4   -35686.087     2675.435   -38361.522    5.6498247    240.75993 
    1650    134.92624   -826.06656    134767.21   -35755.844    2609.4054   -38365.249    5.8578581    234.81798 
    1700    139.64503   -809.45079     134673.1   -35754.197    2700.6644   -38454.861    6.0028252     243.0303 
    1750    138.51562   -692.05419    134669.42    -35736.19    2678.8222   -38415.013    6.2169742    241.06473 
    1800    134.87766   -698.41299    134762.59     -35776.3     2608.466   -38384.766     6.413539    234.73345 
    1850    135.86091   -403.68421    134787.85   -35737.061    2627.4815   -38364.542    6.5572778    236.44463 
    1900    136.69692   -793.52329    134871.44   -35738.904    2643.6495   -38382.553    6.6863983    237.89958 
    1950    134.49483    -613.5683    134769.02   -35738.352    2601.0622   -38339.414    6.8629533    234.06719 
    2000    139.30268   -783.02276    134745.45   -35728.061    2694.0436   -38422.105    6.9664451    242.43449 
    2050    136.37897    -634.6948     134732.4   -35724.453    2637.5005   -38361.953    7.1889912    237.34624 
    2100    136.12904   -742.30013    134728.79   -35745.499     2632.667   -38378.166    7.3166923    236.91127 
    2150    134.49933   -642.46957       134784   -35776.775    2601.1492   -38377.924     7.411954    234.07501 
    2200    133.09503   -468.44469    134809.23   -35770.177    2573.9907   -38344.167    7.5951373    231.63105 
    2250    135.62077   -698.50377    134863.23   -35777.112    2622.8372   -38399.949    7.8392992     236.0267 
    2300    137.06918   -755.11233    134924.43   -35730.362    2650.8487    -38381.21     7.963136    238.54743 
    2350    138.17192   -686.06271    134863.43   -35697.694    2672.1753   -38369.869    8.1831399    240.46658 
    2400    137.45143   -474.33942    134958.67   -35702.723    2658.2413   -38360.964    8.2282735    239.21268 
    2450     138.5592   -585.67337    135001.55   -35710.092    2679.6651   -38389.757    8.3834873    241.14058 
    2500    136.42612   -811.69523    134985.04   -35729.982    2638.4124   -38368.394    8.4575976    237.42829 
    2550    136.52654   -409.43515    134929.15   -35760.646    2640.3545       -38401    8.6330495    237.60306 
    2600    138.73521   -622.57789    134924.67   -35787.647     2683.069   -38470.716    8.7693912     241.4469 
    2650    134.99921    -625.8046    134947.18   -35784.901    2610.8166   -38395.717    8.8955028    234.94497 
    2700    137.56422   -583.39511    134973.81   -35770.964    2660.4226   -38431.386     9.122386    239.40898 
    2750    136.30505   -743.94225     134975.7   -35830.348    2636.0708   -38466.419    9.3349795    237.21758 
    2800    134.09005   -756.11378    134838.64   -35845.681     2593.234   -38438.915    9.5619314    233.36273 
    2850    137.63533   -542.50516    134842.19   -35818.612    2661.7979    -38480.41    9.7156487    239.53273 
    2900    135.88256   -475.33496    134858.02   -35768.975    2627.9001   -38396.875    9.8224208     236.4823 
    2950    135.42407   -293.78612    134949.03   -35810.699    2619.0331   -38429.732    10.024836    235.68437 
    3000    135.73689    -585.3279    135109.24   -35751.654     2625.083   -38376.737     10.16758     236.2288 
    3050    134.12525   -760.68504     135007.2   -35819.172    2593.9147   -38413.087     10.29656    233.42399 
    3100    136.69033   -653.28133    134941.87   -35746.588    2643.5221    -38390.11    10.479067    237.88811 
    3150    136.42071   -514.64028    134881.62   -35736.754    2638.3078   -38375.062    10.650491    237.41888 
    3200    139.00066   -478.26033    134902.21   -35765.322    2688.2026   -38453.525    10.924243    241.90887 
    3250    138.97021   -639.46029    134936.92   -35756.514    2687.6138   -38444.128     11.12956    241.85589 
    3300    136.00006   -858.59582    134982.03   -35748.929    2630.1726   -38379.102     11.18852     236.6868 
    3350    139.98153   -607.94102    135012.77   -35746.391    2707.1722   -38453.564    11.287863    243.61593 
    3400     138.1771    -458.0826    135039.12   -35709.441    2672.2754   -38381.716     11.50955    240.47559 
    3450    138.44966   -946.83816     135031.5   -35741.253    2677.5467     -38418.8    11.722621    240.94995 
    3500    136.27017   -734.29623    134996.86   -35681.914    2635.3964   -38317.311    11.767579    237.15689 
    3550    138.40037    -763.9102    134945.96   -35703.628    2676.5933   -38380.221     11.96085    240.86416 
    3600    135.80022   -733.40528    134922.04   -35784.432    2626.3077   -38410.739    12.143869      236.339 
    3650    137.86097    -898.4367    134920.45   -35743.281    2666.1617   -38409.442     12.35576    239.92542 
    3700    138.58972   -903.76942    134883.96   -35715.367    2680.2553   -38395.623    12.641331     241.1937 
    3750    138.61564   -833.40303    134872.14   -35725.371    2680.7566   -38406.128    12.822619    241.23881 
    3800    135.90158   -755.60293    134884.73   -35726.994     2628.268   -38355.262    12.993232    236.51541 
    3850    133.38538   -441.23058     134842.2   -35755.499    2579.6059   -38335.105    12.997626    232.13635 
    3900    136.52023   -670.68453    134865.11   -35749.773    2640.2324   -38390.005    13.072353    237.59207 
    3950    138.04729   -790.62081    134910.17   -35757.901     2669.765   -38427.666    13.272142    240.24969 
    4000    137.38189     -787.331    134956.53   -35721.737    2656.8965   -38378.634    13.484707    239.09166 
    4050    138.59737   -804.16356    134937.04   -35725.385    2680.4032   -38405.788    13.692737    241.20701 
    4100    138.75306   -929.28614    134916.57   -35716.018    2683.4142   -38399.432    13.908928    241.47797 
    4150    139.70971   -591.89938    134954.41   -35687.536    2701.9154   -38389.451    14.097046    243.14287 
    4200    135.37283    -636.6377    135010.42   -35709.863    2618.0423   -38327.905    14.246036    235.59521 
    4250    139.20785   -701.72491    135018.97   -35739.873    2692.2096   -38432.082     14.40061    242.26945 
    4300     138.7671   -302.47532    135056.98   -35734.015    2683.6857   -38417.701     14.66479    241.50239 
    4350    136.01032   -563.68214    135193.35    -35765.49     2630.371   -38395.861    14.810668    236.70465 
    4400    137.35583   -650.26851    135194.25     -35763.5    2656.3925   -38419.893     14.97179    239.04631 
    4450    138.82486   -736.67397    135245.96   -35715.359    2684.8027   -38400.162    15.148312    241.60292 
    4500    139.84735    -700.1023     135230.1   -35702.234    2704.5771   -38406.811    15.245273     243.3824 
    4550    137.39987   -564.96065    135240.54   -35739.037    2657.2442   -38396.281    15.429498    239.12295 
    4600    136.35053   -629.22787    135284.08    -35772.36    2636.9504    -38409.31    15.579856    237.29673 
    4650    140.52744   -657.16805    135314.84   -35774.807    2717.7297   -38492.537    15.786288    244.56599 
    4700    135.81086   -567.10476    135338.21   -35757.278    2626.5135   -38383.792    16.052972    236.35753 
    4750    138.00624   -630.06121    135399.11   -35751.475    2668.9711   -38420.446     16.33287    240.17825 
    4800    138.29912   -557.07214    135433.58   -35728.465    2674.6352   -38403.101    16.371685    240.68795 
    4850    138.57804   -481.91411    135448.39   -35682.747    2680.0294   -38362.777    16.392982    241.17337 
    4900    140.73286   -752.13475    135355.11   -35671.041    2721.7025   -38392.744    16.575824    244.92349 
    4950    139.06289   -720.58856    135295.75   -35706.935    2689.4061   -38396.341    16.699581    242.01717 
    5000    139.31256   -821.00177    135248.38   -35707.383    2694.2347   -38401.618    16.887866    242.45169 
    5050    138.79378    -756.9059    135245.93   -35691.283    2684.2016   -38375.484    17.081901    241.54883 
    5100    139.36307   -685.01182     135217.8   -35699.515    2695.2114   -38394.727    17.230489    242.53959 
    5150    139.65715   -766.24211    135235.18   -35669.912    2700.8988   -38370.811    17.371961    243.05139 
    5200    140.24062   -643.33932    135322.34   -35688.315    2712.1829   -38400.498     17.48349    244.06684 
    5250    138.89357   -593.69501    135310.69   -35670.657    2686.1316   -38356.789    17.716299    241.72251 
    5300    140.68173   -768.59691    135312.78   -35675.581    2720.7136   -38396.295    17.897324    244.83451 
    5350    140.38938   -862.44738    135244.32   -35675.713    2715.0598   -38390.773    18.061992    244.32572 
    5400    138.20377   -804.34754    135184.33   -35679.976    2672.7912   -38352.768    18.205175    240.52201 
    5450    138.19078   -820.55951    135126.31     -35638.1    2672.5401    -38310.64     18.41337    240.49941 
    5500     140.5143   -930.19427    135127.32   -35638.591    2717.4758   -38356.066    18.644268    244.54313 
    5550    138.21524   -648.28323    135136.41   -35684.983    2673.0131   -38357.997    18.735941    240.54198 
    5600    142.05697   -698.04167    135161.06   -35722.732    2747.3102   -38470.043    18.942824     247.2279 
    5650    139.98289    -517.9236    135214.79   -35685.448    2707.1986   -38392.646    19.051428     243.6183 
    5700    137.40229   -896.59692    135239.55   -35704.107    2657.2911   -38361.398     19.17531    239.12717 
    5750    141.91333    -749.2084     135229.1   -35634.045    2744.5323   -38378.577    19.289004    246.97793 
    5800    142.35987   -698.73699    135082.92   -35586.812    2753.1681    -38339.98     19.46267    247.75506 
    5850     140.0935   -563.65395    135156.62   -35575.792    2709.3376   -38285.129    19.677816    243.81079 
    5900    141.61728   -894.22249    135110.94    -35532.42    2738.8068   -38271.227     19.72539    246.46269 
    5950    139.66199   -705.28078    135139.28   -35530.335    2700.9924   -38231.327    19.852068    243.05982 
    6000    139.95586   -708.81608    135208.29   -35573.044    2706.6758    -38279.72    20.107407    243.57126 
    6050    141.71516   -993.17029    135190.14   -35599.658    2740.6997   -38340.358    20.447127    246.63304 
    6100    137.67069   -713.29155    135085.68   -35604.466    2662.4817   -38266.947    20.588999    239.59427 
    6150    136.93558   -677.81481    135036.18   -35608.469     2648.265   -38256.734     20.65646    238.31492 
    6200    137.57492   -650.12344    134983.74   -35578.163    2660.6295   -38238.793    20.837575    239.42759 
    6250    140.13244    -1122.069    134865.15   -35541.961    2710.0907   -38252.051    21.076263    243.87856 
    6300    139.10102   -699.00564    134795.16   -35587.191    2690.1436   -38277.334    21.130316    242.08353 
    6350    136.60532    -335.3354     134768.3   -35586.322     2641.878     -38228.2    21.182133    237.74016 
    6400    139.51751   -839.81443     134829.7   -35589.909    2698.1983   -38288.107    21.304976    242.80837 
    6450    137.77349   -653.03274     134849.4   -35593.243    2664.4699   -38257.713     21.47901    239.77318 
    6500    137.93564   -699.66103    134844.78   -35555.419    2667.6058   -38223.025    21.595861    240.05538 
    6550    141.47052   -788.00855     134817.2   -35516.458    2735.9685   -38252.427     22.01317    246.20728 
    6600    138.60615   -562.74085    134781.85    -35593.03    2680.5731   -38273.603    22.208154    241.22229 
    6650    138.04296    -1257.379    134750.67   -35613.138    2669.6812    -38282.82    22.352516    240.24214 
    6700    138.96193   -312.87101    134751.46   -35619.389    2687.4537   -38306.843     22.49898    241.84148 
    6750    138.12396   -579.18047    134875.91   -35591.601    2671.2478   -38262.848    22.730168    240.38312 
    6800    140.28856   -427.88211    134940.76   -35598.258      2713.11   -38311.368    22.675842    244.15026 
    6850    139.26135   -587.13789    134913.47   -35589.126    2693.2443    -38282.37    22.788831    242.36257 
    6900    138.72575   -910.99865    134833.86   -35620.352    2682.8861   -38303.239    23.029307    241.43044 
    6950    138.44773   -701.68655    134776.58   -35639.181    2677.5093    -38316.69    23.143012    240.94659 
    7000    139.11312    -774.3325     134706.7   -35628.232    2690.3776    -38318.61    23.163681     242.1046 
    7050    136.97093   -638.61215    134759.78   -35635.859    2648.9486   -38284.808    23.327153    238.37644 
    7100    140.86634   -690.96509    134780.11   -35705.294     2724.284   -38429.578    23.577936     245.1558 
    7150    137.61888   -447.26467    134719.58   -35666.778    2661.4797   -38328.257    23.800511     239.5041 
    7200    137.93315   -596.13328    134778.82   -35675.334    2667.5576   -38342.891    23.960967    240.05104 
    7250    136.08708   -760.11085    134794.21   -35686.691    2631.8555   -38318.547     24.10985    236.83825 
    7300    140.22794   -558.83849    134752.74   -35717.576    2711.9376   -38429.514    24.238806    244.04476 
    7350    139.23905   -437.38931     134848.3    -35765.32    2692.8129   -38458.133    24.389103    242.32375 
    7400    138.02671   -709.63458    134926.71   -35706.717     2669.367   -38376.084    24.534919    240.21387 
    7450    137.93337   -759.03642    134998.08   -35704.552    2667.5618   -38372.114     24.80438    240.05142 
    7500    139.67961   -578.36029    134901.78   -35689.003    2701.3333   -38390.336    25.027864    243.09049 
    7550     137.5141   -619.65141    134928.11   -35694.982    2659.4534   -38354.436    25.187303    239.32175 
    7600    134.75587    -524.4656     135004.7   -35694.781    2606.1105   -38300.892    25.240599    234.52147 
    7650    137.01744   -622.77051     135079.3   -35685.211    2649.8481   -38335.059    25.327732    238.45738 
    7700    132.58649    -985.5196    135010.78   -35667.689    2564.1558   -38231.845     25.40209    230.74601 
    7750    140.52085   -654.75914    135011.45   -35656.071    2717.6024   -38373.673    25.437719    244.55453 
    7800    136.79535   -733.48938    134962.32   -35658.456    2645.5531   -38304.009    25.504577    238.07088 
    7850    138.46043   -642.76492    135019.43   -35624.052    2677.7549   -38301.807    25.702494    240.96869 
    7900    138.27317   -632.77806    135087.06   -35634.259    2674.1333   -38308.393    25.809156    240.64279 
    7950     139.2873   -586.77092    135099.28   -35596.407    2693.7461   -38290.154    25.913507    242.40772 
    8000     140.3113   -811.05038     135180.3   -35568.586    2713.5498   -38282.135     26.15702    244.18984 
    8050      141.402    -526.1891    135209.67   -35533.378    2734.6434   -38268.021    26.285187    246.08803 
    8100    140.18251   -723.18069    135240.17   -35516.051     2711.059    -38227.11    26.402072     243.9657 
    8150    140.04862     -735.233    135176.18   -35560.206    2708.4697   -38268.676    26.571089    243.73269 
    8200    139.09523   -982.82125    135141.14   -35551.858    2690.0317   -38241.889    26.777102    242.07347 
    8250    137.84244   -741.84563    135034.25   -35638.124    2665.8032   -38303.928    26.982665    239.89317 
    8300    137.14327   -741.38657    135041.44   -35652.488    2652.2816   -38304.769    27.115578    238.67637 
    8350     136.4389   -726.86475    134955.01   -35690.218    2638.6596   -38328.877    27.318453    237.45054 
    8400    136.40171   -811.54105    134855.16   -35658.026    2637.9403   -38295.966    27.353253    237.38581 
    8450    136.13698   -786.18231    134814.89   -35611.333    2632.8205   -38244.154    27.536705    236.92509 
    8500    136.08691   -1019.9118       134791   -35624.818    2631.8523    -38256.67    27.798177    236.83795 
    8550     136.2818   -595.33608    134797.33     -35657.8    2635.6213   -38293.421    27.883327    237.17712 
    8600    137.22968   -625.66852    134857.24   -35693.128    2653.9527   -38347.081    28.088868    238.82675 
    8650    137.21617   -647.15512    134910.73    -35686.47    2653.6915   -38340.161    28.289868    238.80324 
    8700    138.02336   -567.63149    134959.58   -35699.944    2669.3021   -38369.246    28.401793    240.20803 
    8750    136.13731   -702.41749    134907.22   -35672.746    2632.8269   -38305.573    28.561262    236.92566 
    8800    139.15533   -611.23527    134915.96   -35645.193    2691.1938   -38336.387    28.722534    242.17805 
    8850     138.7504   -511.28326    134973.61   -35584.277    2683.3628   -38267.639    28.933165    241.47334 
    8900    138.87484   -414.70429    135001.17   -35566.572    2685.7694   -38252.341    29.077571     241.6899 
    8950    141.13915   -381.67461    134931.89   -35584.949      2729.56   -38314.509    29.198899    245.63058 
    9000    137.44882   -453.60786    134978.84   -35611.804    2658.1908   -38269.995    29.412591    239.20813 
    9050     139.0406   -510.15031     135020.5   -35605.586    2688.9751   -38294.561    29.651236    241.97839 
    9100    138.75984   -631.71161    135064.89   -35579.367    2683.5453   -38262.912    29.858289    241.48976 
    9150    139.34766   -448.30505    135179.22   -35580.924    2694.9135   -38275.837    30.078004    242.51277 
    9200    140.62743   -787.87473    135264.01   -35586.414    2719.6635   -38306.077    30.106502    244.74001 
    9250    136.71853   -765.09115    135321.57   -35607.743    2644.0674   -38251.811    30.373634    237.93718 
    9300    139.15327   -486.14465    135349.33   -35652.981    2691.1541   -38344.135    30.712546    242.17447 
    9350    139.60019   -605.05086    135320.45   -35594.306    2699.7972   -38294.104    30.974089    242.95225 
    9400    136.81435   -752.33989    135326.06   -35637.266    2645.9206   -38283.187    31.176291    238.10395 
    9450    138.47486   -798.50312     135335.7   -35623.453    2678.0339   -38301.487    31.455264     240.9938 
    9500    137.15029   -620.08029    135324.87   -35630.851    2652.4174   -38283.268    31.815486    238.68859 
    9550    137.64541   -854.27213    135352.02   -35615.606    2661.9928   -38277.599    31.928345    239.55027 
    9600    138.25656   -697.17662    135280.62   -35570.264    2673.8121   -38244.076    32.180913    240.61388 
    9650    140.65248    -670.3431    135241.12   -35636.959     2720.148   -38357.107    32.491421    244.78361 
    9700     137.1506   -946.84071    135199.08   -35690.536    2652.4234    -38342.96    32.680348    238.68913 
    9750    137.78214   -851.18357    135137.96   -35690.382     2664.637   -38355.019    32.943465    239.78822 
    9800    137.94296    -928.8461    135072.12   -35724.243    2667.7472    -38391.99    33.195957    240.06811 
    9850     138.8521   -626.41836    134987.43    -35691.16    2685.3296   -38376.489    33.401111    241.65033 
    9900    135.38391   -574.77881    134963.96   -35681.608    2618.2566   -38299.865     33.53202    235.61449 
    9950    139.51145   -531.43934    135000.36   -35643.268     2698.081   -38341.349     33.70009    242.79782 
   10000    137.26654   -628.46817    135025.74   -35682.634    2654.6656     -38337.3    33.861945     238.8909 
   10050    138.98044   -908.11643    135059.74   -35622.214    2687.8116   -38310.025    33.972289    241.87369 
   10100    140.25953   -721.34418    135030.62   -35622.554    2712.5486   -38335.103    34.143995    244.09974 
   10150    138.87104   -911.91448    134987.28   -35600.215    2685.6958   -38285.911    34.322832    241.68329 
   10200    139.82162   -850.65118    134843.44   -35590.592    2704.0796   -38294.672    34.515507    243.33762 
   10250    135.61937    -665.8933    134813.06   -35556.967    2622.8101   -38179.777    34.622346    236.02426 
   10300    142.89508    -810.5933    134785.15   -35536.585    2763.5187   -38300.103    34.664129    248.68649 
   10350    139.98384   -625.50393    134804.72   -35568.135    2707.2168   -38275.351    34.912164    243.61994 
   10400    139.34681   -723.21327    134839.34       -35607    2694.8971   -38301.897    35.055884     242.5113 
   10450    138.98356   -722.60662    134850.64   -35559.893    2687.8719   -38247.765     35.16851    241.87911 
   10500    142.21608   -852.17644    134867.28   -35578.481    2750.3872   -38328.868    35.217427     247.5048 
   10550    139.43717   -945.92599    134797.15   -35595.646    2696.6445   -38292.291    35.239447    242.66855 
   10600    138.06573   -689.57357    134803.58   -35618.903    2670.1215   -38289.025    35.533278    240.28177 
   10650    140.46652   -596.27449    134854.64   -35608.419    2716.5516    -38324.97    35.730492    244.45997 
   10700    134.01949   -583.14477    134875.86   -35587.595    2591.8694   -38179.464    35.933964    233.23993 
   10750    137.47931   -643.10884    134893.98    -35624.41    2658.7806    -38283.19    36.153329    239.26121 
   10800    134.46008   -787.86987    134866.58   -35716.303    2600.3901   -38316.693    36.185521     234.0067 
   10850    137.53578   -687.45397    134872.91    -35677.81    2659.8727   -38337.682    36.320893    239.35949 
   10900    135.63553   -944.12345    134904.26   -35705.306    2623.1228   -38328.429     36.48359     236.0524 
   10950    137.33768   -729.05349    134841.54   -35677.594    2656.0415   -38333.635    36.703152    239.01472 
   11000    135.30329   -1073.6448    134864.77   -35664.282    2616.6975    -38280.98    37.019984    235.47419 
   11050    137.55024   -789.88815    134811.34   -35676.979    2660.1523   -38337.131    37.396753    239.38465 
   11100    139.15082   -919.61979     134815.1    -35636.38    2691.1067   -38327.487    37.641808     242.1702 
   11150     139.1641   -772.46889    134713.44   -35645.902    2691.3636   -38337.265    37.563645    242.19332 
   11200    138.77014   -780.09758    134661.89     -35625.1    2683.7445   -38308.845    37.652592    241.50769 
   11250    139.42256   -717.58601    134630.82   -35622.091    2696.3621   -38318.454    37.788878    242.64313 
   11300    139.80449   -810.79631    134599.68   -35609.542    2703.7483    -38313.29    37.793485    243.30781 
   11350     140.4062   -426.58666    134640.86   -35641.155    2715.3851    -38356.54    38.043824    244.35499 
   11400    138.80788   -792.24389    134743.76   -35645.483    2684.4745   -38329.958    38.349531    241.57338 
   11450    139.12114    -794.1146    134830.67   -35555.463    2690.5327   -38245.996    38.533623    242.11855 
   11500    140.54935   -666.91069    134789.73   -35554.607    2718.1535   -38272.761    38.728028    244.60412 
   11550    140.84287   -517.19724    134816.48   -35608.768    2723.8301   -38332.598    38.936513    245.11495 
   11600    138.52728   -766.56675    134838.11   -35646.136    2679.0477   -38325.184    39.288792    241.08503 
   11650    140.13865   -588.17953    134835.96   -35615.945    2710.2108   -38326.156    39.493609    243.88937 
   11700    138.41769    -444.7136    134861.87   -35596.864    2676.9283   -38273.793     39.52833    240.89431 
   11750    139.53826   -597.84988    134849.21   -35580.603    2698.5995   -38279.203    39.725564    242.84448 
   11800    138.22907   -738.78137    134766.06   -35570.451    2673.2806   -38243.732    39.821961    240.56605 
   11850    136.70677   -662.61502    134784.95   -35560.931      2643.84   -38204.771    39.992868    237.91672 
   11900    142.39772   -774.77325    134833.97   -35549.081    2753.9002   -38302.981    40.064191    247.82093 
   11950    142.34907   -1051.6245    134760.48   -35547.323    2752.9591   -38300.282    40.009831    247.73625 
   12000    139.02172   -926.69799    134659.69   -35596.342      2688.61   -38284.952    40.320063    241.94553 
   12050    137.34902   -845.72871    134615.23   -35596.657    2656.2607   -38252.917    40.557898    239.03445 
   12100    139.95711   -637.82923    134696.42   -35551.564       2706.7   -38258.264    40.797937    243.57343 
   12150    135.26602   -694.37331    134722.86   -35643.972    2615.9767   -38259.949    40.953952    235.40933 
   12200    135.63053    -476.8518    134831.88   -35678.455    2623.0261   -38301.481    40.932228     236.0437 
   12250    135.36019   -596.34234    134857.47   -35667.246    2617.7978   -38285.044    41.109692     235.5732 
   12300    137.78584   -684.45824    134785.51   -35707.804    2664.7087   -38372.513    41.426327    239.79468 
   12350    132.78792   -746.36507    134734.26   -35752.343    2568.0514   -38320.394    41.511992    231.09657 
   12400    137.19307     -725.795    134667.09   -35673.669    2653.2448   -38326.914    41.576808    238.76305 
   12450    136.19131   -964.33523    134638.03   -35691.465    2633.8712   -38325.337    41.797458    237.01964 
   12500    137.22927   -700.41771    134574.03   -35668.842    2653.9449   -38322.787    41.800694    238.82605 
   12550    137.62735   -743.30084    134519.87   -35649.161    2661.6435   -38310.804    41.954461    239.51884 
   12600    136.97213   -536.56285    134556.44   -35669.646     2648.972   -38318.618    42.166091    238.37854 
   12650    140.71686   -591.57785    134664.85   -35631.932    2721.3931   -38353.325    42.274895    244.89566 
   12700    136.31707   -725.94826    134703.32   -35659.364    2636.3034   -38295.667    42.529428    237.23851 
   12750     135.9622   -633.17952     134718.3   -35661.395    2629.4403   -38290.835    42.670837     236.6209 
   12800    137.67262   -602.39414    134708.04   -35645.777    2662.5189   -38308.296    42.789909    239.59762 
   12850    138.63589   -772.56417    134669.48   -35595.227    2681.1481   -38276.375    42.942918    241.27404 
   12900    141.78386   -577.69155    134700.44   -35543.281    2742.0283   -38285.309    42.954814    246.75259 
   12950    143.04468   -548.64152    134758.51   -35539.764    2766.4119   -38306.176    43.199306    248.94685 
   13000    141.30211   -318.29444     134800.6   -35551.366    2732.7116   -38284.078    43.409087    245.91419 
   13050    138.83324   -650.62567    134884.96   -35607.499    2684.9649   -38292.464    43.494914    241.61751 
   13100     140.3357   -460.46825    134884.09   -35627.215    2714.0217   -38341.237    43.655211    244.23231 
   13150    136.92708   -713.31058    134924.53   -35655.087    2648.1006   -38303.188     43.88708    238.30013 
   13200    140.50384   -385.50306    134958.77    -35649.64    2717.2734   -38366.913     44.06383    244.52492 
   13250    140.82936   -558.85052    135097.76   -35648.512    2723.5688    -38372.08    44.233842    245.09144 
   13300    137.47838   -596.81328     135186.7   -35660.199    2658.7624   -38318.961    44.341599    239.25958 
   13350    139.11199   -468.67991    135215.53   -35662.029    2690.3557   -38352.385    44.652144    242.10262 
   13400    140.64018   -817.32693    135296.72    -35656.32    2719.9101   -38376.231    44.739676     244.7622 
   13450    139.08039   -534.51303    135326.96   -35637.383    2689.7446   -38327.127    44.847468    242.04763 
   13500     137.1382   -885.32167     135305.2   -35675.065    2652.1836   -38327.248    44.938307    238.66756 
   13550    136.72187   -991.79545    135194.54   -35703.311    2644.1319   -38347.443    45.165576    237.94299 
   13600    135.19243   -887.35561    135074.33   -35704.584    2614.5534   -38319.138    45.050609    235.28125 
   13650    136.28786   -684.59404    134970.02   -35723.846    2635.7384   -38359.585    45.089857    237.18766 
   13700    137.99879   -705.46974    134940.46   -35719.963    2668.8271    -38388.79    45.273763    240.16528 
   13750    135.47801   -538.78965     134895.5   -35745.481    2620.0764   -38365.558    45.384185    235.77825 
   13800    133.49241   -655.15323       134869   -35732.713    2581.6759   -38314.389     45.65678    232.32263 
   13850    140.05765   -935.53713    134790.81   -35676.806    2708.6444   -38385.451    45.814544    243.74841 
   13900    138.92063   -517.46156    134769.61   -35682.741    2686.6549   -38369.396    45.839109     241.7696 
   13950    139.76936   -690.66865    134729.51    -35680.26     2703.069   -38383.329    46.075457    243.24668 
   14000    137.18766   -648.05985    134802.22    -35693.23    2653.1402    -38346.37    46.389932    238.75364 
   14050    138.91075   -718.43356     134850.8   -35701.857    2686.4639   -38388.321    46.469963    241.75241 
   14100     136.3758   -787.67487    134898.61   -35722.076    2637.4392   -38359.516    46.733734    237.34072 
   14150    136.26562   -600.59242    134934.76   -35686.541    2635.3084    -38321.85    47.073834    237.14897 
   14200    138.18771   -958.20115    134885.74    -35682.03    2672.4806   -38354.511    47.408923    240.49406 
   14250    140.38019   -863.32416    134853.78   -35606.134    2714.8821   -38321.016    47.386643    244.30974 
   14300    138.20105   -838.66798    134730.12   -35683.442    2672.7386    -38356.18    47.513365    240.51727 
   14350    137.90527   -792.06745    134618.74   -35660.118    2667.0183   -38327.136    47.830598    240.00252 
   14400    140.03844   -690.26187    134657.33    -35645.16    2708.2728   -38353.433    48.043665    243.71497 
   14450     139.9767   -682.77719    134616.59   -35633.222    2707.0788     -38340.3    48.269159    243.60752 
   14500    139.55607   -713.16104    134669.78   -35658.418     2698.944   -38357.362    48.579033    242.87547 
   14550    139.50118   -560.78557    134653.96   -35612.044    2697.8824   -38309.927    48.730561    242.77994 
   14600     140.8175   -797.00955    134638.96   -35610.072    2723.3394   -38333.412    49.025577     245.0708 
   14650    138.96078   -479.87783    134689.14   -35646.625    2687.4314   -38334.057    49.129168    241.83947 
   14700    135.98165   -771.13808    134679.44   -35637.275    2629.8165   -38267.092     49.11673    236.65476 
   14750    139.50723    -743.9188    134631.99   -35657.387    2697.9994   -38355.386    49.314251    242.79048 
   14800    137.02376   -617.84675    134624.76   -35679.637    2649.9704   -38329.608    49.492893    238.46838 
   14850    138.95383   -711.43901    134629.07   -35670.018     2687.297   -38357.315    49.568811    241.82738 
   14900    139.67813   -496.42077    134697.55   -35731.637    2701.3046   -38432.941    49.907882    243.08791 
   14950    136.23712    -414.1035    134701.94   -35720.163    2634.7573    -38354.92    49.988036    237.09937 
   15000     136.0648   -417.87164    134728.73   -35794.626    2631.4247   -38426.051    50.078107    236.79948 
   15050    133.36246   -398.22366    134847.26   -35816.252    2579.1628   -38395.414    50.325566    232.09648 
   15100    136.99044   -486.63947    134906.43   -35787.488    2649.3259   -38436.814     50.25274    238.41039 
   15150     135.5237   -665.77605    134973.36    -35773.17    2620.9599    -38394.13    50.370658    235.85777 
   15200    137.58497   -431.38481    134998.66    -35784.22    2660.8239   -38445.044    50.777348    239.44509 
   15250    136.91327   -607.92958    135027.74   -35805.888    2647.8336   -38453.722    51.033432     238.2761 
   15300    139.41225   -567.91313    134988.91    -35797.02    2696.1626   -38493.183    51.090056    242.62518 
   15350    137.82592   -740.58034    135078.63   -35786.681    2665.4837   -38452.165    51.464653    239.86442 
   15400     137.1484   -851.31033    135134.95   -35849.827    2652.3809   -38502.208    51.550485     238.6853 
   15450    136.25338    -494.4329    135181.77   -35827.626    2635.0717   -38462.698    51.621353    237.12766 
   15500    135.69578   -649.87343    135242.78   -35789.098    2624.2879   -38413.386    51.819408    236.15724 
   15550    136.07289   -726.39764    135256.61   -35737.234     2631.581   -38368.815    51.894908    236.81354 
   15600    137.54244   -626.94298    135201.81    -35722.77    2660.0014   -38382.771     51.96473    239.37107 
   15650    139.49395   -620.70234    135244.84   -35678.161    2697.7427   -38375.904    52.103743    242.76738 
   15700    138.59313   -792.50747    135292.07   -35691.768    2680.3211    -38372.09    52.464843    241.19962 
   15750    136.20014   -565.57186    135290.54    -35674.63    2634.0419   -38308.672    52.627157      237.035 
   15800    141.62802   -670.73905    135405.72   -35625.904    2739.0144   -38364.919      52.7509    246.48138 
   15850    138.07588   -858.67609    135368.56   -35641.222    2670.3178    -38311.54    53.062785    240.29944 
   15900    138.57988   -792.82317    135307.48     -35647.8    2680.0649   -38327.865    53.104455    241.17657 
   15950    139.71162   -669.24886    135360.74   -35608.085    2701.9522   -38310.037    53.096785    243.14619 
   16000    140.07219   -707.24127    135342.62   -35636.352    2708.9256   -38345.278    53.144311    243.77371 
   16050    142.04527   -599.20585    135275.11   -35662.911     2747.084   -38409.995     53.23975    247.20755 
   16100    137.59329    -840.5862    135252.19   -35673.286    2660.9848   -38334.271    53.314702    239.45956 
   16150    138.37662   -892.64073     135217.2   -35775.187    2676.1341   -38451.321    53.463081    240.82284 
   16200    138.48162   -787.78393    135171.32   -35751.712    2678.1646   -38429.876    53.803815    241.00556 
   16250    136.98379   -693.88917    135139.05   -35743.212    2649.1975    -38392.41    53.785756    238.39883 
   16300    138.02562   -629.33866    135111.15   -35748.618    2669.3459   -38417.964    53.850107    240.21197 
   16350    136.48421   -464.62959    135086.64   -35762.002    2639.5358   -38401.538    53.827407    237.52939 
   16400    137.00635   -554.05978    135104.73   -35780.227    2649.6337   -38429.861    53.772075    238.43809 
   16450    135.66213   -745.81794    135101.72   -35807.318    2623.6372   -38430.955    53.918381    236.09869 
   16500    136.37711   -726.75376    135020.33   -35756.881    2637.4644   -38394.346      53.9686    237.34299 
   16550    138.10351    -450.0168    134965.98   -35719.844    2670.8522   -38390.696    54.051659    240.34752 
   16600    137.08354   -669.33643    135067.56    -35711.62    2651.1265   -38362.746    54.212223    238.57243 
   16650    136.64643   -616.81885    135114.25   -35723.982     2642.673   -38366.655    54.603554     237.8117 
   16700      137.931   -584.79239    135129.16   -35743.413    2667.5159   -38410.929    54.745094    240.04729 
   16750    135.96574   -761.45982    135144.69   -35731.117    2629.5089   -38360.626    54.849546    236.62707 
   16800    135.12605   -816.93893    135192.24   -35720.257    2613.2697   -38333.527    54.834772    235.16573 
   16850    137.69681   -738.82352    135217.46   -35679.827    2662.9869   -38342.814    54.694934    239.63973 
   16900    138.40263     -961.752    135185.64   -35698.027    2676.6371   -38374.664    54.576789     240.8681 
   16950    138.26992   -909.75254    135165.25   -35675.866    2674.0705   -38349.936    54.880216    240.63714 
   17000    138.53548   -756.88682    135056.66   -35718.598    2679.2062   -38397.804    55.028507    241.09929 
   17050    135.21072     -716.167    135100.39   -35747.263    2614.9071    -38362.17    55.101525    235.31308 
   17100    135.45407   -636.80008    135032.06   -35738.026    2619.6133   -38357.639    55.350855    235.73658 
   17150    136.82944   -831.61719    135054.15   -35711.764    2646.2124   -38357.976    55.565392    238.13021 
   17200    133.61339   -584.54607    135066.26    -35754.73    2584.0156   -38338.746    55.590943    232.53317 
   17250    135.24475   -806.38687    135095.08   -35733.933    2615.5653   -38349.498    55.850992     235.3723 
   17300    139.73727   -789.74697     135109.6   -35671.837    2702.4482   -38374.285    56.087935    243.19082 
   17350    134.62885   -735.81433    135104.18   -35662.165    2603.6541    -38265.82    56.341414    234.30043 
   17400    136.18283   -427.72727    135066.42   -35645.132    2633.7073   -38278.839    56.424676    237.00489 
   17450    136.93392   -782.60686    135139.35   -35627.535    2648.2329   -38275.768    56.670635    238.31203 
   17500    138.48318   -889.70455    135105.21   -35642.591    2678.1948   -38320.786     56.97247    241.00828 
   17550    135.85973   -778.42747    135085.29   -35701.254    2627.4586   -38328.713    57.228238    236.44257 
   17600     136.0488   -723.58672    135040.63   -35642.863    2631.1152   -38273.978    57.334079    236.77163 
   17650    137.47269    -979.1504    134907.36   -35646.912    2658.6525   -38305.564    57.679136    239.24968 
   17700    135.00754     -760.092    134858.54   -35686.855    2610.9777   -38297.832    57.980238    234.95948 
   17750    137.25962   -669.14175    134843.76   -35732.185    2654.5318   -38386.716    58.181484    238.87886 
   17800    135.99265   -726.27436    134909.79   -35730.894    2630.0293   -38360.923    58.230277    236.67391 
   17850    138.66833   -560.23196    134969.67   -35698.394    2681.7756   -38380.169    58.309888    241.33051 
   17900    139.47047   -802.37786    135035.12   -35672.652    2697.2885    -38369.94    58.338495     242.7265 
   17950    139.94603   -856.86548    135064.94   -35673.612    2706.4857   -38380.097    58.502009    243.55414 
   18000    140.63955   -866.69837    135047.51   -35664.961     2719.898   -38384.859    58.394084    244.76111 
   18050    139.83302   -894.60211    135018.58   -35625.851    2704.3001   -38330.151    58.492529    243.35747 
   18100    138.62785   -742.54449    135024.86   -35622.345    2680.9928   -38303.338     58.51392    241.26006 
   18150     138.8037   -628.50232    135011.61   -35618.414    2684.3936   -38302.808    58.653156     241.5661 
   18200    139.39973   -612.94909    135065.08   -35582.464    2695.9205   -38278.385    58.766536     242.6034 
   18250    138.81339   -812.29308    135090.07    -35594.77     2684.581   -38279.351    58.772586    241.58297 
   18300    136.88846   -917.20464    135021.84   -35613.873    2647.3538   -38261.227    58.920241    238.23292 
   18350    139.24619   -696.99484    134960.09   -35617.081    2692.9511   -38310.033    58.898588    242.33618 
   18400    137.30855   -686.71733     135037.2     -35579.3    2655.4781   -38234.778    59.208513    238.96402 
   18450    140.79646   -626.55331    135058.97   -35531.407    2722.9326    -38254.34     59.34464    245.03419 
   18500    138.35044   -538.90178     135121.1   -35619.895    2675.6277   -38295.523    59.437164    240.77726 
   18550    136.64804   -929.56082    135026.81   -35697.814    2642.7041   -38340.519    59.714191     237.8145 
   18600    140.86776   -801.96987    135020.88   -35672.097    2724.3114   -38396.408    59.967762    245.15827 
   18650    139.00076   -581.85286    135074.38   -35655.497    2688.2046   -38343.702    60.111409    241.90905 
   18700    141.21511   -591.93888    135067.42   -35664.349     2731.029   -38395.378    60.264045    245.76278 
   18750    139.91752   -636.20117    135103.13   -35669.761    2705.9342   -38375.696    60.424683    243.50452 
   18800    136.30721   -598.04072    135033.38   -35686.856    2636.1127   -38322.969    60.306646    237.22135 
   18850    137.60783   -532.00019    135043.87   -35699.809    2661.2661   -38361.075    60.412668    239.48488 
   18900    137.10896   -540.47391    135049.39   -35685.374    2651.6181   -38336.992    60.652163    238.61666 
   18950    139.99555    -732.6701    135114.45   -35658.772    2707.4433   -38366.215     61.00639    243.64033 
   19000    139.62819   -671.65242    134983.08    -35652.36    2700.3387   -38352.698    61.280462    243.00098 
   19050    139.34477   -633.47447     135060.5    -35707.04    2694.8575   -38401.898    61.437305    242.50774 
   19100    136.08459   -734.61916    135015.88   -35747.601    2631.8074   -38379.408     61.56828    236.83391 
   19150    135.45201   -728.66743     134929.3   -35741.668    2619.5735   -38361.241    61.547436      235.733 
   19200    137.30114   -801.43109    134862.53   -35766.634    2655.3348   -38421.969    61.880936    238.95113 
   19250    136.69803   -923.88023    134771.62   -35740.055    2643.6709   -38383.726     61.91683     237.9015 
   19300    136.04433   -724.10564     134692.5   -35775.791    2631.0288    -38406.82    62.194723    236.76385 
   19350    135.44798   -805.72746    134651.58   -35796.363    2619.4956   -38415.858    62.472484    235.72599 
   19400    135.26687   -793.35195    134535.35   -35818.969     2615.993   -38434.962    62.559615    235.41079 
   19450     133.9964   -937.95246    134483.92   -35790.584    2591.4227   -38382.007    62.836325    233.19974 
   19500    137.91668    -837.3302    134545.22   -35743.856     2667.239   -38411.095     62.89738    240.02237 
   19550    136.21111   -810.85522     134583.2   -35701.103    2634.2541   -38335.357    62.865711     237.0541 
   19600     135.3375   -581.71173    134614.14   -35699.028     2617.359   -38316.387    62.966365    235.53372 
   19650    132.56236   -812.93528     134576.3   -35739.231    2563.6892    -38302.92    62.999018    230.70403 
   19700    134.59531   -903.07192    134556.14   -35745.426    2603.0055   -38348.431    63.286503    234.24206 
   19750    137.35709   -658.89559    134560.63   -35694.884    2656.4169     -38351.3    63.484077     239.0485 
   19800    137.45718   -684.94991    134581.11   -35656.099    2658.3525   -38314.451    63.732826    239.22269 
   19850     137.6359   -696.72841     134672.9   -35635.633    2661.8088   -38297.442    63.742017    239.53372 
   19900    137.09058   -612.10991    134738.13     -35612.4    2651.2626   -38263.663    63.764785    238.58467 
   19950    138.86474   -685.96986    134806.14   -35597.324     2685.574   -38282.898    63.842165    241.67233 
   20000    137.90414   -640.59989    134809.71   -35567.687    2666.9965   -38234.683    64.027841    240.00055 
   20050     139.4854   -378.17892    134879.15   -35582.083    2697.5773   -38279.661     64.27354    242.75249 
   20100    142.50497   -662.91373    134930.02    -35523.71    2755.9743   -38279.684    64.114226    248.00758 
   20150    137.93405    -682.3913    134864.31    -35558.94    2667.5749   -38226.515    64.197724     240.0526 
   20200     140.1239   -1027.0263    134815.63   -35567.367    2709.9255   -38277.292     64.29108    243.86369 
   20250    138.99281   -638.52117    134726.22   -35640.832    2688.0508   -38328.883    64.503979    241.89521 
   20300    135.88084   -880.13044    134654.86   -35665.672     2627.867   -38293.539    64.568752    236.47932 
   20350    137.31781   -853.74209    134653.55   -35644.942    2655.6571   -38300.599    64.801728    238.98013 
   20400    138.82224   -798.11131    134630.21   -35638.804     2684.752   -38323.556    64.917102    241.59835 
   20450    137.18998   -837.43097    134621.15   -35647.091    2653.1849   -38300.275    65.169485    238.75766 
   20500    137.95772   -805.57088    134572.55   -35612.647    2668.0327    -38280.68    65.223946    240.09379 
   20550    138.94961   -802.68092    134482.91    -35619.29    2687.2154   -38306.506    65.248269    241.82003 
   20600    135.38655   -1070.3695    134471.17   -35697.565    2618.3076   -38315.873     65.35883    235.61908 
   20650    133.67793   -843.65659    134398.09   -35703.762    2585.2637   -38289.026    65.320151    232.64549 
   20700    136.49854   -721.27822    134341.83   -35704.723    2639.8128   -38344.536    65.660807    237.55432 
   20750    136.57896   -587.48429    134349.55   -35703.972    2641.3682   -38345.341    65.777329    237.69428 
   20800    136.49444     -698.034    134303.16   -35659.447    2639.7336   -38299.181    65.908147    237.54719 
   20850    139.89687   -526.17351     134333.8   -35667.148    2705.5349   -38372.683    65.945823    243.46859 
   20900    139.10429   -620.08978    134433.13   -35712.251    2690.2069   -38402.458    66.084042    242.08923 
   20950     136.1983   -860.03325    134478.97    -35699.72    2634.0064   -38333.726    66.203075     237.0318 
   21000    135.95234   -805.55683     134491.2   -35726.648    2629.2498   -38355.898    66.321911    236.60376 
   21050    138.68267   -541.55911     134508.5   -35743.041    2682.0528   -38425.094    66.559585    241.35546 
   21100    136.94402   -602.97672     134475.9   -35734.641    2648.4283   -38383.069    66.839232    238.32962 
   21150    135.60489    -692.5525    134461.01   -35742.374    2622.5302   -38364.904    67.255922    235.99907 
   21200    134.52251   -489.55728    134481.78   -35742.525    2601.5975   -38344.122    67.456342    234.11536 
   21250    135.04919   -723.57534    134432.79   -35720.271    2611.7832   -38332.054    67.831252    235.03196 
   21300    136.45858   -419.52587    134537.46   -35744.797    2639.0401   -38383.837    67.891008    237.48478 
   21350    136.23134   -812.43416    134532.58   -35697.598    2634.6454   -38332.244    68.075721    237.08931 
   21400    136.80557   -726.61355    134510.21   -35670.963    2645.7508   -38316.714    68.091496    238.08867 
   21450    136.82423     -804.972    134409.04   -35714.749    2646.1116    -38360.86    68.179181    238.12114 
   21500    137.93336    -504.7883     134391.1   -35710.033    2667.5616   -38377.594    68.462054     240.0514 
   21550    137.66927   -489.83512    134404.09   -35731.878    2662.4542   -38394.332    68.747914     239.5918 
   21600    139.27827   -841.80401     134473.2   -35679.284    2693.5715   -38372.855    68.765161    242.39201 
   21650    139.67828   -775.44685    134494.61   -35663.827    2701.3075   -38365.134    68.786147    243.08816 
   21700    134.97403   -949.26459     134410.7   -35717.226    2610.3297   -38327.555    68.957476    234.90116 
   21750    138.54337    -818.1158    134367.77   -35659.765    2679.3588   -38339.124     69.05309    241.11303 
   21800    140.65013    -672.1261    134436.74   -35646.168    2720.1026    -38366.27    69.130541    244.77952 
   21850    139.29296   -827.83064    134483.55   -35608.529    2693.8557   -38302.385    69.340065    242.41758 
   21900    138.10225   -857.20558     134492.1   -35613.909    2670.8278   -38284.736    69.416117    240.34532 
   21950    137.39353   -813.35851    134468.75   -35653.043    2657.1215   -38310.164    69.486951    239.11191 
   22000    135.65776   -817.05638    134427.93   -35709.783    2623.5526   -38333.336    69.458407    236.09107 
   22050    137.45515   -785.82998    134432.49   -35668.169    2658.3132   -38326.482    69.593178    239.21915 
   22100    136.53868   -795.99604    134345.96    -35655.08    2640.5892   -38295.669    69.760766    237.62419 
   22150    138.76471   -610.78847    134397.47   -35610.427    2683.6396   -38294.067    69.964731    241.49825 
   22200    139.06187   -616.09779    134434.95   -35597.033    2689.3865   -38286.419    70.178613    242.01541 
   22250    137.01831   -541.78302    134468.71   -35589.359     2649.865   -38239.224    70.363863     238.4589 
   22300    140.45948   -818.87121    134452.33   -35596.875    2716.4155    -38313.29    70.383507    244.44772 
   22350    138.83965   -905.24026    134449.31   -35638.272    2685.0889   -38323.361    70.554595    241.62867 
   22400    137.01304   -788.97758     134424.2   -35686.852    2649.7631   -38336.615     71.14988    238.44974 
   22450    139.10093   -704.90776    134461.94   -35680.716    2690.1419   -38370.858    71.435688    242.08338 
   22500    135.05706   -640.27014    134447.68   -35675.997    2611.9354   -38287.933      71.5901    235.04565 
   22550    137.66635   -470.11517    134537.55   -35661.213    2662.3978   -38323.611    71.768986    239.58672 
   22600    135.59554    -666.5495    134609.92   -35648.269    2622.3493   -38270.618    72.161807    235.98279 
   22650    139.02421   -884.56646    134617.42   -35642.067    2688.6582   -38330.725    72.529762    241.94986 
   22700    137.84929   -589.49168    134587.43   -35605.126    2665.9358   -38271.062    72.755814     239.9051 
   22750    135.01082   -337.56966       134633   -35675.612    2611.0412   -38286.654    72.823941    234.96518 
   22800    135.63818   -653.43071    134600.82   -35691.115    2623.1739   -38314.288    73.043555      236.057 
   22850    134.61374   -765.25627    134647.28   -35714.554    2603.3618   -38317.916    73.167341    234.27412 
   22900     137.1425   -598.17583    134713.22   -35651.027    2652.2668   -38303.293    73.494236    238.67504 
   22950    136.54645   -796.51181     134711.3   -35655.109    2640.7395   -38295.848    73.703298    237.63771 
   23000    136.17091   -574.27023    134784.45   -35672.186    2633.4768   -38305.663    73.987621    236.98414 
   23050    137.33539   -686.44435    134830.56   -35637.438    2655.9972   -38293.435     74.25977    239.01074 
   23100    140.69607   -601.86491    134797.86   -35636.444     2720.991   -38357.435    74.287774    244.85946 
   23150     136.5842   -430.18289    134891.02   -35659.725    2641.4695   -38301.195    74.484771     237.7034 
   23200    138.69749    -540.0466    134968.55   -35632.584    2682.3394   -38314.923     74.81045    241.38125 
   23250    139.60125    -1091.851    134924.64    -35645.22    2699.8178   -38345.038      74.9239    242.95411 
   23300    140.00703   -769.69104    134842.71   -35649.647    2707.6653   -38357.313    75.172994     243.6603 
   23350     137.7112   -897.57757    134807.24   -35673.761    2663.2652   -38337.026    75.445152    239.66478 
   23400    134.31704   -931.79714    134688.39   -35687.533    2597.6238   -38285.157    75.540573    233.75777 
   23450    136.90086   -737.93294    134683.31   -35665.623    2647.5936   -38313.217    75.653721     238.2545 
   23500    136.90442   -906.51205    134671.03   -35659.128    2647.6624    -38306.79    75.752178     238.2607 
   23550    138.13555   -542.41923    134644.64   -35671.175    2671.4718   -38342.647    76.133466    240.40328 
   23600    137.86061   -786.50356    134688.99   -35642.887    2666.1547   -38309.042    76.407019    239.92479 
   23650    141.74024   -756.55568    134718.83   -35654.229    2741.1848   -38395.414    76.451499    246.67669 
   23700    139.15743   -1042.1287    134705.75   -35644.028    2691.2345   -38335.262     76.48161    242.18171 
   23750     138.6442   -775.50742    134610.21   -35658.479     2681.309   -38339.788    76.581771    241.28852 
   23800     137.2988   -624.09331     134573.1    -35631.53    2655.2896    -38286.82    76.636706    238.94706 
   23850    137.90869   -405.16627    134565.83   -35640.335    2667.0844    -38307.42    76.837479    240.00847 
   23900    138.22894   -670.78178    134581.79   -35641.859    2673.2779   -38315.137    76.948646    240.56581 
   23950    136.61369    -747.9569    134514.57   -35614.458    2642.0398   -38256.497    77.180819    237.75472 
   24000    138.29522   -1037.7946    134481.35   -35632.507    2674.5598   -38307.067     77.49848    240.68116 
   24050    137.73799   -789.24993    134402.53   -35629.051    2663.7833   -38292.834    77.922634     239.7114 
   24100    138.73239   -732.06497     134326.1   -35591.547    2683.0145   -38274.561    77.911992      241.442 
   24150    137.53145   -610.69243     134381.6   -35566.908    2659.7888   -38226.696    77.914804    239.35194 
   24200    138.28114   -948.77251    134331.87   -35579.184    2674.2875   -38253.471    77.991234    240.65666 
   24250     137.4331   -980.81789    134273.17   -35617.005    2657.8868   -38274.892    78.103263    239.18078 
   24300    134.42506   -768.59238       134265   -35649.356    2599.7128   -38249.069    78.307841    233.94575 
   24350     135.0723   -291.19935    134418.09    -35687.52    2612.2301    -38299.75    78.492377    235.07217 
   24400     133.0486   -664.98114    134523.98   -35744.586    2573.0928   -38317.679    78.646465    231.55025 
   24450    134.83488   -813.04158    134494.78     -35677.8    2607.6387   -38285.438     78.90682      234.659 
   24500    135.87874   -703.42044    134537.39   -35704.079    2627.8263   -38331.905    78.928829    236.47567 
   24550    133.42452   -755.70936    134559.51   -35751.059    2580.3629   -38331.422    79.066405    232.20447 
   24600      134.037   -971.15601    134585.01   -35746.404     2592.208   -38338.612    79.326263    233.27041 
   24650     134.3055   -555.40425    134553.17   -35766.816    2597.4006   -38364.217    79.515728    233.73768 
   24700    136.67673   -642.11508    134610.05    -35696.08    2643.2589   -38339.339    79.819205    237.86443 
   24750    138.07998   -560.53932    134576.47   -35655.376    2670.3971   -38325.773    80.221484    240.30657 
   24800    139.61782   -796.78766     134496.9   -35620.699    2700.1382   -38320.837    80.467529    242.98294 
   24850    137.15184   -660.58448    134461.59   -35636.342    2652.4474   -38288.789    80.434778    238.69129 
   24900    140.15009    -376.9812    134560.94   -35635.982     2710.432   -38346.414    80.425205    243.90927 
   24950    138.24165   -290.57449    134683.17   -35625.471    2673.5239   -38298.995    80.290311    240.58794 
   25000    138.84079   -911.26252    134741.57   -35628.707    2685.1109   -38313.818    80.544916    241.63065 
   25050    138.28005   -762.55309    134749.45   -35703.983    2674.2665   -38378.249    80.493585    240.65477 
   25100    136.79738   -856.35217    134677.87   -35703.433    2645.5923   -38349.025    80.583661    238.07441 
   25150    139.53783   -795.66836    134665.53   -35689.202    2698.5912   -38387.793    80.841513    242.84373 
   25200    139.82339   -619.38499    134660.97   -35662.039    2704.1138   -38366.153    80.859922     243.3407 
   25250    139.83307   -638.87731    134648.87   -35675.198     2704.301   -38379.499    81.237833    243.35755 
   25300    136.63128   -670.75728       134679   -35676.829    2642.3799   -38319.209    81.867466    237.78533 
   25350    139.00342   -326.30935    134799.21   -35687.417    2688.2561   -38375.673    82.129359    241.91368 
   25400      137.129   -811.88936    134860.82   -35703.429    2652.0056   -38355.435     82.53419    238.65154 
   25450    140.12804   -637.88509    134924.07   -35691.508    2710.0056   -38401.514    82.573403     243.8709 
   25500    137.31658   -840.90309    134966.79   -35714.705    2655.6333   -38370.339    83.137807    238.97799 
   25550    138.49343   -631.57719    134957.72   -35700.267     2678.393   -38378.661    83.197488    241.02612 
   25600    139.60723   -693.55662    135006.05   -35656.895    2699.9334   -38356.829    83.463395    242.96452 
   25650     137.5918   -651.36432    135078.56   -35686.668     2660.956   -38347.624    83.576935    239.45697 
   25700    135.60876     -848.974    135040.48   -35733.281     2622.605   -38355.886    83.773343     236.0058 
   25750    139.03783   -838.62771    134979.53   -35699.362    2688.9215   -38388.283    83.689005    241.97356 
   25800    139.98193   -762.58884    134961.39   -35659.629    2707.1799   -38366.809    83.747165    243.61662 
   25850     140.1142   -726.61505    134960.84   -35663.904     2709.738   -38373.642    83.868869    243.84682 
   25900    136.47609   -864.30918    135004.86   -35685.443    2639.3787   -38324.822     83.97256    237.51525 
   25950    137.52453   -794.79433     135046.6   -35721.997    2659.6551   -38381.652    84.202287    239.33991 
   26000    135.98815   -864.17314    135044.74   -35727.679    2629.9423   -38357.622    84.427602    236.66608 
   26050    138.27279   -774.19136     134996.9   -35725.245     2674.126   -38399.371    84.666959    240.64213 
   26100    138.69016   -758.91446       134976   -35682.845    2682.1977   -38365.043    84.752445    241.36849 
   26150     140.1607   -813.21847    134973.52   -35677.033    2710.6372    -38387.67    84.991001    243.92774 
   26200    136.74725   -912.95108    134894.59   -35702.054    2644.6228   -38346.677    85.015378    237.98717 
   26250    137.58686   -823.55541    134793.43   -35693.704    2660.8605   -38354.565    85.196934    239.44838 
   26300    134.54443   -834.23116    134742.48   -35750.334    2602.0213   -38352.355    85.259734     234.1535 
   26350     135.6138   -505.68794    134660.69   -35761.905    2622.7025   -38384.607    85.233828    236.01458 
   26400    139.40546    -841.1431    134675.63   -35748.195    2696.0313   -38444.227    85.399399    242.61337 
   26450     134.2034   -763.48983    134646.04   -35741.689    2595.4261   -38337.115    85.659043       233.56 
   26500    135.47319   -733.68159    134674.13   -35714.317    2619.9832     -38334.3     85.64446    235.76987 
   26550    140.88075    -480.7886       134750    -35662.36    2724.5626   -38386.923    85.556735    245.18087 
   26600    138.48484   -729.82145     134845.5    -35687.38     2678.227   -38365.607    85.802144    241.01118 
   26650    137.38037   -572.11385     135003.6   -35664.826    2656.8671   -38321.693     86.06977    239.08901 
   26700    139.12849   -869.09536    135102.57   -35635.683    2690.6748   -38326.358    86.442991    242.13134 
   26750    139.25945   -803.15537    135150.28   -35661.915    2693.2076   -38355.123     86.69527    242.35926 
   26800     139.8502   -962.79968     135209.8   -35659.932    2704.6323   -38364.564    87.004156    243.38736 
   26850    137.86637   -827.38783    135256.57   -35703.317    2666.2661   -38369.583    87.147282    239.93483 
   26900    136.69935    -963.8311    135146.99   -35689.219    2643.6965   -38332.916    87.148141    237.90381 
   26950    140.58167   -918.25966    135177.06   -35636.377    2718.7786   -38355.156    87.207358    244.66038 
   27000    137.92913   -949.51836    135248.01   -35668.373    2667.4799   -38335.853    87.533199    240.04405 
   27050    137.23663   -769.74877    135238.44   -35670.388    2654.0872   -38324.475    87.880702    238.83885 
   27100    136.83179   -614.50388    135329.36   -35666.138    2646.2577   -38312.396    88.269248    238.13429 
   27150    139.93387    -899.5147    135316.14   -35698.574    2706.2504   -38404.824    88.673926    243.53298 
   27200    135.22169   -975.21005    135273.72   -35699.204    2615.1193   -38314.323    88.832595    235.33217 
   27250    138.64794   -810.33411     135233.5   -35621.996    2681.3812   -38303.377     88.96147    241.29502 
   27300    138.25992   -822.95688     135236.7   -35639.535    2673.8772   -38313.412    88.980209    240.61974 
   27350    138.90813   -792.97788    135294.19   -35690.332    2686.4131   -38376.745    89.014801    241.74783 
   27400    136.31868   -896.97177     135287.3   -35717.738    2636.3345   -38354.073    89.248534    237.24131 
   27450    133.40741   -912.05623    135253.07   -35727.444    2580.0319   -38307.476    89.485915    232.17469 
   27500    137.81705   -723.34377    135125.59   -35703.541    2665.3121   -38368.853    89.652419    239.84898 
   27550    138.64966    -676.4361    135096.25    -35744.79    2681.4145   -38426.205    89.755825    241.29802 
   27600    138.02657    -963.6569    135125.96   -35744.692    2669.3643   -38414.056    89.873241    240.21363 
   27650    136.29297   -660.31296       135106    -35728.21    2635.8373   -38364.047    89.892673    237.19657 
   27700    138.31028   -958.24574    135053.25   -35735.887    2674.8511   -38410.738    90.089974    240.70738 
   27750    139.26168   -826.02303    135091.47   -35727.961    2693.2506   -38421.212    90.470298    242.36313 
   27800    138.31092   -808.77603    135106.75   -35697.827    2674.8635    -38372.69    90.861883     240.7085 
   27850    136.93447   -659.40929    135103.39    -35697.46    2648.2436   -38345.703    90.784109      238.313 
   27900    139.24625   -577.59338    135117.07   -35697.672    2692.9522   -38390.624    90.707819    242.33628 
   27950    135.83911    -452.4535    135179.11   -35694.752    2627.0598   -38321.811    91.033934    236.40668 
   28000    136.24727    -510.0264    135173.33   -35763.854    2634.9535   -38398.808    91.198158    237.11703 
   28050    137.09442   -930.42138     135051.3   -35722.163    2651.3369     -38373.5    91.134918    238.59136 
   28100    139.57054   -665.46112    135008.87   -35759.259    2699.2238   -38458.483    91.430244    242.90066 
   28150    137.45739   -677.03464    135011.58   -35735.185    2658.3566   -38393.541    91.592043    239.22305 
   28200    138.02359   -555.63587     135055.6   -35731.201    2669.3066   -38400.508    91.715226    240.20843 
   28250    136.46411   -693.34927    135153.46   -35753.978    2639.1471   -38393.125    91.963363    237.49441 
   28300    138.50556   -604.43383    135266.62   -35697.523    2678.6276   -38376.151    92.011782    241.04723 
   28350    138.02539   -680.75645    135329.42   -35721.149    2669.3414    -38390.49    92.213399    240.21156 
   28400    136.39943   -578.01434    135362.94   -35724.301    2637.8962   -38362.197    92.319214    237.38184 
   28450    137.10216    -646.9185    135392.64   -35693.787    2651.4866   -38345.274    92.435383    238.60483 
   28500    138.44478   -666.83321    135466.31   -35648.356    2677.4521   -38325.808     92.54379    240.94145 
   28550    139.69073   -572.17677    135452.07   -35646.345    2701.5483   -38347.893    92.843384    243.10983 
   28600    138.60552   -841.43337    135438.08    -35679.71    2680.5608   -38360.271    93.053065    241.22119 
   28650    139.05768   -795.56639    135350.72   -35687.249    2689.3054   -38376.554    93.216279    242.00811 
   28700    138.83464   -575.69809    135312.24   -35701.971    2684.9918   -38386.963    93.536262    241.61993 
   28750    135.46019   -989.90265    135268.79   -35739.441    2619.7318   -38359.173    93.651236    235.74724 
   28800    136.53372    -651.9071    135225.59    -35711.05    2640.4932   -38351.543    93.677043    237.61555 
   28850    136.91805   -837.35768     135214.2   -35777.702     2647.926   -38425.628    93.946968    238.28442 
   28900    138.59498    -617.8019    135340.76   -35761.318    2680.3571   -38441.676    94.002003    241.20286 
   28950    136.07801   -622.66872    135381.18   -35744.175      2631.68   -38375.855    93.949626    236.82246 
   29000    138.11266   -686.36823    135409.74   -35748.981    2671.0292    -38420.01    94.022099    240.36345 
   29050    140.45097   -943.07417    135395.24   -35639.155     2716.251   -38355.406    94.120741    244.43292 
   29100    139.33989   -804.13678    135301.05   -35651.837    2694.7631     -38346.6    94.219067    242.49924 
   29150    142.06998   -698.78071    135257.46   -35678.419    2747.5617   -38425.981    94.421242    247.25054 
   29200    140.25695   -333.62703    135307.94   -35709.066    2712.4987   -38421.565    94.759468    244.09525 
   29250    137.57545   -994.70674    135259.57   -35718.396    2660.6398   -38379.035    94.747327    239.42852 
   29300    137.26398   -563.57944    135238.48   -35739.971    2654.6161   -38394.587    94.856913    238.88645 
   29350    140.51055   -641.52469    135218.54   -35747.826    2717.4032   -38465.229    94.928811    244.53661 
   29400    136.82475   -541.22639     135229.7   -35748.496    2646.1217   -38394.618    94.998756    238.12204 
   29450    137.02468   -658.42103    135253.22   -35789.464    2649.9882   -38439.453    95.253114    238.46999 
   29500    138.94816   -700.01112    135222.13    -35759.89    2687.1873   -38447.077    95.347394     241.8175 
   29550    137.38414   -660.03488    135194.44   -35758.417    2656.9399   -38415.357    95.618843    239.09557 
   29600    137.74202   -604.37447    135217.85    -35753.99    2663.8612   -38417.851    95.642219     239.7184 
   29650    140.05553   -476.27862    135282.44   -35781.843    2708.6033   -38490.446    95.603729    243.74471 
   29700    138.59375      -491.35    135280.77   -35734.322    2680.3333   -38414.655    95.705757    241.20072 
   29750    139.09023   -364.55121    135336.79    -35716.42    2689.9349   -38406.355     95.81605    242.06475 
   29800    137.61374   -477.00365     135362.7   -35701.198    2661.3802   -38362.578    95.844431    239.49515 
   29850     137.3728   -660.90951    135398.35   -35691.714    2656.7206   -38348.434    96.236124    239.07583 
   29900    138.10994   -883.35233    135378.44   -35697.517    2670.9766   -38368.493    96.290877    240.35872 
   29950    137.74373   -758.39607    135348.66   -35742.246    2663.8942    -38406.14    96.342106    239.72138 
   30000    139.53083   -850.36756    135285.63   -35730.956    2698.4559   -38429.412    96.238226    242.83156 
   30050    136.87879   -610.74955    135214.09   -35741.273    2647.1667   -38388.439     96.40652    238.21609 
   30100    137.92514   -660.51461    135173.28   -35755.389    2667.4027   -38422.792    96.439517     240.0371 
   30150     136.6192   -825.25401     135153.5   -35734.743    2642.1465    -38376.89    96.617465    237.76432 
   30200    137.35464   -818.98713    135047.76   -35768.004    2656.3694   -38424.373    96.539491    239.04423 
   30250    138.80659   -632.78796    134995.99   -35731.801    2684.4494   -38416.251    96.707378    241.57112 
   30300    139.40513   -571.64849    134975.95   -35679.388    2696.0249   -38375.413    96.634602    242.61279 
   30350    138.32369   -491.13106    135024.67   -35663.141    2675.1104   -38338.251    96.589212    240.73071 
   30400    137.71232   -574.27215     135188.3   -35667.035    2663.2868   -38330.322    96.661211    239.66672 
   30450    140.03382   -583.18959    135214.39   -35667.904    2708.1835   -38376.088    96.762952    243.70693 
   30500    137.57512   -797.08288    135183.23   -35657.867    2660.6333     -38318.5    97.099005    239.42794 
   30550     138.4269   -573.16334    135170.34   -35621.374    2677.1064    -38298.48    97.195586    240.91033 
   30600    137.41548   -678.62411    135231.37   -35645.833     2657.546   -38303.379    97.479433    239.15011 
   30650    139.42965   -465.02828    135299.36   -35607.055    2696.4991   -38303.554    97.783221    242.65546 
   30700     139.9276   -567.97339    135378.33   -35619.796    2706.1292   -38325.926     97.96805    243.52207 
   30750    138.82414   -646.01398    135343.43   -35612.332    2684.7889   -38297.121    98.093622    241.60167 
   30800    137.00766   -549.98224    135380.32   -35590.751    2649.6591    -38240.41    98.108197    238.44037 
   30850     142.2451    -838.4237    135244.37   -35607.339    2750.9485   -38358.287    98.233895    247.55532 
   30900     139.1274   -853.64311     135113.2   -35558.866    2690.6537    -38249.52    98.355474    242.12944 
   30950    139.60283   -793.46861    135100.23   -35520.503    2699.8482   -38220.351    98.386295    242.95685 
   31000    141.01475   -851.78485    135110.48   -35554.779    2727.1541   -38281.934    98.622045    245.41408 
   31050    140.85576   -990.20047    135071.21   -35561.801    2724.0794    -38285.88       98.791    245.13739 
   31100    138.12149   -823.17325    135033.51   -35639.053    2671.1999   -38310.253    98.926742    240.37881 
   31150    138.35989   -738.49683    134987.35   -35608.879    2675.8104   -38284.689    99.003434    240.79371 
   31200    136.90031   -754.50954    134971.46    -35611.17    2647.5829   -38258.753    99.201796    238.25354 
   31250    138.50572   -896.51743    134942.01   -35625.368    2678.6307   -38303.998    99.172191     241.0475 
   31300    137.06719    -976.7185    134917.22   -35653.304    2650.8103   -38304.115    99.371702    238.54397 
   31350    138.77574    -890.9093    134831.15   -35644.255    2683.8528   -38328.107    99.580856    241.51743 
   31400    137.79011   -875.74501    134862.15   -35647.881    2664.7912   -38312.673    99.798998     239.8021 
   31450    138.94331   -684.94875    134998.25   -35652.976    2687.0935   -38340.069    100.13526    241.80906 
   31500    138.90759   -699.02806    135010.53   -35648.794    2686.4028   -38335.197    100.07871     241.7469 
   31550    138.06651   -644.31317    135009.79   -35668.939    2670.1366   -38339.075    100.45285    240.28313 
   31600    136.04327   -506.05011    135034.22   -35702.999    2631.0083   -38334.007    100.55189      236.762 
   31650    137.37757   -434.33291    135098.13   -35701.754    2656.8129   -38358.567     100.8522    239.08414 
   31700    138.27482   -813.60064    135119.15   -35687.262    2674.1652   -38361.427    101.30942    240.64566 
   31750    135.66011   -826.20086    135183.18   -35685.369    2623.5981   -38308.967    101.45909    236.09517 
   31800    138.71017   -790.12813    135180.79   -35680.019    2682.5848   -38362.604    101.53532    241.40332 
   31850    135.92186   -781.91215    135287.09   -35702.186    2628.6602   -38330.846    101.68955    236.55071 
   31900    137.78812   -846.94873    135273.06   -35700.437    2664.7527    -38365.19    101.85041    239.79863 
   31950    138.43469   -699.26609    135204.57   -35713.111     2677.257   -38390.368    101.78589    240.92389 
   32000     136.0827   -993.75065    135133.58   -35757.741    2631.7709   -38389.512    101.77978    236.83063 
   32050    136.46842    -963.5582    135116.89   -35772.722    2639.2305   -38411.953    101.81607    237.50191 
   32100    136.02807   -714.79393    135101.32   -35748.804    2630.7143   -38379.518    102.03837    236.73555 
   32150    136.74476   -687.33004    135086.83   -35712.039    2644.5747   -38356.613    102.15742    237.98284 
   32200    135.44482   -610.15958    135014.91   -35742.344    2619.4344   -38361.778    102.50483    235.72049 
   32250    136.79102   -669.69724    135009.68   -35749.327    2645.4694   -38394.797    102.46547    238.06335 
   32300    135.07443   -632.49242    134957.47   -35759.606    2612.2714   -38371.877    102.64139    235.07589 
   32350    134.95767   -511.50698     134976.1   -35761.938    2610.0132   -38371.951    102.90069    234.87268 
   32400    134.64614   -752.32201    135040.79   -35760.706    2603.9884   -38364.694    103.26358    234.33051 
   32450    137.25491   -807.16652    135099.63   -35717.766    2654.4406   -38372.206    103.44512    238.87066 
   32500    140.02557   -839.26127    135125.41    -35670.39    2708.0239   -38378.414     103.5499    243.69257 
   32550    137.91258   -438.14117    135109.14   -35687.252    2667.1597   -38354.412    103.82553    240.01524 
   32600    138.62391   -573.61372    135111.92    -35719.38    2680.9165   -38400.296    104.28394     241.2532 
   32650    137.36834   -677.19229    135042.47   -35670.268    2656.6345   -38326.903    104.47191    239.06808 
   32700    135.59933   -841.39875    134985.78   -35671.198    2622.4226    -38293.62    104.56504    235.98939 
   32750     136.9241   -905.86576    134988.96   -35675.305    2648.0429   -38323.348    104.73366    238.29494 
   32800    138.42005   -790.16145    134874.25    -35714.68    2676.9739   -38391.654    104.93613    240.89841 
   32850    137.75432    -886.4887    134821.14   -35650.065     2664.099   -38314.164    105.01555    239.73981 
   32900    136.21897   -757.27647    134830.62   -35674.586    2634.4062   -38308.992    105.27141    237.06778 
   32950    137.11609    -908.5862    134829.75   -35653.698    2651.7561   -38305.454    105.35323    238.62908 
   33000    137.44701   -723.69473    134864.31   -35621.096    2658.1558   -38279.252    105.48544    239.20499 
   33050    139.90249   -615.89378    134857.18   -35602.174    2705.6435   -38307.818    105.85396    243.47836 
   33100     140.4052   -583.79012    134922.09   -35556.647    2715.3658   -38272.013    106.35698    244.35326 
   33150    138.19652   -722.40994    134892.74   -35654.431    2672.6509   -38327.081    106.35533    240.50939 
   33200    136.63277   -703.97968    134963.61   -35698.615    2642.4088   -38341.024    106.72586    237.78793 
   33250     140.2556   -524.82918    135036.62   -35669.649    2712.4726   -38382.121    107.12129     244.0929 
   33300    137.79786   -662.07947    135081.26   -35693.917    2664.9411   -38358.858    107.26646    239.81559 
   33350    136.40285    -862.6325    135100.66    -35672.83    2637.9623   -38310.792    107.50086    237.38779 
   33400    135.96077   -627.26213    135040.62   -35679.502    2629.4127   -38308.915    107.52409    236.61842 
   33450    140.22009   -842.73985    135062.79   -35657.334    2711.7857    -38369.12    107.66807    244.03109 
   33500    137.20043   -952.45732    134952.81   -35628.169    2653.3871   -38281.556    107.93588    238.77586 
   33550    141.29007    -687.3609    134894.37   -35583.688    2732.4788   -38316.167    108.20453    245.89324 
   33600    139.00935   -725.69101       134909     -35595.7    2688.3707   -38284.071    108.73186    241.92399 
   33650    141.77252   -521.53662    134925.23   -35608.379     2741.809   -38350.188    108.90817    246.73286 
   33700    138.75229   -590.63636    135069.53   -35568.823    2683.3994   -38252.223    109.11479    241.47663 
   33750    139.68384     -825.171    135063.22   -35582.101    2701.4149   -38283.516    109.31868    243.09784 
   33800    139.34462    -756.3007    135062.72   -35620.652    2694.8547   -38315.507    109.63764    242.50749 
   33850     138.4143   -937.00318    135072.31   -35612.773    2676.8627   -38289.636    109.81639     240.8884 
   33900    136.51301   -867.44593    134899.23   -35653.385    2640.0927   -38293.478    110.09615     237.5795 
   33950     139.1477   -736.84678    134908.34   -35654.197    2691.0463   -38345.244    109.79784    242.16477 
[...]
   92000    136.67038   -776.37045    135572.93   -35767.128    2643.1363   -38410.264      274.995    237.85339 
   92050    137.51643   -727.60821     135574.7   -35741.057    2659.4983   -38400.555    275.18999     239.3258 
   92100    135.75249   -1041.9147       135594   -35720.872    2625.3848   -38346.257    275.34131    236.25595 
   92150    134.82864   -814.11687    135574.12   -35788.689    2607.5179   -38396.207    275.60868    234.64812 
   92200     137.9136   -544.48345    135565.96   -35749.037    2667.1795   -38416.217    275.70978    240.01702 
   92250    137.66113   -866.93994    135614.31   -35819.076    2662.2968   -38481.373    275.92036    239.57763 
   92300    134.95103   -543.00288    135676.71    -35865.83    2609.8849   -38475.715    275.91946    234.86113 
   92350    134.30945   -447.27562    135775.27   -35866.023     2597.477     -38463.5    276.41885    233.74455 
   92400    134.51941   -606.72978    135784.47   -35835.379    2601.5375   -38436.917    276.26391    234.10996 
   92450    134.85216   -780.70678    135789.33    -35842.04    2607.9728   -38450.013    276.25617    234.68906 
   92500    136.01812   -738.41711    135807.97   -35825.801    2630.5218   -38456.323    276.36001    236.71823 
   92550    135.73049   -951.76198    135883.21    -35858.43    2624.9592    -38483.39    276.97064    236.21766 
   92600    136.02223   -976.03484    135825.61   -35816.941    2630.6014   -38447.542    276.84305    236.72539 
   92650    133.47834   -649.08355    135674.58    -35779.96    2581.4038   -38361.364    277.01774    232.29814 
   92700    137.35454   -774.53064    135640.82   -35794.268    2656.3675   -38450.636    277.00853    239.04405 
   92750    139.21678   -710.87592    135693.52   -35717.077    2692.3823    -38409.46    277.00937    242.28499 
   92800    137.50391   -861.97868    135658.48   -35743.341    2659.2563   -38402.597    277.23706    239.30402 
   92850    137.50682   -883.26388    135598.41   -35746.768    2659.3125   -38406.081    277.47476    239.30908 
   92900    134.81601   -886.44807    135559.26   -35743.309    2607.2737   -38350.583    277.19215    234.62615 
   92950    140.98258   -633.21245    135552.13   -35709.564    2726.5319   -38436.095    277.00156    245.35809 
   93000    136.31114   -965.49233    135485.76   -35739.585    2636.1887   -38375.774    277.27401    237.22818 
   93050    139.83133   -655.54399    135545.89    -35672.44    2704.2674   -38376.708     277.3812    243.35453 
   93100    136.73451   -819.69882     135595.5   -35713.677    2644.3764   -38358.054    277.50609    237.96499 
   93150     137.5196   -711.43062     135557.5   -35705.182    2659.5596   -38364.742    277.46482    239.33131 
   93200     137.1436   -686.67696    135471.38   -35741.287     2652.288   -38393.575    277.30732    238.67694 
   93250    141.31825   -757.97647    135481.04   -35691.287    2733.0236   -38424.311    277.32425    245.94227 
   93300    138.13197   -661.11522    135447.69   -35706.717    2671.4026    -38378.12    277.43288    240.39706 
   93350    136.38735   -548.16067    135449.61   -35730.428    2637.6626    -38368.09    277.62753    237.36082 
   93400    137.91754   -676.39713    135493.58   -35740.513    2667.2556   -38407.769    277.58304    240.02387 
   93450    138.55954   -595.17829    135450.35   -35712.244    2679.6717   -38391.915    277.88469    241.14118 
   93500    135.64015   -788.15545    135467.11   -35664.962    2623.2121   -38288.174    278.25649    236.06044 
   93550    138.07501   -712.92354    135492.19   -35680.113    2670.3011   -38350.414    277.68095    240.29793 
   93600    139.59919   -900.74105    135454.97    -35654.72     2699.778   -38354.498    277.89423    242.95053 
   93650    138.80576   -1025.5353    135334.59   -35669.844    2684.4334   -38354.277    278.45555    241.56968 
   93700    134.91612   -726.13456    135234.19   -35702.238    2609.2097   -38311.448    278.34455    234.80037 
   93750    136.49407   -747.45725    135245.67   -35740.657    2639.7265   -38380.384    278.15705    237.54655 
   93800    137.84751   -732.04837    135240.16   -35723.274    2665.9014   -38389.176    278.52129    239.90201 
   93850    134.19953   -803.72362    135233.16   -35745.724    2595.3511   -38341.075    278.52915    233.55325 
   93900    137.66483   -682.45135    135201.89   -35759.796    2662.3684   -38422.164    278.32075    239.58407 
   93950    136.63508   -458.43421    135211.94   -35746.724    2642.4535   -38389.177    278.54908    237.79195 
   94000    137.17028   -810.85333    135223.23   -35744.115    2652.8041   -38396.919    279.22095    238.72339 
   94050    138.56564   -873.22187     135206.5   -35776.509    2679.7896   -38456.298    279.62926    241.15179 
   94100    140.65866   -425.20088    135212.64   -35715.416    2720.2676   -38435.684     279.8307    244.79437 
   94150    141.13231   -618.16919    135304.22   -35711.819    2729.4278   -38441.247    279.92825    245.61868 
   94200    136.03401   -781.66411    135382.61   -35751.822    2630.8291   -38382.652    280.00782    236.74588 
   94250     138.3622   -696.77804    135402.68   -35765.776    2675.8551   -38441.631    280.23683    240.79773 
   94300    135.83257   -850.50589    135411.63   -35841.907    2626.9335    -38468.84    280.51134    236.39532 
   94350      136.134   -926.67246    135403.24   -35867.656    2632.7628   -38500.419    280.51459    236.91989 
   94400    133.99804   -688.32377    135433.58   -35897.599    2591.4546   -38489.053     280.4495     233.2026 
   94450    136.26135   -891.31426    135483.15   -35886.104    2635.2257   -38521.329     280.2148    237.14153 
   94500    138.44152   -758.24966    135516.77   -35843.189    2677.3891   -38520.578    280.76021    240.93578 
   94550    138.26741   -584.28911    135632.49   -35853.618     2674.022    -38527.64       281.09    240.63277 
   94600    135.78989   -863.71758    135667.74   -35863.383     2626.108   -38489.491    281.18905    236.32103 
   94650    136.59803   -569.98121    135670.47   -35871.844    2641.7371   -38513.581    281.38156    237.72748 
   94700    137.06636    -421.7961     135704.1   -35867.361    2650.7942   -38518.155    281.70092    238.54252 
   94750    134.99742   -330.91811    135850.64   -35856.859    2610.7821   -38467.642    282.21623    234.94187 
   94800    139.53254   -768.59803    135884.81   -35770.549    2698.4889   -38469.038    282.50402    242.83453 
   94850    135.08556    -813.4502    135812.14   -35716.472    2612.4866   -38328.959    282.77307    235.09525 
   94900    137.38984   -625.56889    135796.57   -35759.009    2657.0501   -38416.059     282.8928    239.10549 
   94950    138.80809   -657.59691     135773.9    -35750.67    2684.4785   -38435.148     282.6289    241.57374 
   95000    138.63111    -669.7709    135743.77   -35763.498    2681.0557   -38444.554    282.81753    241.26573 
   95050    135.65709   -907.93936    135791.21   -35741.086    2623.5398   -38364.626    283.08526    236.08992 
   95100    137.87624   -574.23357    135680.81   -35763.906    2666.4569   -38430.363    282.54959    239.95199 
   95150    136.61627   -744.25599    135714.97   -35813.356    2642.0898   -38455.446     283.2095    237.75922 
   95200    137.27037   -621.82572    135750.93   -35778.135    2654.7397   -38432.875    283.41503    238.89757 
   95250    138.94239   -717.75455    135730.34    -35744.39    2687.0757   -38431.466    283.62937    241.80746 
   95300    137.66747   -696.64182    135652.89   -35783.173    2662.4194   -38445.592     284.2088    239.58866 
   95350    137.40631   -771.86619    135542.96   -35799.474    2657.3687   -38456.843    284.20577    239.13416 
   95400     137.0499    -815.5379    135469.01   -35753.056    2650.4759   -38403.532    284.19093    238.51388 
   95450     136.9467   -367.10149    135432.75   -35728.963    2648.4802   -38377.443    283.85555    238.33428 
   95500    140.53296   -581.25278    135489.94   -35714.485    2717.8365   -38432.321    284.04125    244.57559 
   95550    138.53406   -579.89476    135492.76   -35743.911    2679.1788   -38423.089    284.20408    241.09682 
   95600    136.43279   -417.25279    135571.93    -35755.75    2638.5414   -38394.291    284.82124     237.4399 
   95650    136.05003   -575.00416    135695.81   -35764.433    2631.1389   -38395.572     284.8917    236.77376 
   95700    139.10844   -591.51131    135787.26   -35768.562    2690.2871   -38458.849    285.24461    242.09645 
   95750    138.24596   -573.09531    135802.51   -35751.776    2673.6072   -38425.384     285.3185    240.59544 
   95800    138.02515    -683.6245    135689.09   -35779.309    2669.3368   -38448.646    285.54876    240.21115 
   95850    137.44137   -737.92885    135600.49    -35782.46    2658.0468   -38440.506    285.08162    239.19518 
   95900    137.20599   -777.17046    135554.95   -35811.146    2653.4945   -38464.641    285.39756    238.78552 
   95950     138.3793   -716.15398    135531.39   -35782.424    2676.1859    -38458.61    285.74157     240.8275 
   96000    138.78042   -601.12888    135591.04   -35762.298    2683.9434   -38446.242    286.17738    241.52559 
   96050     136.8252   -623.30104    135697.72   -35801.371    2646.1303   -38447.502    286.25555    238.12282 
   96100    138.77705   -615.02821    135765.51   -35789.429    2683.8781   -38473.307    286.02439    241.51971 
   96150    135.83085   -856.52057    135794.06    -35788.64    2626.9001    -38415.54    286.49518    236.39231 
   96200    136.36448   -785.28476    135840.15   -35791.749    2637.2202    -38428.97    286.69787    237.32101 
   96250    136.48096   -862.95695    135898.57   -35795.653    2639.4729   -38435.126    286.69131    237.52372 
   96300    136.48971   -936.48385    135818.45   -35790.184    2639.6421   -38429.826     286.5951    237.53895 
   96350    135.82872   -685.33799    135748.51   -35765.398     2626.859   -38392.257    286.93391    236.38862 
   96400    135.37475   -707.51735    135714.77   -35819.886    2618.0794   -38437.966    286.76545    235.59855 
   96450    136.12517   -984.81739    135699.53   -35815.344    2632.5921   -38447.936    286.44878    236.90453 
   96500    136.00528    -625.9479    135644.79    -35818.83    2630.2736   -38449.103     286.5849    236.69589 
   96550    134.72977   -801.22227    135564.51   -35824.193    2605.6059   -38429.798    286.94173    234.47607 
   96600    134.77835   -610.57705    135505.96   -35810.045    2606.5452    -38416.59    287.20818     234.5606 
   96650    138.47029   -761.20354    135533.41   -35733.234    2677.9455   -38411.179    287.30255    240.98585 
   96700    139.78224   -569.06225    135519.43   -35769.625     2703.318   -38472.942    287.57075    243.26909 
   96750    137.05906   -693.22248    135510.66   -35797.629    2650.6531   -38448.282    287.57235    238.52983 
   96800    137.16183   -803.03438    135424.29   -35848.021    2652.6407   -38500.662    287.86814    238.70869 
   96850    134.63093   -550.67013    135440.92   -35821.186    2603.6942    -38424.88    287.42691    234.30404 
   96900    138.46047    -907.5662    135493.61    -35768.76    2677.7556   -38446.516    287.62305    240.96875 
   96950     136.9543    -975.6557    135478.13   -35749.071    2648.6271   -38397.698    287.55451    238.34751 
   97000    137.04283   -1192.1118    135376.02   -35765.008    2650.3392   -38415.347    288.17656    238.50158 
   97050    135.33536   -505.40825    135428.57   -35768.956    2617.3176   -38386.273    288.17741    235.52999 
   97100    140.94275   -700.95905    135468.23   -35760.274    2725.7618   -38486.035    288.17696    245.28878 
   97150     138.0622   -751.31585     135534.8   -35723.059    2670.0532   -38393.113    288.93228    240.27563 
   97200    140.86495   -787.05831    135588.23   -35668.332    2724.2571   -38392.589    289.28084    245.15338 
   97250    142.96813   -752.70712    135606.79   -35634.407    2764.9316   -38399.339    289.26331    248.81364 
   97300    138.69858    -1078.736    135552.54   -35678.536    2682.3607   -38360.897    288.67684    241.38316 
   97350     139.8041   -887.97657    135511.33   -35641.783    2703.7407   -38345.523    288.96379    243.30713 
   97400    141.16145   -1002.0213    135449.27   -35666.057    2729.9912   -38396.048    289.59078    245.66939 
   97450    143.32961   -734.98477    135392.89   -35626.307    2771.9223   -38398.229    289.59058    249.44273 
   97500    139.02652   -485.46104    135427.49   -35663.818    2688.7027    -38352.52    289.59706    241.95387 
   97550     140.7222   -703.32931    135515.19   -35654.539    2721.4964   -38376.036    289.55784    244.90495 
   97600    143.14363   -1024.9408    135500.62   -35603.339    2768.3256   -38371.665    289.65414    249.11906 
   97650    137.98995   -579.64225    135610.22   -35648.114    2668.6561    -38316.77    289.95026     240.1499 
   97700    141.31847   -676.65468    135651.26    -35648.93    2733.0279   -38381.958    290.36764    245.94265 
   97750    138.61168   -694.71054    135668.44   -35702.109    2680.6799   -38382.789    290.60715    241.23191 
   97800    140.94058   -794.67905    135708.07   -35714.095    2725.7197   -38439.814    291.21111      245.285 
   97850    138.07806   -896.10891    135697.05   -35706.696      2670.36   -38377.056    291.30066    240.30323 
   97900    137.83193   -675.23097     135678.9   -35680.219    2665.6001   -38345.819    291.29828    239.87489 
   97950    135.04542   -757.09757    135717.99   -35770.177    2611.7103   -38381.887    291.41134     235.0254 
   98000    137.13155   -866.81435    135687.59    -35810.98     2652.055   -38463.035    291.79948    238.65598 
   98050    133.55092   -910.80571    135632.53   -35837.362    2582.8075   -38420.169    292.03254    232.42446 
   98100    135.93681   -1025.8679    135587.16   -35795.417    2628.9494   -38424.366    292.01338    236.57673 
   98150    134.09751   -784.98144    135540.47   -35782.307    2593.3782   -38375.685    292.26056    233.37571 
   98200    135.79059   -665.78672    135567.81   -35794.922    2626.1216   -38421.043    291.55075    236.32225 
   98250    135.76767   -868.68979    135656.37   -35778.739    2625.6782   -38404.417     291.9894    236.28236 
   98300    141.88497   -672.69786    135593.27   -35707.398    2743.9837   -38451.382    292.23494    246.92856 
   98350    137.96346    -732.7846    135614.91   -35722.847    2668.1437    -38390.99    292.36548    240.10379 
   98400    135.83519   -869.27796    135588.74   -35726.502     2626.984   -38353.486    292.22602    236.39986 
   98450    135.66464   -834.76057    135612.62    -35745.44    2623.6856   -38369.126    292.31207    236.10305 
   98500    136.93075   -736.72893    135718.98   -35752.157    2648.1717   -38400.329    292.65249    238.30652 
   98550    136.55808   -948.55519    135699.28   -35733.497    2640.9643   -38374.462    292.34458    237.65794 
   98600    137.33607   -653.39091    135690.02   -35687.566    2656.0102   -38343.577    292.91958    239.01191 
   98650    140.46271    -578.6501    135696.58   -35663.583    2716.4779   -38380.061    293.40994    244.45334 
   98700    139.37061   -587.46933    135747.75   -35686.135    2695.3573   -38381.492    293.43918    242.55271 
   98750    137.36477   -788.36409    135664.41   -35645.712    2656.5653   -38302.278    293.72045    239.06186 
   98800    139.89441   -599.38336    135648.61   -35658.978    2705.4872   -38364.465    293.67616     243.4643 
   98850    140.24163   -860.99769    135661.09   -35675.619    2712.2023   -38387.821    293.84667    244.06858 
   98900    137.98318    -831.9634    135610.61   -35744.105    2668.5251   -38412.631    293.86665    240.13811 
   98950    136.60191   -858.75492    135531.81   -35731.395     2641.812   -38373.207    294.00044    237.73423 
   99000    140.20973   -855.81691    135493.81   -35692.218    2711.5854   -38403.804    293.66846    244.01306 
   99050    136.92104   -687.31891    135451.78   -35703.086    2647.9838    -38351.07    293.60084    238.28962 
   99100    138.74207   -524.71975    135541.72   -35696.198    2683.2017   -38379.399    293.96798    241.45884 
   99150    139.32239     -699.265    135595.94   -35666.184    2694.4247   -38360.608    294.33727    242.46879 
   99200    137.04412   -991.23113     135622.5   -35699.336    2650.3642     -38349.7    294.67728    238.50383 
   99250    136.92978   -1008.1146    135522.96   -35691.751    2648.1529   -38339.904    294.13886    238.30483 
   99300     135.6001   -618.69941    135454.63   -35671.285    2622.4375   -38293.722    294.50193    235.99073 
   99350    139.95877   -738.93534    135480.69   -35643.813     2706.732   -38350.545    294.66281    243.57631 
   99400     137.3106   -617.19011    135503.78   -35665.823    2655.5178   -38321.341    295.11688    238.96759 
   99450    137.58705   -897.73535    135509.33   -35652.177    2660.8642   -38313.041    295.64778    239.44871 
   99500    139.57037   -817.61852    135440.02   -35673.272    2699.2205   -38372.492    295.55636    242.90036 
   99550    137.87252   -816.63121    135407.87   -35711.401    2666.3849   -38377.786    295.82497    239.94552 
   99600    138.94545   -734.19949    135460.62   -35669.884     2687.135   -38357.019    296.48828    241.81279 
   99650     138.5148   -830.46465    135397.44   -35678.379    2678.8063   -38357.185    296.45616    241.06331 
   99700    137.65684   -975.71747    135347.71   -35667.541    2662.2139   -38329.755    296.39979    239.57017 
   99750    139.93807   -698.88167    135342.25   -35646.411    2706.3316   -38352.743     296.3723    243.54028 
   99800    135.48765   -846.63383    135389.66   -35628.933    2620.2628   -38249.196    295.89884    235.79503 
   99850    138.05486   -903.63246    135364.34   -35617.005    2669.9113   -38286.917    296.04498    240.26286 
   99900     137.3075   -888.31649    135385.87   -35591.165    2655.4578   -38246.623    296.36557     238.9622 
   99950    138.86665   -826.49582    135356.88   -35532.183     2685.611   -38217.794    296.63689    241.67566 
  100000    141.47864   -724.05384    135284.06   -35520.241    2736.1255   -38256.367     297.2141     246.2214 
Loop time of 50.5794 on 128 procs for 100000 steps with 6489 atoms

Performance: 854.102 ns/day, 0.028 hours/ns, 1977.088 timesteps/s
96.6% CPU use with 128 MPI tasks x no OpenMP threads

MPI task timing breakdown:
Section |  min time  |  avg time  |  max time  |%varavg| %total
---------------------------------------------------------------
Pair    | 5.4792     | 12.915     | 34.262     | 302.1 | 25.53
Neigh   | 0.44783    | 0.95227    | 2.8937     |  81.2 |  1.88
Comm    | 5.7419     | 14.808     | 37.907     | 303.8 | 29.28
Output  | 0.16884    | 0.17152    | 0.18266    |   0.4 |  0.34
Modify  | 3.7448     | 20.966     | 36.901     | 335.2 | 41.45
Other   |            | 0.7672     |            |       |  1.52

Nlocal:    50.6953 ave 137 max 28 min
Histogram: 94 2 0 5 11 0 0 0 3 13
Nghost:    571.836 ave 964 max 380 min
Histogram: 64 0 0 32 0 0 0 0 14 18
Neighs:    0 ave 0 max 0 min
Histogram: 128 0 0 0 0 0 0 0 0 0
FullNghs:  4066.8 ave 17128 max 1061 min
Histogram: 96 0 0 2 14 0 0 0 2 14

Total # of neighbors = 520550
Ave neighs/atom = 80.2204
Neighbor list builds = 6001
Dangerous builds = 0

write_data		${DIR}/data.eq-${NAME}-${TEMP}
write_data		run_11/data.eq-${NAME}-${TEMP}
write_data		run_11/data.eq-het_freeze_11-${TEMP}
write_data		run_11/data.eq-het_freeze_11-240
undump          1

reset_timestep  0

unfix           2
unfix           3
unfix           4


################################################
#######         Run Simulation         #########
################################################

log				${DIR}/log.run_${NAME}
log				run_11/log.run_${NAME}
log				run_11/log.run_het_freeze_11
