LAMMPS data file via write_data, version 16 Mar 2018, timestep = 8000000

4063 atoms
2 atom types

0.0000000000000000e+00 4.9219999999999999e+01 xlo xhi
0.0000000000000000e+00 4.9019635930410494e+01 ylo yhi
1.1481312498698095e+00 2.6791868750133073e+01 zlo zhi

Masses

1 18.015
2 12.01

Atoms # atomic

53 2 0.0000000000000000e+00 2.8417180249513345e+00 2.7476066137228718e+00 0 0 0
55 2 0.0000000000000000e+00 0.0000000000000000e+00 2.7476066137228718e+00 0 0 0
57 2 1.2305000000000001e+00 7.1042950623783474e-01 2.7476066137228718e+00 0 0 0
64 2 1.2305000000000001e+00 2.1312885187134998e+00 2.7476066137228718e+00 0 0 0
66 2 2.4610000000000003e+00 2.8417180249513345e+00 2.7476066137228718e+00 0 0 0
68 2 2.4610000000000003e+00 0.0000000000000000e+00 2.7476066137228718e+00 0 0 0
70 2 3.6915000000000004e+00 7.1042950623783474e-01 2.7476066137228718e+00 0 0 0
85 2 3.6914999999999996e+00 2.1312885187134998e+00 2.7476066137228718e+00 0 0 0
87 2 4.9220000000000006e+00 2.8417180249513332e+00 2.7476066137228718e+00 0 0 0
89 2 4.9220000000000006e+00 0.0000000000000000e+00 2.7476066137228718e+00 0 0 0
60 2 0.0000000000000000e+00 4.2625770374269996e+00 2.7476066137228718e+00 0 0 0
81 2 2.4610000000000003e+00 4.2625770374269996e+00 2.7476066137228718e+00 0 0 0
110 2 4.9220000000000006e+00 4.2625770374269978e+00 2.7476066137228718e+00 0 0 0
62 2 1.2305000000000001e+00 4.9730065436648339e+00 2.7476066137228718e+00 0 0 0
77 2 1.2305000000000001e+00 6.3938655561404980e+00 2.7476066137228718e+00 0 0 0
83 2 3.6914999999999996e+00 4.9730065436648339e+00 2.7476066137228718e+00 0 0 0
106 2 3.6914999999999996e+00 6.3938655561404980e+00 2.7476066137228718e+00 0 0 0
58 2 0.0000000000000000e+00 7.1042950623783341e+00 2.7476066137228718e+00 0 0 0
73 2 0.0000000000000000e+00 8.5251540748539991e+00 2.7476066137228718e+00 0 0 0
75 2 1.2305000000000001e+00 9.2355835810918343e+00 2.7476066137228718e+00 0 0 0
79 2 2.4610000000000003e+00 7.1042950623783341e+00 2.7476066137228718e+00 0 0 0
102 2 2.4610000000000003e+00 8.5251540748539991e+00 2.7476066137228718e+00 0 0 0
104 2 3.6915000000000004e+00 9.2355835810918343e+00 2.7476066137228718e+00 0 0 0
108 2 4.9220000000000006e+00 7.1042950623783341e+00 2.7476066137228718e+00 0 0 0
139 2 4.9220000000000006e+00 8.5251540748539991e+00 2.7476066137228718e+00 0 0 0
54 2 0.0000000000000000e+00 1.4208590124756650e+00 5.8095042316810419e+00 0 0 0
56 2 0.0000000000000000e+00 0.0000000000000000e+00 5.8095042316810419e+00 0 0 0
65 2 1.2305000000000001e+00 2.1312885187134998e+00 5.8095042316810419e+00 0 0 0
67 2 2.4610000000000003e+00 1.4208590124756650e+00 5.8095042316810419e+00 0 0 0
69 2 2.4610000000000003e+00 0.0000000000000000e+00 5.8095042316810419e+00 0 0 0
86 2 3.6914999999999996e+00 2.1312885187134998e+00 5.8095042316810419e+00 0 0 0
382 2 0.0000000000000000e+00 2.8417180249513345e+00 8.8714018496458884e+00 0 0 0
383 2 0.0000000000000000e+00 0.0000000000000000e+00 8.8714018496458884e+00 0 0 0
384 2 1.2305000000000001e+00 7.1042950623783474e-01 8.8714018496458884e+00 0 0 0
388 2 1.2305000000000001e+00 2.1312885187134998e+00 8.8714018496458884e+00 0 0 0
389 2 2.4610000000000003e+00 2.8417180249513345e+00 8.8714018496458884e+00 0 0 0
390 2 2.4610000000000003e+00 0.0000000000000000e+00 8.8714018496458884e+00 0 0 0
391 2 3.6915000000000004e+00 7.1042950623783474e-01 8.8714018496458884e+00 0 0 0
399 2 3.6914999999999996e+00 2.1312885187134998e+00 8.8714018496458884e+00 0 0 0
88 2 4.9220000000000006e+00 1.4208590124756650e+00 5.8095042316810419e+00 0 0 0
90 2 4.9220000000000006e+00 0.0000000000000000e+00 5.8095042316810419e+00 0 0 0
400 2 4.9220000000000006e+00 2.8417180249513332e+00 8.8714018496458884e+00 0 0 0
401 2 4.9220000000000006e+00 0.0000000000000000e+00 8.8714018496458884e+00 0 0 0
61 2 0.0000000000000000e+00 4.2625770374269996e+00 5.8095042316810419e+00 0 0 0
63 2 1.2305000000000001e+00 3.5521475311891644e+00 5.8095042316810419e+00 0 0 0
82 2 2.4610000000000003e+00 4.2625770374269996e+00 5.8095042316810419e+00 0 0 0
84 2 3.6914999999999996e+00 3.5521475311891644e+00 5.8095042316810419e+00 0 0 0
386 2 0.0000000000000000e+00 4.2625770374269996e+00 8.8714018496458884e+00 0 0 0
397 2 2.4610000000000003e+00 4.2625770374269996e+00 8.8714018496458884e+00 0 0 0
111 2 4.9220000000000006e+00 4.2625770374269978e+00 5.8095042316810419e+00 0 0 0
412 2 4.9220000000000006e+00 4.2625770374269978e+00 8.8714018496458884e+00 0 0 0
59 2 0.0000000000000000e+00 5.6834360499026637e+00 5.8095042316810419e+00 0 0 0
78 2 1.2305000000000001e+00 6.3938655561404980e+00 5.8095042316810419e+00 0 0 0
80 2 2.4610000000000003e+00 5.6834360499026637e+00 5.8095042316810419e+00 0 0 0
107 2 3.6914999999999996e+00 6.3938655561404980e+00 5.8095042316810419e+00 0 0 0
387 2 1.2305000000000001e+00 4.9730065436648339e+00 8.8714018496458884e+00 0 0 0
395 2 1.2305000000000001e+00 6.3938655561404980e+00 8.8714018496458884e+00 0 0 0
398 2 3.6914999999999996e+00 4.9730065436648339e+00 8.8714018496458884e+00 0 0 0
410 2 3.6914999999999996e+00 6.3938655561404980e+00 8.8714018496458884e+00 0 0 0
109 2 4.9220000000000006e+00 5.6834360499026637e+00 5.8095042316810419e+00 0 0 0
74 2 0.0000000000000000e+00 8.5251540748539991e+00 5.8095042316810419e+00 0 0 0
76 2 1.2305000000000001e+00 7.8147245686161639e+00 5.8095042316810419e+00 0 0 0
103 2 2.4610000000000003e+00 8.5251540748539991e+00 5.8095042316810419e+00 0 0 0
105 2 3.6914999999999996e+00 7.8147245686161639e+00 5.8095042316810419e+00 0 0 0
385 2 0.0000000000000000e+00 7.1042950623783341e+00 8.8714018496458884e+00 0 0 0
393 2 0.0000000000000000e+00 8.5251540748539991e+00 8.8714018496458884e+00 0 0 0
394 2 1.2305000000000001e+00 9.2355835810918343e+00 8.8714018496458884e+00 0 0 0
396 2 2.4610000000000003e+00 7.1042950623783341e+00 8.8714018496458884e+00 0 0 0
408 2 2.4610000000000003e+00 8.5251540748539991e+00 8.8714018496458884e+00 0 0 0
409 2 3.6915000000000004e+00 9.2355835810918343e+00 8.8714018496458884e+00 0 0 0
140 2 4.9220000000000006e+00 8.5251540748539991e+00 5.8095042316810419e+00 0 0 0
411 2 4.9220000000000006e+00 7.1042950623783341e+00 8.8714018496458884e+00 0 0 0
427 2 4.9220000000000006e+00 8.5251540748539991e+00 8.8714018496458884e+00 0 0 0
3943 1 1.3841921703154367e+00 2.7400266376700793e+00 1.1373602258150035e+01 -1 -1 0
3412 1 3.7682887655766217e+00 1.4109651914019725e+00 1.1873978368134754e+01 -2 -1 1
2718 1 6.0002223519768991e+00 2.9532784130127547e+00 1.1633548827631088e+01 2 -4 -1
2696 1 3.4672759779519766e+00 6.5750814555216834e+00 1.2033586954134396e+01 0 -1 -1
1996 1 1.1244244607358700e+00 5.3736184245622214e+00 1.1987726403748388e+01 -3 -3 -1
3940 1 3.3851938536203736e+00 9.1937451575829243e+00 1.1679852455181368e+01 -2 2 0
2780 1 5.9881763573499480e+00 5.5928714925101080e+00 1.2037033220849311e+01 2 0 0
1247 1 1.4181118512581947e+00 2.3859058765375289e+00 1.5474374346003595e+01 -1 2 0
1932 1 3.8871622938476285e+00 1.6112489383685977e+00 1.4501630081002114e+01 2 -2 -1
2661 1 1.3029624901884787e+00 2.3883905633484153e+00 1.8230120553735681e+01 -3 3 -1
632 1 3.4514475883754017e+00 6.6294139065562394e+00 1.4991640184165441e+01 5 4 0
1964 1 1.1785378844847840e+00 5.1103346127756577e+00 1.4873289253651100e+01 0 0 -1
46 1 3.2818679601877214e+00 9.3716707303058477e+00 1.4565745790086618e+01 -1 2 -1
3348 1 3.6900783303182112e+00 6.5095027686887121e+00 1.7830099390699910e+01 -2 3 -1
22 1 4.0196802535670715e+00 1.4737875456907445e+00 1.8674452320251504e+01 1 2 0
1966 1 3.6466119769440266e+00 1.4597955223516186e+00 2.1447524153704318e+01 0 2 -1
2660 1 3.5019144179157888e+00 4.1426696497830751e+00 2.2349808512073047e+01 0 3 0
750 1 3.5359404842688371e+00 9.4481463214615466e+00 1.8749511528939852e+01 -2 -1 0
660 1 1.3860695860059795e+00 5.2649184663491440e+00 1.8770338666339129e+01 -1 -3 0
1287 1 1.0019954014889596e+00 5.2589863381326110e+00 2.1441748320378419e+01 -2 -1 0
1967 1 3.5663437856122098e+00 9.4106574632522193e+00 2.1428941993125800e+01 -1 5 -1
1907 1 6.0189200777173912e+00 5.5910140489306555e+00 2.1729949328028148e+01 2 1 0
577 1 1.2859583894622144e+00 8.0924111042008331e+00 2.1976057360269373e+01 3 -1 0
1390 1 3.8324052644110669e+00 1.4606293611349259e+00 2.6053478532012580e+01 0 1 1
1346 1 3.4692201835212728e+00 4.1383837824270389e+00 2.5032397510851819e+01 1 -1 -1
2089 1 1.4591721197786660e+00 5.3455528506033828e-02 2.5127393187806440e+01 2 0 0
3918 1 5.8761514940443940e+00 8.2293421066155279e+00 2.2805536299600174e+01 1 4 -1
3316 1 1.1332141631609072e+00 5.5210824661805766e+00 2.5819523128652744e+01 -2 3 0
2082 1 5.8297172624277431e+00 8.2148172332031368e+00 2.5447819819393761e+01 4 1 0
3905 1 3.4340575044309407e+00 9.3943210364329914e+00 2.6159556325375210e+01 1 -1 -1
3893 1 1.3606067713198553e+00 8.1114784336228443e+00 2.5017272929575075e+01 0 -1 0
24 1 5.8321935496683279e+00 5.3718831954379826e+00 2.5878393610198746e+01 -1 3 1
71 2 0.0000000000000000e+00 1.1366872099805333e+01 2.7476066137228718e+00 0 0 0
94 2 0.0000000000000000e+00 1.2787731112280996e+01 2.7476066137228718e+00 0 0 0
96 2 1.2305000000000001e+00 1.3498160618518829e+01 2.7476066137228718e+00 0 0 0
98 2 1.2305000000000001e+00 1.0656442593567498e+01 2.7476066137228718e+00 0 0 0
100 2 2.4610000000000003e+00 1.1366872099805333e+01 2.7476066137228718e+00 0 0 0
131 2 2.4610000000000003e+00 1.2787731112280996e+01 2.7476066137228718e+00 0 0 0
133 2 3.6915000000000004e+00 1.3498160618518829e+01 2.7476066137228718e+00 0 0 0
135 2 3.6914999999999996e+00 1.0656442593567499e+01 2.7476066137228718e+00 0 0 0
137 2 4.9220000000000006e+00 1.1366872099805333e+01 2.7476066137228718e+00 0 0 0
176 2 4.9220000000000006e+00 1.2787731112280996e+01 2.7476066137228718e+00 0 0 0
178 2 6.1524999999999990e+00 1.3498160618518829e+01 2.7476066137228718e+00 0 0 0
92 2 0.0000000000000000e+00 1.5629449137232333e+01 2.7476066137228718e+00 0 0 0
123 2 0.0000000000000000e+00 1.7050308149707998e+01 2.7476066137228718e+00 0 0 0
127 2 1.2305000000000001e+00 1.4919019630994494e+01 2.7476066137228718e+00 0 0 0
129 2 2.4610000000000003e+00 1.5629449137232328e+01 2.7476066137228718e+00 0 0 0
168 2 2.4610000000000003e+00 1.7050308149707998e+01 2.7476066137228718e+00 0 0 0
172 2 3.6915000000000004e+00 1.4919019630994494e+01 2.7476066137228718e+00 0 0 0
174 2 4.9220000000000006e+00 1.5629449137232333e+01 2.7476066137228718e+00 0 0 0
215 2 4.9220000000000006e+00 1.7050308149707998e+01 2.7476066137228718e+00 0 0 0
219 2 6.1524999999999990e+00 1.4919019630994494e+01 2.7476066137228718e+00 0 0 0
125 2 1.2305000000000001e+00 1.7760737655945832e+01 2.7476066137228718e+00 0 0 0
164 2 1.2305000000000001e+00 1.9181596668421495e+01 2.7476066137228718e+00 0 0 0
170 2 3.6914999999999996e+00 1.7760737655945832e+01 2.7476066137228718e+00 0 0 0
211 2 3.6914999999999996e+00 1.9181596668421495e+01 2.7476066137228718e+00 0 0 0
72 2 0.0000000000000000e+00 9.9460130873296642e+00 5.8095042316810419e+00 0 0 0
101 2 2.4610000000000003e+00 9.9460130873296642e+00 5.8095042316810419e+00 0 0 0
138 2 4.9220000000000006e+00 9.9460130873296642e+00 5.8095042316810419e+00 0 0 0
95 2 0.0000000000000000e+00 1.2787731112280996e+01 5.8095042316810419e+00 0 0 0
97 2 1.2305000000000001e+00 1.2077301606043163e+01 5.8095042316810419e+00 0 0 0
99 2 1.2305000000000001e+00 1.0656442593567498e+01 5.8095042316810419e+00 0 0 0
132 2 2.4610000000000003e+00 1.2787731112280996e+01 5.8095042316810419e+00 0 0 0
134 2 3.6914999999999996e+00 1.2077301606043163e+01 5.8095042316810419e+00 0 0 0
136 2 3.6914999999999996e+00 1.0656442593567499e+01 5.8095042316810419e+00 0 0 0
392 2 0.0000000000000000e+00 1.1366872099805333e+01 8.8714018496458884e+00 0 0 0
404 2 0.0000000000000000e+00 1.2787731112280996e+01 8.8714018496458884e+00 0 0 0
405 2 1.2305000000000001e+00 1.3498160618518829e+01 8.8714018496458884e+00 0 0 0
406 2 1.2305000000000001e+00 1.0656442593567498e+01 8.8714018496458884e+00 0 0 0
407 2 2.4610000000000003e+00 1.1366872099805333e+01 8.8714018496458884e+00 0 0 0
423 2 2.4610000000000003e+00 1.2787731112280996e+01 8.8714018496458884e+00 0 0 0
424 2 3.6915000000000004e+00 1.3498160618518829e+01 8.8714018496458884e+00 0 0 0
425 2 3.6914999999999996e+00 1.0656442593567499e+01 8.8714018496458884e+00 0 0 0
177 2 4.9220000000000006e+00 1.2787731112280996e+01 5.8095042316810419e+00 0 0 0
426 2 4.9220000000000006e+00 1.1366872099805333e+01 8.8714018496458884e+00 0 0 0
446 2 4.9220000000000006e+00 1.2787731112280996e+01 8.8714018496458884e+00 0 0 0
447 2 6.1524999999999990e+00 1.3498160618518829e+01 8.8714018496458884e+00 0 0 0
93 2 0.0000000000000000e+00 1.4208590124756663e+01 5.8095042316810419e+00 0 0 0
130 2 2.4610000000000003e+00 1.4208590124756663e+01 5.8095042316810419e+00 0 0 0
175 2 4.9220000000000006e+00 1.4208590124756663e+01 5.8095042316810419e+00 0 0 0
124 2 0.0000000000000000e+00 1.7050308149707998e+01 5.8095042316810419e+00 0 0 0
126 2 1.2305000000000001e+00 1.6339878643470165e+01 5.8095042316810419e+00 0 0 0
128 2 1.2305000000000001e+00 1.4919019630994494e+01 5.8095042316810419e+00 0 0 0
169 2 2.4610000000000003e+00 1.7050308149707998e+01 5.8095042316810419e+00 0 0 0
171 2 3.6915000000000004e+00 1.6339878643470165e+01 5.8095042316810419e+00 0 0 0
173 2 3.6915000000000004e+00 1.4919019630994494e+01 5.8095042316810419e+00 0 0 0
403 2 0.0000000000000000e+00 1.5629449137232333e+01 8.8714018496458884e+00 0 0 0
419 2 0.0000000000000000e+00 1.7050308149707998e+01 8.8714018496458884e+00 0 0 0
421 2 1.2305000000000001e+00 1.4919019630994494e+01 8.8714018496458884e+00 0 0 0
422 2 2.4610000000000003e+00 1.5629449137232328e+01 8.8714018496458884e+00 0 0 0
442 2 2.4610000000000003e+00 1.7050308149707998e+01 8.8714018496458884e+00 0 0 0
444 2 3.6915000000000004e+00 1.4919019630994494e+01 8.8714018496458884e+00 0 0 0
216 2 4.9220000000000006e+00 1.7050308149707998e+01 5.8095042316810419e+00 0 0 0
220 2 6.1524999999999990e+00 1.4919019630994494e+01 5.8095042316810419e+00 0 0 0
445 2 4.9220000000000006e+00 1.5629449137232333e+01 8.8714018496458884e+00 0 0 0
466 2 4.9220000000000006e+00 1.7050308149707998e+01 8.8714018496458884e+00 0 0 0
468 2 6.1524999999999990e+00 1.4919019630994494e+01 8.8714018496458884e+00 0 0 0
122 2 0.0000000000000000e+00 1.8471167162183658e+01 5.8095042316810419e+00 0 0 0
165 2 1.2305000000000001e+00 1.9181596668421495e+01 5.8095042316810419e+00 0 0 0
167 2 2.4610000000000003e+00 1.8471167162183658e+01 5.8095042316810419e+00 0 0 0
212 2 3.6914999999999996e+00 1.9181596668421495e+01 5.8095042316810419e+00 0 0 0
420 2 1.2305000000000001e+00 1.7760737655945832e+01 8.8714018496458884e+00 0 0 0
440 2 1.2305000000000001e+00 1.9181596668421495e+01 8.8714018496458884e+00 0 0 0
443 2 3.6914999999999996e+00 1.7760737655945832e+01 8.8714018496458884e+00 0 0 0
464 2 3.6914999999999996e+00 1.9181596668421495e+01 8.8714018496458884e+00 0 0 0
214 2 4.9220000000000006e+00 1.8471167162183658e+01 5.8095042316810419e+00 0 0 0
4048 1 5.6221406353047003e+00 1.3180406815083421e+01 1.1972447605869329e+01 1 1 -1
1984 1 1.1160738602990605e+00 1.0459117131348270e+01 1.1207876603940694e+01 1 -2 -1
3367 1 6.4538741451675874e-01 1.3066485048382580e+01 1.1831624056745973e+01 0 2 0
1335 1 5.6861443157362235e+00 1.0477335616496847e+01 1.1217560963522864e+01 1 0 -1
3259 1 3.1824592414556365e+00 1.4424748396752680e+01 1.1120865024742100e+01 -2 1 0
2102 1 5.3139620817711259e+00 1.8170384276641848e+01 1.1255293543674910e+01 2 -1 1
1442 1 2.8154263164282787e+00 1.7166512034721258e+01 1.1717160842432298e+01 -3 4 0
2112 1 4.4777065898576268e-01 1.8882423523392792e+01 1.1750413387062347e+01 -2 -2 0
565 1 8.0189628493166953e-01 1.0461689785320957e+01 1.5298891782064697e+01 1 1 -1
734 1 3.3917784718176569e+00 1.4593175505878779e+01 1.5540910918184558e+01 1 2 1
1952 1 5.5744004923226669e+00 1.3167360991521116e+01 1.4612924313570007e+01 -1 -1 0
1273 1 5.6908753965887442e+00 1.0591904602745922e+01 1.5478041893186216e+01 2 2 1
3294 1 9.8749387960768431e-01 1.3038558451735932e+01 1.4602959064498432e+01 2 2 -1
580 1 1.2692981332830353e+00 1.0850170076259003e+01 1.8064269123300544e+01 -1 2 -1
709 1 5.4205513082719277e+00 1.8298417718255521e+01 1.5341220468739738e+01 0 3 -1
1237 1 5.4165812897621857e+00 1.8215116052309718e+01 1.7898432927530550e+01 -2 -3 0
592 1 2.9047548081970760e+00 1.7219755869340556e+01 1.4532033596033498e+01 0 0 -1
658 1 4.1047678698871587e-01 1.8437006873238847e+01 1.4598247494187683e+01 2 -3 0
1417 1 6.0375034721734302e+00 1.0640346795103232e+01 1.8275957638721941e+01 -1 -1 0
1372 1 3.0011614502529222e+00 1.4504924122268800e+01 1.8275348843178289e+01 -2 4 0
553 1 5.6830555075378157e+00 1.3036242451593965e+01 2.1750438335421258e+01 1 -2 0
2726 1 5.4901997185023221e+00 1.3358491276207669e+01 1.8828968672591181e+01 2 -2 0
2623 1 5.2058578854115389e-01 1.3369064749757182e+01 1.9197474485989417e+01 3 0 0
2744 1 7.6326847042375900e-01 1.3093600777947104e+01 2.1824026373834407e+01 -3 -2 0
2040 1 5.4510912254554067e-01 1.8403712671490794e+01 1.8789909030361652e+01 0 -1 0
3281 1 3.1513339723680400e+00 1.7122368240566431e+01 1.9151856425096394e+01 3 1 0
585 1 3.3341394111326590e+00 1.6537300212122055e+01 2.1793018594813102e+01 0 -3 -1
1904 1 6.2659980003623472e-01 1.8863291055388096e+01 2.1416664717323375e+01 0 -5 0
3276 1 3.3736211447103908e+00 1.1855088404635579e+01 2.2640647647768930e+01 4 1 0
2722 1 9.8017522667009715e-01 1.3225429964317954e+01 2.5864648076295079e+01 3 2 0
2000 1 3.6733735101884650e+00 1.2086454806522976e+01 2.5262173237453219e+01 3 0 0
1328 1 6.0373081665606714e+00 1.3496056360600296e+01 2.6098274647279105e+01 0 3 0
2674 1 7.8365252026222110e-01 1.5990248568438258e+01 2.5432430285150911e+01 2 -1 0
3925 1 3.2311557909402047e+00 1.7283899785686167e+01 2.5994166438732361e+01 -1 2 -1
2628 1 7.1592025558941008e-01 1.5946593555983283e+01 2.2734893823738105e+01 -5 -2 0
3331 1 3.1975743836712609e+00 1.8999636080080151e+01 2.2992577373555683e+01 -2 -1 0
3264 1 5.6568482794882682e+00 1.5898727210825886e+01 2.5373765993779571e+01 2 -2 0
121 2 0.0000000000000000e+00 1.9892026174659328e+01 2.7476066137228718e+00 0 0 0
166 2 2.4610000000000003e+00 1.9892026174659328e+01 2.7476066137228718e+00 0 0 0
213 2 4.9220000000000006e+00 1.9892026174659328e+01 2.7476066137228718e+00 0 0 0
158 2 0.0000000000000000e+00 2.4154603212086325e+01 2.7476066137228718e+00 0 0 0
160 2 0.0000000000000000e+00 2.1312885187134999e+01 2.7476066137228718e+00 0 0 0
162 2 1.2304999999999993e+00 2.2023314693372832e+01 2.7476066137228718e+00 0 0 0
203 2 1.2304999999999993e+00 2.3444173705848499e+01 2.7476066137228718e+00 0 0 0
205 2 2.4610000000000003e+00 2.4154603212086325e+01 2.7476066137228718e+00 0 0 0
207 2 2.4610000000000003e+00 2.1312885187134995e+01 2.7476066137228718e+00 0 0 0
209 2 3.6914999999999996e+00 2.2023314693372832e+01 2.7476066137228718e+00 0 0 0
250 2 3.6915000000000004e+00 2.3444173705848499e+01 2.7476066137228718e+00 0 0 0
252 2 4.9220000000000006e+00 2.4154603212086325e+01 2.7476066137228718e+00 0 0 0
254 2 4.9220000000000006e+00 2.1312885187134995e+01 2.7476066137228718e+00 0 0 0
256 2 6.1524999999999990e+00 2.2023314693372832e+01 2.7476066137228718e+00 0 0 0
777 2 0.0000000000000000e+00 2.5575462224561992e+01 2.7476066137228718e+00 0 0 0
779 2 1.2305000000000001e+00 2.6285891730799833e+01 2.7476066137228718e+00 0 0 0
787 2 1.2305000000000010e+00 2.7706750743275496e+01 2.7476066137228718e+00 0 0 0
791 2 2.4610000000000003e+00 2.5575462224561992e+01 2.7476066137228718e+00 0 0 0
793 2 3.6914999999999991e+00 2.6285891730799833e+01 2.7476066137228718e+00 0 0 0
809 2 3.6914999999999996e+00 2.7706750743275496e+01 2.7476066137228718e+00 0 0 0
813 2 4.9220000000000006e+00 2.5575462224561992e+01 2.7476066137228718e+00 0 0 0
839 2 6.1524999999999990e+00 2.7706750743275496e+01 2.7476066137228718e+00 0 0 0
775 2 0.0000000000000000e+00 2.8417180249513333e+01 2.7476066137228718e+00 0 0 0
789 2 2.4610000000000003e+00 2.8417180249513326e+01 2.7476066137228718e+00 0 0 0
811 2 4.9220000000000006e+00 2.8417180249513336e+01 2.7476066137228718e+00 0 0 0
163 2 1.2305000000000001e+00 2.0602455680897162e+01 5.8095042316810419e+00 0 0 0
210 2 3.6915000000000004e+00 2.0602455680897162e+01 5.8095042316810419e+00 0 0 0
418 2 0.0000000000000000e+00 1.9892026174659328e+01 8.8714018496458884e+00 0 0 0
441 2 2.4610000000000003e+00 1.9892026174659328e+01 8.8714018496458884e+00 0 0 0
465 2 4.9220000000000006e+00 1.9892026174659328e+01 8.8714018496458884e+00 0 0 0
159 2 0.0000000000000000e+00 2.2733744199610655e+01 5.8095042316810419e+00 0 0 0
161 2 0.0000000000000000e+00 2.1312885187134999e+01 5.8095042316810419e+00 0 0 0
204 2 1.2304999999999993e+00 2.3444173705848499e+01 5.8095042316810419e+00 0 0 0
206 2 2.4610000000000003e+00 2.2733744199610655e+01 5.8095042316810419e+00 0 0 0
208 2 2.4610000000000003e+00 2.1312885187134995e+01 5.8095042316810419e+00 0 0 0
251 2 3.6915000000000004e+00 2.3444173705848499e+01 5.8095042316810419e+00 0 0 0
437 2 0.0000000000000000e+00 2.4154603212086325e+01 8.8714018496458884e+00 0 0 0
438 2 0.0000000000000000e+00 2.1312885187134999e+01 8.8714018496458884e+00 0 0 0
439 2 1.2304999999999993e+00 2.2023314693372832e+01 8.8714018496458884e+00 0 0 0
460 2 1.2304999999999993e+00 2.3444173705848499e+01 8.8714018496458884e+00 0 0 0
461 2 2.4610000000000003e+00 2.4154603212086325e+01 8.8714018496458884e+00 0 0 0
462 2 2.4610000000000003e+00 2.1312885187134995e+01 8.8714018496458884e+00 0 0 0
463 2 3.6914999999999996e+00 2.2023314693372832e+01 8.8714018496458884e+00 0 0 0
484 2 3.6915000000000004e+00 2.3444173705848499e+01 8.8714018496458884e+00 0 0 0
253 2 4.9220000000000006e+00 2.2733744199610655e+01 5.8095042316810419e+00 0 0 0
255 2 4.9220000000000006e+00 2.1312885187134995e+01 5.8095042316810419e+00 0 0 0
485 2 4.9220000000000006e+00 2.4154603212086325e+01 8.8714018496458884e+00 0 0 0
486 2 4.9220000000000006e+00 2.1312885187134995e+01 8.8714018496458884e+00 0 0 0
487 2 6.1524999999999990e+00 2.2023314693372832e+01 8.8714018496458884e+00 0 0 0
776 2 0.0000000000000000e+00 2.6996321237037659e+01 5.8095042316810419e+00 0 0 0
778 2 0.0000000000000000e+00 2.5575462224561992e+01 5.8095042316810419e+00 0 0 0
780 2 1.2305000000000001e+00 2.4865032718324155e+01 5.8095042316810419e+00 0 0 0
788 2 1.2305000000000010e+00 2.7706750743275496e+01 5.8095042316810419e+00 0 0 0
790 2 2.4610000000000003e+00 2.6996321237037659e+01 5.8095042316810419e+00 0 0 0
792 2 2.4610000000000003e+00 2.5575462224561992e+01 5.8095042316810419e+00 0 0 0
794 2 3.6914999999999996e+00 2.4865032718324166e+01 5.8095042316810419e+00 0 0 0
810 2 3.6914999999999996e+00 2.7706750743275496e+01 5.8095042316810419e+00 0 0 0
1091 2 0.0000000000000000e+00 2.5575462224561992e+01 8.8714018496458884e+00 0 0 0
1092 2 1.2305000000000001e+00 2.6285891730799833e+01 8.8714018496458884e+00 0 0 0
1096 2 1.2305000000000010e+00 2.7706750743275496e+01 8.8714018496458884e+00 0 0 0
1098 2 2.4610000000000003e+00 2.5575462224561992e+01 8.8714018496458884e+00 0 0 0
1099 2 3.6914999999999991e+00 2.6285891730799833e+01 8.8714018496458884e+00 0 0 0
1107 2 3.6914999999999996e+00 2.7706750743275496e+01 8.8714018496458884e+00 0 0 0
812 2 4.9220000000000006e+00 2.6996321237037659e+01 5.8095042316810419e+00 0 0 0
814 2 4.9220000000000006e+00 2.5575462224561992e+01 5.8095042316810419e+00 0 0 0
816 2 6.1524999999999990e+00 2.4865032718324155e+01 5.8095042316810419e+00 0 0 0
840 2 6.1524999999999990e+00 2.7706750743275496e+01 5.8095042316810419e+00 0 0 0
1109 2 4.9220000000000006e+00 2.5575462224561992e+01 8.8714018496458884e+00 0 0 0
1122 2 6.1524999999999990e+00 2.7706750743275496e+01 8.8714018496458884e+00 0 0 0
786 2 1.2304999999999993e+00 2.9127609755751163e+01 5.8095042316810419e+00 0 0 0
808 2 3.6914999999999991e+00 2.9127609755751152e+01 5.8095042316810419e+00 0 0 0
1090 2 0.0000000000000000e+00 2.8417180249513333e+01 8.8714018496458884e+00 0 0 0
1097 2 2.4610000000000003e+00 2.8417180249513326e+01 8.8714018496458884e+00 0 0 0
838 2 6.1524999999999981e+00 2.9127609755751152e+01 5.8095042316810419e+00 0 0 0
1108 2 4.9220000000000006e+00 2.8417180249513336e+01 8.8714018496458884e+00 0 0 0
576 1 3.0830127023047331e+00 2.3021737456963606e+01 1.1982334703864570e+01 5 -1 0
552 1 5.0184599871646576e+00 2.1029054902774387e+01 1.2099265699819899e+01 3 2 0
2031 1 2.4368213124329077e-01 2.1832216295498995e+01 1.1874418964968049e+01 0 1 0
1314 1 2.5256230698691837e+00 2.5594566355501172e+01 1.1255203743479436e+01 -2 -2 -1
579 1 4.5657208672322938e+00 2.7294174638750999e+01 1.1858889567974073e+01 0 2 0
2071 1 2.7823503890495691e-02 2.6582428921447853e+01 1.1649141845680186e+01 0 -2 0
3265 1 3.0174215138482272e+00 2.1531817985102798e+01 1.6620298426513017e+01 5 1 -1
4004 1 3.9977659366637130e-01 2.0524952138638760e+01 1.6631496236949182e+01 0 1 -1
3394 1 1.2689416303190229e+00 2.4423001703538908e+01 1.5168728008919384e+01 -1 3 -1
587 1 1.3406825164496732e+00 2.3794686524497671e+01 1.8027371890778021e+01 3 1 0
768 1 3.5857698814964598e+00 2.3790661635873839e+01 1.4697720746283602e+01 4 3 0
2093 1 5.2573628491800521e+00 2.1133652996867422e+01 1.4764063756835057e+01 2 0 0
1275 1 5.4413813250931327e+00 2.5457897974158129e+01 1.5589515510900762e+01 1 0 0
2038 1 2.7279564837099146e+00 2.8621569089482147e+01 1.5497410120797650e+01 -1 0 0
1968 1 4.9956362440990185e+00 2.7892284594957470e+01 1.4504912359073954e+01 -3 -1 0
4054 1 2.5279273838020693e+00 2.8518670619998446e+01 1.8145281078053468e+01 0 0 0
1989 1 6.8369533341113331e-01 2.6929239575798452e+01 1.4353907707240667e+01 0 -1 0
635 1 5.3235937849787804e+00 2.0647891696885075e+01 2.1901890960189863e+01 -1 0 -2
3405 1 3.5947982367620837e+00 2.3167545097819559e+01 1.9088082126749189e+01 1 -2 -1
756 1 2.9383377293113240e+00 2.3521023051494574e+01 2.1897577889468607e+01 -1 2 0
1400 1 5.1051477385045541e+00 2.0913603328778841e+01 1.9196824778472298e+01 3 2 0
3443 1 6.9335815727513883e-01 2.6934383699446727e+01 2.1663460208896787e+01 6 1 -1
1920 1 4.9837416030892960e+00 2.5426255790960390e+01 1.8391782147891057e+01 0 0 0
575 1 5.3722035224081308e+00 2.7770225278089502e+01 2.1800260772972518e+01 0 -1 0
2085 1 4.9829623629599586e+00 2.7851089104784247e+01 1.9138706202514857e+01 -1 0 0
1906 1 5.4865105127917202e-01 2.6440200574339006e+01 1.8965944335202199e+01 -1 -1 0
3897 1 2.6645783405705594e+00 2.0163733922034766e+01 2.5572243735765451e+01 0 0 0
684 1 3.5299524336051585e-01 2.2703052997379324e+01 2.3060777136584910e+01 3 -2 -1
1246 1 5.2236641320400938e+00 2.2950603640251320e+01 2.3180548409836526e+01 0 0 0
1428 1 4.7433195844792140e+00 2.1512957708514989e+01 2.5756281766369870e+01 2 0 1
2574 1 1.4381995211069118e-01 2.1438299410414437e+01 2.5603851889411796e+01 -2 1 0
4027 1 2.3099869464145777e+00 2.6076784497519597e+01 2.5455821423207873e+01 3 -1 0
3337 1 2.0192953440093055e+00 2.8939427780153590e+01 2.5468506703088408e+01 0 3 0
661 1 3.1501621013467234e+00 2.6083916518469824e+01 2.2605991157256849e+01 1 -3 -1
3964 1 5.0741147691165329e+00 2.4564053003717213e+01 2.5727016950021703e+01 3 -2 0
6 1 1.7817908810435767e-02 2.9302407105828063e+01 2.2876343446079865e+01 1 1 -1
783 2 0.0000000000000000e+00 2.9838039261988989e+01 2.7476066137228718e+00 0 0 0
785 2 1.2304999999999993e+00 3.0548468768226829e+01 2.7476066137228718e+00 0 0 0
805 2 2.4610000000000003e+00 2.9838039261988989e+01 2.7476066137228718e+00 0 0 0
807 2 3.6915000000000004e+00 3.0548468768226829e+01 2.7476066137228718e+00 0 0 0
835 2 4.9220000000000006e+00 2.9838039261988989e+01 2.7476066137228718e+00 0 0 0
781 2 0.0000000000000000e+00 3.2679757286940330e+01 2.7476066137228718e+00 0 0 0
797 2 0.0000000000000000e+00 3.4100616299415996e+01 2.7476066137228718e+00 0 0 0
801 2 1.2304999999999993e+00 3.1969327780702493e+01 2.7476066137228718e+00 0 0 0
803 2 2.4610000000000003e+00 3.2679757286940337e+01 2.7476066137228718e+00 0 0 0
827 2 2.4609999999999985e+00 3.4100616299415996e+01 2.7476066137228718e+00 0 0 0
831 2 3.6914999999999996e+00 3.1969327780702493e+01 2.7476066137228718e+00 0 0 0
833 2 4.9220000000000015e+00 3.2679757286940337e+01 2.7476066137228718e+00 0 0 0
865 2 4.9220000000000006e+00 3.4100616299415996e+01 2.7476066137228718e+00 0 0 0
799 2 1.2305000000000010e+00 3.4811045805653833e+01 2.7476066137228718e+00 0 0 0
829 2 3.6915000000000018e+00 3.4811045805653833e+01 2.7476066137228718e+00 0 0 0
795 2 0.0000000000000000e+00 3.6942334324367337e+01 2.7476066137228718e+00 0 0 0
819 2 0.0000000000000000e+00 3.8363193336842990e+01 2.7476066137228718e+00 0 0 0
823 2 1.2304999999999993e+00 3.6231904818129486e+01 2.7476066137228718e+00 0 0 0
825 2 2.4610000000000021e+00 3.6942334324367337e+01 2.7476066137228718e+00 0 0 0
857 2 2.4610000000000003e+00 3.8363193336842990e+01 2.7476066137228718e+00 0 0 0
861 2 3.6914999999999996e+00 3.6231904818129486e+01 2.7476066137228718e+00 0 0 0
863 2 4.9220000000000006e+00 3.6942334324367316e+01 2.7476066137228718e+00 0 0 0
902 2 4.9220000000000006e+00 3.8363193336842990e+01 2.7476066137228718e+00 0 0 0
821 2 1.2305000000000010e+00 3.9073622843080841e+01 2.7476066137228718e+00 0 0 0
859 2 3.6915000000000018e+00 3.9073622843080820e+01 2.7476066137228718e+00 0 0 0
782 2 0.0000000000000000e+00 3.1258898274464656e+01 5.8095042316810419e+00 0 0 0
784 2 0.0000000000000000e+00 2.9838039261988989e+01 5.8095042316810419e+00 0 0 0
804 2 2.4609999999999985e+00 3.1258898274464656e+01 5.8095042316810419e+00 0 0 0
806 2 2.4610000000000003e+00 2.9838039261988989e+01 5.8095042316810419e+00 0 0 0
1094 2 0.0000000000000000e+00 2.9838039261988989e+01 8.8714018496458884e+00 0 0 0
1095 2 1.2304999999999993e+00 3.0548468768226829e+01 8.8714018496458884e+00 0 0 0
1105 2 2.4610000000000003e+00 2.9838039261988989e+01 8.8714018496458884e+00 0 0 0
1106 2 3.6915000000000004e+00 3.0548468768226829e+01 8.8714018496458884e+00 0 0 0
834 2 4.9219999999999979e+00 3.1258898274464656e+01 5.8095042316810419e+00 0 0 0
836 2 4.9220000000000006e+00 2.9838039261988989e+01 5.8095042316810419e+00 0 0 0
1120 2 4.9220000000000006e+00 2.9838039261988989e+01 8.8714018496458884e+00 0 0 0
798 2 0.0000000000000000e+00 3.4100616299415996e+01 5.8095042316810419e+00 0 0 0