LAMMPS data file via write_data, version 16 Mar 2018, timestep = 6000000

6489 atoms
2 atom types

0.0000000000000000e+00 4.9219999999999999e+01 xlo xhi
0.0000000000000000e+00 4.9019635930410494e+01 ylo yhi
6.8122979511410264e-01 5.9380770204870956e+01 zlo zhi

Masses

1 18.015
2 12.01

Atoms # atomic

3184 1 2.6851907994652362e+00 1.4247344161026945e+00 3.0317501863206222e+00 0 1 0
1760 1 3.8859073021571935e+00 3.4506853573781058e+00 1.9840357416153369e+00 1 0 1
6378 1 2.0130692036640596e+00 1.0271974265686207e+01 5.9311920407327241e+00 2 0 0
4608 1 7.6615372191316489e+00 1.5764029166392473e+00 2.0640764470665269e+00 1 0 1
3269 1 6.4169117841074845e+00 3.7374203419932464e+00 2.7643116385607311e+00 -1 -1 0
5070 1 2.2411318818423283e+00 5.3826489889179010e+00 3.1242747615491240e+00 2 -1 0
2961 1 3.3715488258311352e+00 8.2258014609955996e+00 2.3341550792238479e+00 -1 1 1
3231 1 7.1307200576885323e+00 6.2792689759910463e+00 1.9829832948242023e+00 -3 2 1
3729 1 5.9715902925223139e+00 8.6925880014742116e+00 2.9888632279043992e+00 -1 -2 1
5183 1 8.7034913301068038e+00 8.2760190638076150e+00 6.4954279155875536e+00 0 -1 1
1685 1 1.4692079386363548e+00 1.0130548047918808e+01 3.1135020936165096e+00 3 2 0
6380 1 4.6887691898867194e+00 1.0494912096428619e+01 6.6361226170634602e+00 -1 0 1
6143 1 6.8740123591879341e+00 1.1110601488706170e+01 2.1724563229970824e+00 0 2 0
18 1 2.2688378212624527e+00 1.2123691041663458e+00 5.7703165636526617e+00 2 1 0
167 1 1.2705632497013504e+00 3.4771613473183143e+00 7.1944568464221934e+00 -2 -2 1
1860 1 4.9305599614077922e+00 1.2960230055881969e+00 6.5786133827553757e+00 3 1 0
6417 1 6.1949464975894779e+00 3.7334863557697675e+00 5.6447512007728662e+00 1 -1 0
4646 1 8.6438176936720481e+00 3.9398403798855020e+00 6.4163347581583077e+00 1 1 1
349 1 2.4853688793570825e+00 5.5746761459851948e+00 5.7472618781903240e+00 1 0 1
5306 1 9.4352834578660871e-01 7.7091390081628592e+00 7.0994311876548508e+00 2 -3 1
2980 1 5.0720578062920412e+00 5.9001508731966634e+00 6.7197319213383437e+00 0 1 1
2951 1 5.9208097251872562e+00 8.4613896399827606e+00 5.7526383107665842e+00 1 -1 1
5189 1 9.7845274525256425e+00 1.0781911330409685e+01 5.5856181406163863e+00 0 0 0
4822 1 9.5425488033884402e+00 1.1425214793999876e+01 3.0777249741830204e+00 0 3 1
3526 1 1.7020895390538165e-01 1.2258072725277882e+00 2.0958610267578734e+00 1 2 0
3129 1 9.7113193179251649e+00 6.3472223789410975e+00 2.8358828179868985e+00 0 0 1
2063 1 2.9148463216269485e+00 9.5337017651948341e-01 1.0450383313169054e+01 3 2 0
1724 1 1.4803619221602684e+00 3.2464885260918215e+00 9.7330895230124934e+00 1 -2 0
569 1 5.3068314924640587e+00 1.5334091197327993e+00 9.3175125217620831e+00 -1 0 1
4660 1 6.4035076457329367e+00 3.6089457045720739e+00 1.0596575830834603e+01 -1 -1 1
5013 1 8.9099178544010567e+00 3.7650343960941628e+00 9.4205117570256327e+00 -1 1 0
5242 1 2.6921448655654605e+00 5.8666924088497057e+00 1.0408845286618217e+01 1 -1 0
20 1 1.1591270163657725e+00 7.9367515177708565e+00 9.6186795728864904e+00 -1 0 0
3294 1 5.2475085181569288e+00 5.9176797410482864e+00 9.4148969153355306e+00 1 2 0
3646 1 1.9140664710451356e+00 1.0548602129937633e+01 1.0341320443045001e+01 -2 0 0
3469 1 4.6755918046491463e+00 1.0520412267289602e+01 9.3577932958838659e+00 2 0 1
393 1 6.0491891764844947e+00 8.3329891791120048e+00 1.0367652420389449e+01 -1 1 0
160 1 8.6176711747938235e+00 8.2331591849361505e+00 9.2857587047611858e+00 -1 -1 1
4935 1 7.0378592481778135e+00 1.0791585461494973e+01 1.4107390732992583e+01 2 0 1
2090 1 2.9476604977381586e+00 1.3396434913953998e+00 1.3133864544127949e+01 -1 2 1
3281 1 3.7263445102258586e+00 3.5978041803201788e+00 1.4124391979924731e+01 2 -3 1
476 1 9.6092584201861975e+00 1.0954677494138727e+01 1.2772365868417161e+01 -1 1 1
3323 1 7.6589583871732838e+00 1.6489554713077106e+00 1.3719922844340321e+01 -3 -1 0
4744 1 6.1969592987696762e+00 3.7925592265661021e+00 1.3143714393518845e+01 1 -1 1
2007 1 2.6883409104169034e+00 5.9969481311271249e+00 1.3099034334070494e+01 1 0 0
2945 1 6.1227047696916843e+00 8.3698703597729320e+00 1.2962467010298615e+01 -3 -1 1
6462 1 7.2398273276146838e+00 6.0656874754215053e+00 1.3892323495009755e+01 1 3 0
1539 1 2.2863057534446463e+00 1.0594336657450887e+01 1.3092554202901921e+01 1 0 1
3633 1 3.7547879481607787e+00 8.3881510363342837e+00 1.3830559955211774e+01 1 4 1
5309 1 9.5976107062902383e+00 1.0757595128517064e+01 1.0018612895195664e+01 0 -1 0
1573 1 9.8082749367457840e+00 6.1965954153700746e+00 1.0288518408822011e+01 1 0 0
5397 1 9.7794336821412760e+00 6.4865879058979328e+00 1.3052991315627796e+01 0 -1 1
6208 1 9.3441066776350112e-02 5.6408019779368335e+00 1.4042764425004590e+01 0 1 1
3330 1 1.0904882591701088e+00 3.5339899867809028e+00 1.7577737061523933e+01 0 -2 1
1769 1 3.7977575354569186e+00 3.4883291235239779e+00 1.6855187188572913e+01 1 2 0
4665 1 8.2483320202321693e+00 8.3792745523938699e+00 2.0499654913015174e+01 2 1 1
6141 1 4.7618021338292857e+00 1.0939770794083883e+00 1.7830969720864942e+01 1 2 1
447 1 7.0273865234360118e+00 1.6107042725263343e+00 1.6479328211456821e+01 1 -1 0
4859 1 8.6731791381952039e+00 3.4874164226723567e+00 1.7587347934710415e+01 1 2 1
3394 1 3.5016877958646466e+00 7.9203137924474936e+00 1.6641725647500756e+01 1 3 1
3056 1 8.4001398503353797e-01 8.1524594004853039e+00 1.7538943139542791e+01 -2 1 1
1956 1 4.9139973082687778e+00 5.8385563833110679e+00 1.7711217514886950e+01 1 -1 1
4998 1 7.5066471785795503e+00 5.8523471301780061e+00 1.6592348279754329e+01 0 -2 1
2948 1 4.4006893453093889e+00 1.0407583330795127e+01 1.7975328139109148e+01 -1 -2 0
4519 1 8.3060510268464025e+00 8.2399146978719227e+00 1.7756617011200067e+01 -1 2 1
1314 1 6.9286724322386943e+00 1.0692527803315228e+01 1.6756292989306495e+01 3 2 1
6131 1 1.0488847221788300e+00 3.2682284537307669e+00 2.0173945978138502e+01 -2 1 0
3009 1 3.5500705383866564e+00 3.3471274248979546e+00 2.1111479614225683e+01 -2 1 1
352 1 5.4643229821449610e+00 1.0791878293544388e+00 2.0470631568814039e+01 1 0 0
2886 1 8.0753514704750629e+00 1.1456879964291808e+00 2.1230661180397988e+01 1 0 1
1932 1 8.6839565477014418e+00 3.3568627839429070e+00 2.0239626628815447e+01 2 3 0
3211 1 4.5612469628898484e+00 5.8512208009865985e+00 2.0328787315846988e+01 1 3 0
4860 1 7.0900048609100308e+00 5.7121679642502201e+00 2.1003437915359406e+01 0 2 0
6153 1 3.9886338631324154e+00 1.0711631161478580e+01 2.0779559926257932e+01 0 1 0
2067 1 3.0791918979580868e+00 8.1392081236356209e+00 2.1365571000838074e+01 -1 2 1
2062 1 5.3114494833116421e-01 7.9887655955945620e+00 2.0214088361653456e+01 2 1 1
1935 1 6.8207665070380701e+00 1.0697249514556555e+01 2.1003151144719507e+01 0 3 0
4725 1 1.1415224721369555e-01 1.0862614159504216e+00 1.6611927315003634e+01 1 0 1
173 1 1.2848603956290106e-01 8.1735634032285531e-01 2.1052297554168927e+01 -1 -1 0
4528 1 7.2490917394044108e-01 2.8313051608345488e+00 2.4500266029639974e+01 -1 1 1
6428 1 3.3027986474720028e+00 3.0613005257117667e+00 2.3798772770330483e+01 1 1 1
658 2 4.9220000000000006e+00 8.5251540748539991e+00 2.6725273762523567e+01 0 0 0
3105 1 7.7690378034759400e+00 1.1621409849289346e+00 2.4188256567510017e+01 0 0 1
5129 1 8.8682592958723863e+00 3.8693339112608327e+00 2.4223116183099648e+01 1 0 0
6257 1 4.9985004847274013e+00 8.9426270132759833e-01 2.4267000211813322e+01 0 3 1
3667 1 4.6252264185940382e+00 5.4189782997684537e+00 2.4458318158204627e+01 -1 -1 0
5247 1 1.3555173492428374e-01 7.4109349922894170e+00 2.4286949860920554e+01 0 1 1
1362 1 7.2224943149959397e+00 5.9995183546464199e+00 2.3890144185700152e+01 0 0 1
2096 1 2.8977155450128071e+00 7.3836184232617672e+00 2.3953093212536011e+01 1 1 1
1906 1 4.2405426198583731e+00 1.0099901958414295e+01 2.3743920368032502e+01 0 1 0
1514 1 8.5283415488931897e+00 8.4849580645106126e+00 2.4418909069478065e+01 -1 1 0
428 1 6.9911004401074397e+00 1.0487029061511466e+01 2.3739297348730901e+01 1 0 0
572 2 0.0000000000000000e+00 2.8417180249513345e+00 2.6725273762523567e+01 0 0 0
574 2 0.0000000000000000e+00 0.0000000000000000e+00 2.6725273762523567e+01 0 0 0
576 2 1.2305000000000001e+00 7.1042950623783474e-01 2.6725273762523567e+01 0 0 0
583 2 1.2305000000000001e+00 2.1312885187134998e+00 2.6725273762523567e+01 0 0 0
585 2 2.4610000000000003e+00 2.8417180249513345e+00 2.6725273762523567e+01 0 0 0
587 2 2.4610000000000003e+00 0.0000000000000000e+00 2.6725273762523567e+01 0 0 0
589 2 3.6915000000000004e+00 7.1042950623783474e-01 2.6725273762523567e+01 0 0 0
604 2 3.6914999999999996e+00 2.1312885187134998e+00 2.6725273762523567e+01 0 0 0
606 2 4.9220000000000006e+00 2.8417180249513332e+00 2.6725273762523567e+01 0 0 0
608 2 4.9220000000000006e+00 0.0000000000000000e+00 2.6725273762523567e+01 0 0 0
610 2 6.1524999999999999e+00 7.1042950623783407e-01 2.6725273762523567e+01 0 0 0
633 2 6.1524999999999999e+00 2.1312885187134989e+00 2.6725273762523567e+01 0 0 0
635 2 7.3829999999999991e+00 2.8417180249513345e+00 2.6725273762523567e+01 0 0 0
637 2 7.3829999999999991e+00 0.0000000000000000e+00 2.6725273762523567e+01 0 0 0
639 2 8.6134999999999984e+00 7.1042950623783407e-01 2.6725273762523567e+01 0 0 0
670 2 8.6134999999999984e+00 2.1312885187135002e+00 2.6725273762523567e+01 0 0 0
579 2 0.0000000000000000e+00 4.2625770374269996e+00 2.6725273762523567e+01 0 0 0
581 2 1.2305000000000001e+00 4.9730065436648339e+00 2.6725273762523567e+01 0 0 0
596 2 1.2305000000000001e+00 6.3938655561404980e+00 2.6725273762523567e+01 0 0 0
600 2 2.4610000000000003e+00 4.2625770374269996e+00 2.6725273762523567e+01 0 0 0
602 2 3.6914999999999996e+00 4.9730065436648339e+00 2.6725273762523567e+01 0 0 0
625 2 3.6914999999999996e+00 6.3938655561404980e+00 2.6725273762523567e+01 0 0 0
577 2 0.0000000000000000e+00 7.1042950623783341e+00 2.6725273762523567e+01 0 0 0
598 2 2.4610000000000003e+00 7.1042950623783341e+00 2.6725273762523567e+01 0 0 0
629 2 4.9220000000000006e+00 4.2625770374269978e+00 2.6725273762523567e+01 0 0 0
631 2 6.1524999999999999e+00 4.9730065436648339e+00 2.6725273762523567e+01 0 0 0
662 2 6.1524999999999999e+00 6.3938655561404980e+00 2.6725273762523567e+01 0 0 0
666 2 7.3829999999999991e+00 4.2625770374269996e+00 2.6725273762523567e+01 0 0 0
668 2 8.6135000000000002e+00 4.9730065436648339e+00 2.6725273762523567e+01 0 0 0
707 2 8.6135000000000002e+00 6.3938655561404980e+00 2.6725273762523567e+01 0 0 0
627 2 4.9220000000000006e+00 7.1042950623783341e+00 2.6725273762523567e+01 0 0 0
664 2 7.3830000000000009e+00 7.1042950623783341e+00 2.6725273762523567e+01 0 0 0
654 2 3.6914999999999996e+00 1.0656442593567499e+01 2.6725273762523567e+01 0 0 0
592 2 0.0000000000000000e+00 8.5251540748539991e+00 2.6725273762523567e+01 0 0 0
594 2 1.2305000000000001e+00 9.2355835810918343e+00 2.6725273762523567e+01 0 0 0
621 2 2.4610000000000003e+00 8.5251540748539991e+00 2.6725273762523567e+01 0 0 0
623 2 3.6915000000000004e+00 9.2355835810918343e+00 2.6725273762523567e+01 0 0 0
590 2 0.0000000000000000e+00 1.1366872099805333e+01 2.6725273762523567e+01 0 0 0
617 2 1.2305000000000001e+00 1.0656442593567498e+01 2.6725273762523567e+01 0 0 0
619 2 2.4610000000000003e+00 1.1366872099805333e+01 2.6725273762523567e+01 0 0 0
703 2 7.3830000000000009e+00 8.5251540748539991e+00 2.6725273762523567e+01 0 0 0
746 2 8.6134999999999984e+00 1.0656442593567498e+01 2.6725273762523567e+01 0 0 0
660 2 6.1524999999999999e+00 9.2355835810918343e+00 2.6725273762523567e+01 0 0 0
699 2 6.1524999999999999e+00 1.0656442593567499e+01 2.6725273762523567e+01 0 0 0
701 2 7.3829999999999991e+00 1.1366872099805333e+01 2.6725273762523567e+01 0 0 0
656 2 4.9220000000000006e+00 1.1366872099805333e+01 2.6725273762523567e+01 0 0 0
705 2 8.6134999999999984e+00 9.2355835810918343e+00 2.6725273762523567e+01 0 0 0
573 2 0.0000000000000000e+00 1.4208590124756650e+00 3.0030999999993057e+01 0 0 0
575 2 0.0000000000000000e+00 0.0000000000000000e+00 3.0030999999993057e+01 0 0 0
584 2 1.2305000000000001e+00 2.1312885187134998e+00 3.0030999999993057e+01 0 0 0
586 2 2.4610000000000003e+00 1.4208590124756650e+00 3.0030999999993057e+01 0 0 0
588 2 2.4610000000000003e+00 0.0000000000000000e+00 3.0030999999993057e+01 0 0 0
605 2 3.6914999999999996e+00 2.1312885187134998e+00 3.0030999999993057e+01 0 0 0
582 2 1.2305000000000001e+00 3.5521475311891644e+00 3.0030999999993057e+01 0 0 0
603 2 3.6914999999999996e+00 3.5521475311891644e+00 3.0030999999993057e+01 0 0 0
901 2 0.0000000000000000e+00 2.8417180249513345e+00 3.3336726237442861e+01 0 0 0
902 2 0.0000000000000000e+00 0.0000000000000000e+00 3.3336726237442861e+01 0 0 0
903 2 1.2305000000000001e+00 7.1042950623783474e-01 3.3336726237442861e+01 0 0 0
907 2 1.2305000000000001e+00 2.1312885187134998e+00 3.3336726237442861e+01 0 0 0
908 2 2.4610000000000003e+00 2.8417180249513345e+00 3.3336726237442861e+01 0 0 0
909 2 2.4610000000000003e+00 0.0000000000000000e+00 3.3336726237442861e+01 0 0 0
910 2 3.6915000000000004e+00 7.1042950623783474e-01 3.3336726237442861e+01 0 0 0
918 2 3.6914999999999996e+00 2.1312885187134998e+00 3.3336726237442861e+01 0 0 0
607 2 4.9220000000000006e+00 1.4208590124756650e+00 3.0030999999993057e+01 0 0 0
609 2 4.9220000000000006e+00 0.0000000000000000e+00 3.0030999999993057e+01 0 0 0
634 2 6.1524999999999999e+00 2.1312885187134989e+00 3.0030999999993057e+01 0 0 0
636 2 7.3829999999999991e+00 1.4208590124756659e+00 3.0030999999993057e+01 0 0 0
638 2 7.3829999999999991e+00 0.0000000000000000e+00 3.0030999999993057e+01 0 0 0
671 2 8.6134999999999984e+00 2.1312885187135002e+00 3.0030999999993057e+01 0 0 0
632 2 6.1524999999999999e+00 3.5521475311891644e+00 3.0030999999993057e+01 0 0 0
669 2 8.6134999999999984e+00 3.5521475311891657e+00 3.0030999999993057e+01 0 0 0
919 2 4.9220000000000006e+00 2.8417180249513332e+00 3.3336726237442861e+01 0 0 0
920 2 4.9220000000000006e+00 0.0000000000000000e+00 3.3336726237442861e+01 0 0 0
921 2 6.1524999999999999e+00 7.1042950623783407e-01 3.3336726237442861e+01 0 0 0
933 2 6.1524999999999999e+00 2.1312885187134989e+00 3.3336726237442861e+01 0 0 0
934 2 7.3829999999999991e+00 2.8417180249513345e+00 3.3336726237442861e+01 0 0 0
935 2 7.3829999999999991e+00 0.0000000000000000e+00 3.3336726237442861e+01 0 0 0
936 2 8.6134999999999984e+00 7.1042950623783407e-01 3.3336726237442861e+01 0 0 0
952 2 8.6134999999999984e+00 2.1312885187135002e+00 3.3336726237442861e+01 0 0 0
578 2 0.0000000000000000e+00 5.6834360499026637e+00 3.0030999999993057e+01 0 0 0
580 2 0.0000000000000000e+00 4.2625770374269996e+00 3.0030999999993057e+01 0 0 0
597 2 1.2305000000000001e+00 6.3938655561404980e+00 3.0030999999993057e+01 0 0 0
599 2 2.4610000000000003e+00 5.6834360499026637e+00 3.0030999999993057e+01 0 0 0
601 2 2.4610000000000003e+00 4.2625770374269996e+00 3.0030999999993057e+01 0 0 0
626 2 3.6914999999999996e+00 6.3938655561404980e+00 3.0030999999993057e+01 0 0 0
595 2 1.2305000000000001e+00 7.8147245686161639e+00 3.0030999999993057e+01 0 0 0
624 2 3.6914999999999996e+00 7.8147245686161639e+00 3.0030999999993057e+01 0 0 0
905 2 0.0000000000000000e+00 4.2625770374269996e+00 3.3336726237442861e+01 0 0 0
906 2 1.2305000000000001e+00 4.9730065436648339e+00 3.3336726237442861e+01 0 0 0
914 2 1.2305000000000001e+00 6.3938655561404980e+00 3.3336726237442861e+01 0 0 0
916 2 2.4610000000000003e+00 4.2625770374269996e+00 3.3336726237442861e+01 0 0 0
917 2 3.6914999999999996e+00 4.9730065436648339e+00 3.3336726237442861e+01 0 0 0
929 2 3.6914999999999996e+00 6.3938655561404980e+00 3.3336726237442861e+01 0 0 0
904 2 0.0000000000000000e+00 7.1042950623783341e+00 3.3336726237442861e+01 0 0 0
915 2 2.4610000000000003e+00 7.1042950623783341e+00 3.3336726237442861e+01 0 0 0
628 2 4.9220000000000006e+00 5.6834360499026637e+00 3.0030999999993057e+01 0 0 0
630 2 4.9220000000000006e+00 4.2625770374269978e+00 3.0030999999993057e+01 0 0 0
663 2 6.1524999999999999e+00 6.3938655561404980e+00 3.0030999999993057e+01 0 0 0
665 2 7.3829999999999991e+00 5.6834360499026637e+00 3.0030999999993057e+01 0 0 0
667 2 7.3829999999999991e+00 4.2625770374269996e+00 3.0030999999993057e+01 0 0 0
708 2 8.6135000000000002e+00 6.3938655561404980e+00 3.0030999999993057e+01 0 0 0
661 2 6.1524999999999999e+00 7.8147245686161639e+00 3.0030999999993057e+01 0 0 0
706 2 8.6135000000000002e+00 7.8147245686161639e+00 3.0030999999993057e+01 0 0 0
931 2 4.9220000000000006e+00 4.2625770374269978e+00 3.3336726237442861e+01 0 0 0
932 2 6.1524999999999999e+00 4.9730065436648339e+00 3.3336726237442861e+01 0 0 0
948 2 6.1524999999999999e+00 6.3938655561404980e+00 3.3336726237442861e+01 0 0 0
950 2 7.3829999999999991e+00 4.2625770374269996e+00 3.3336726237442861e+01 0 0 0
951 2 8.6135000000000002e+00 4.9730065436648339e+00 3.3336726237442861e+01 0 0 0
971 2 8.6135000000000002e+00 6.3938655561404980e+00 3.3336726237442861e+01 0 0 0
930 2 4.9220000000000006e+00 7.1042950623783341e+00 3.3336726237442861e+01 0 0 0
949 2 7.3830000000000009e+00 7.1042950623783341e+00 3.3336726237442861e+01 0 0 0
591 2 0.0000000000000000e+00 9.9460130873296642e+00 3.0030999999993057e+01 0 0 0
593 2 0.0000000000000000e+00 8.5251540748539991e+00 3.0030999999993057e+01 0 0 0
620 2 2.4610000000000003e+00 9.9460130873296642e+00 3.0030999999993057e+01 0 0 0
622 2 2.4610000000000003e+00 8.5251540748539991e+00 3.0030999999993057e+01 0 0 0
616 2 1.2305000000000001e+00 1.2077301606043163e+01 3.0030999999993057e+01 0 0 0
618 2 1.2305000000000001e+00 1.0656442593567498e+01 3.0030999999993057e+01 0 0 0
653 2 3.6914999999999996e+00 1.2077301606043163e+01 3.0030999999993057e+01 0 0 0
655 2 3.6914999999999996e+00 1.0656442593567499e+01 3.0030999999993057e+01 0 0 0
912 2 0.0000000000000000e+00 8.5251540748539991e+00 3.3336726237442861e+01 0 0 0
913 2 1.2305000000000001e+00 9.2355835810918343e+00 3.3336726237442861e+01 0 0 0
927 2 2.4610000000000003e+00 8.5251540748539991e+00 3.3336726237442861e+01 0 0 0
928 2 3.6915000000000004e+00 9.2355835810918343e+00 3.3336726237442861e+01 0 0 0
911 2 0.0000000000000000e+00 1.1366872099805333e+01 3.3336726237442861e+01 0 0 0
925 2 1.2305000000000001e+00 1.0656442593567498e+01 3.3336726237442861e+01 0 0 0
926 2 2.4610000000000003e+00 1.1366872099805333e+01 3.3336726237442861e+01 0 0 0
944 2 3.6914999999999996e+00 1.0656442593567499e+01 3.3336726237442861e+01 0 0 0
657 2 4.9220000000000006e+00 9.9460130873296642e+00 3.0030999999993057e+01 0 0 0
659 2 4.9220000000000006e+00 8.5251540748539991e+00 3.0030999999993057e+01 0 0 0
702 2 7.3830000000000009e+00 9.9460130873296642e+00 3.0030999999993057e+01 0 0 0
704 2 7.3830000000000009e+00 8.5251540748539991e+00 3.0030999999993057e+01 0 0 0
698 2 6.1524999999999999e+00 1.2077301606043163e+01 3.0030999999993057e+01 0 0 0
700 2 6.1524999999999999e+00 1.0656442593567499e+01 3.0030999999993057e+01 0 0 0
745 2 8.6135000000000002e+00 1.2077301606043163e+01 3.0030999999993057e+01 0 0 0
747 2 8.6134999999999984e+00 1.0656442593567498e+01 3.0030999999993057e+01 0 0 0
946 2 4.9220000000000006e+00 8.5251540748539991e+00 3.3336726237442861e+01 0 0 0
947 2 6.1524999999999999e+00 9.2355835810918343e+00 3.3336726237442861e+01 0 0 0
969 2 7.3830000000000009e+00 8.5251540748539991e+00 3.3336726237442861e+01 0 0 0
970 2 8.6134999999999984e+00 9.2355835810918343e+00 3.3336726237442861e+01 0 0 0
945 2 4.9220000000000006e+00 1.1366872099805333e+01 3.3336726237442861e+01 0 0 0
967 2 6.1524999999999999e+00 1.0656442593567499e+01 3.3336726237442861e+01 0 0 0
968 2 7.3829999999999991e+00 1.1366872099805333e+01 3.3336726237442861e+01 0 0 0
991 2 8.6134999999999984e+00 1.0656442593567498e+01 3.3336726237442861e+01 0 0 0
58 1 9.2533909110159875e+00 7.9652652081439328e+00 3.5930589048362066e+01 0 2 -1
116 1 7.7675610997388878e-01 2.9099999573952138e+00 3.5903320581542999e+01 0 1 -1
511 1 5.1446507134892414e+00 1.0611128972868878e+01 3.5839311316610832e+01 -2 2 0
4496 1 6.3515190304696043e+00 2.9396449270411353e+00 3.6069943630781864e+01 1 4 0
6363 1 9.1307065106437868e+00 2.6204170040457528e+00 3.5720308739974826e+01 -1 -1 0
2887 1 4.9595117843211041e+00 5.4926935752862551e+00 3.6053136423717163e+01 0 1 0
1929 1 2.0523756367860191e+00 5.3218848996311969e+00 3.6199922233175158e+01 0 0 -1
1634 1 6.5895869896463273e+00 7.8812395730424756e+00 3.5905120135249263e+01 0 1 -1
5387 1 7.7751545754727958e-01 7.6690575867364492e+00 3.5414143294727012e+01 -2 2 -1
345 1 2.2266366007487237e+00 1.0086635204064047e+01 3.5968805348085638e+01 1 0 -1
3442 1 4.6888695319128146e+00 4.2504866484136344e-01 3.6271274265915977e+01 0 0 -1
4505 1 2.0204248320755669e+00 1.1953028582635856e-01 3.6076053791249535e+01 -1 0 0
5246 1 7.0883599110804143e+00 9.4583376118537927e+00 4.3171551772878871e+01 1 1 -1
6464 1 4.6684247528075601e-01 2.5265429143711580e+00 4.2092397488933628e+01 -1 0 0
5124 1 5.6359694956193271e+00 1.1496784005151211e+01 3.8471627000319288e+01 3 0 -1
4955 1 5.8346287646751644e+00 2.3252065666166764e+00 3.8722175740860294e+01 0 -2 0
4752 1 8.2979865367021013e+00 2.3994400232885553e+00 3.9677235592100217e+01 1 2 0
5190 1 1.7907071327773345e+00 4.7483504547962827e+00 3.8758550777827935e+01 1 -1 0
288 1 4.5909491636090456e+00 4.6296806180664305e+00 3.9551339271713729e+01 0 -2 0
2033 1 5.8662365404154535e+00 7.0984966974484340e+00 3.8802020424844912e+01 -1 -1 0
374 1 8.4321264550100850e+00 7.2148525124292266e+00 3.9424483994425373e+01 0 0 0
2891 1 1.5806159746381945e+00 9.4538940757478187e+00 3.8833654356806889e+01 1 -2 -1
5213 1 4.3774932401275466e+00 9.2182571752626732e+00 3.9755526422099749e+01 3 -1 -1
3077 1 4.4913497457054783e+00 9.1767534084191826e+00 4.2514490959961790e+01 2 1 -1
3246 1 8.4265736996802740e+00 1.1332196262104382e+01 3.9403716739970520e+01 -2 -1 0
240 1 7.0009224646101940e+00 3.2007787808477367e-01 4.3148134703192127e+01 -2 0 -1
4947 1 8.6326097815987293e+00 1.1636321790432476e+01 4.2132432739121853e+01 -1 2 -1
159 1 2.9750319402629981e+00 2.7103496888391323e+00 4.3042178370222715e+01 0 0 -1
387 1 1.7605183241469613e+00 2.4419546727151178e-01 3.8796100047705480e+01 0 1 -1
2970 1 8.5118926928296563e+00 2.4518274545187095e+00 4.2232548940404200e+01 1 1 0
5394 1 9.8013685090051155e+00 2.8821689621626206e-01 3.8871152756458685e+01 0 -2 0
1456 1 2.8827820934501496e+00 1.1217189740462675e+01 4.3302465486526259e+01 3 -1 0
5207 1 4.4655855077351889e+00 5.0070095141457731e+00 4.2303250583817089e+01 2 1 -1
3193 1 2.9598862860640942e+00 7.0262267134106082e+00 4.3167665397944532e+01 0 0 0
3426 1 8.3358714965325476e+00 7.2598852716855848e+00 4.2191937727801232e+01 1 2 -1
5367 1 7.1005549522491052e+00 4.5758087632722795e+00 4.3195423237746994e+01 -1 0 0
111 1 3.0291882542205606e-01 2.4778806607361408e+00 3.9258113378046630e+01 0 1 0
4903 1 3.1107574018272738e-01 6.9865997984067203e+00 3.9612670772781513e+01 0 0 -1
509 1 3.0427109399160779e-01 1.1272721092469929e+01 4.2368949714307789e+01 -1 0 0
3752 1 4.4279881213342049e+00 4.8484234289689132e-01 4.2561058924230707e+01 1 -1 0
4649 1 9.6922638874195481e+00 4.6287139206909638e+00 3.8614192911519737e+01 1 -1 0
5368 1 2.7975539215908185e-01 6.9450188145070957e+00 4.2214475405581126e+01 1 0 0
3402 1 4.2096197514551266e+00 4.3728215369252865e-01 3.9733841195594280e+01 -1 0 -1
5282 1 2.7589781068517767e+00 2.4741039405292269e+00 4.5756280148347543e+01 -1 -1 -1
3230 1 8.5459223594662692e-01 6.5211112443759340e+00 4.9249644063295321e+01 3 -2 0
1468 1 8.1689783284592465e+00 8.9015783706210598e+00 5.0381802487805587e+01 2 -4 0
1926 1 8.4709395736276729e+00 2.6347886664338209e+00 4.6727645428927602e+01 0 0 0
2932 1 9.4839287290678111e+00 1.0928826753316118e+01 4.9525268065430438e+01 0 0 0
1337 1 9.1241963069117507e+00 6.6503605742389418e+00 4.9227752189441205e+01 0 2 0
2108 1 3.0173305858672483e+00 7.2083602032044762e+00 4.5948461676234515e+01 -2 1 0
4921 1 4.2350335329424418e+00 4.9520231676512445e+00 4.6743056446550483e+01 2 1 -1
472 1 7.0767231447306234e+00 4.7046236309156377e+00 4.5930967470298597e+01 -1 0 0
5323 1 8.8210414427963784e+00 6.9382731089738323e+00 4.6484676574100973e+01 0 -1 -1
1480 1 3.2571056252663602e+00 1.1232257499973892e+01 4.5999382391801461e+01 2 1 0
4531 1 4.6387527511153950e+00 9.1583198268056591e+00 4.7288476824679137e+01 1 1 -1
455 1 7.1615227141668667e+00 9.1101923640935105e+00 4.6032996176566925e+01 0 -1 -1
3792 1 8.9822221475004245e+00 1.1272248118207067e+01 4.6729071031976915e+01 -1 -3 -1
1560 1 3.6564962854875551e+00 3.8772294545956881e-01 4.9584871480065971e+01 1 2 0
2133 1 2.1995707976200878e+00 2.5887682372294663e+00 5.0611894102173068e+01 2 3 0
6296 1 7.9554942067979377e+00 2.2567493444359381e+00 4.9666359124624449e+01 -2 3 0
227 1 6.1970052662781976e+00 6.3726719927811604e-01 5.0699517964488649e+01 0 2 -1
2182 1 5.5305889730207500e+00 8.3694976276410440e+00 5.0138803172191004e+01 0 0 0
1386 1 3.2194924359448835e+00 5.0771230253374817e+00 4.9299670758522836e+01 1 -1 0
5298 1 1.8432414708163425e+00 1.0888382424966524e+01 5.0001592088825504e+01 3 -1 -1
2101 1 5.1321680967648007e+00 5.8587746900838997e+00 5.0943231878384950e+01 2 0 0
489 1 7.6229343542622958e+00 4.9126434159181445e+00 5.0604432023028949e+01 0 2 0
2950 1 4.2600075342112493e+00 5.4089191882261745e-01 4.6743642518915692e+01 0 0 0
1493 1 4.3772921970410552e+00 1.0766206371145895e+01 5.0913016299636681e+01 2 -1 -1
1922 1 7.2374064293541041e-01 1.1231721126713690e+01 4.7229872854705931e+01 1 0 -1
6426 1 6.9376914957051081e+00 4.6886877218153361e-01 4.5902646385482612e+01 2 0 -1
1520 1 7.4307752028811036e-01 8.6598438844121972e+00 5.0900131271583902e+01 0 1 -1
5307 1 2.8937960948035540e-01 7.1542617324780071e+00 4.6684065178495047e+01 2 1 -1
3770 1 2.3060538537315978e-01 2.5381537872426092e+00 4.7024320921443660e+01 0 -1 0
3484 1 3.3317572889410347e+00 9.3069930477876950e-01 5.4391615480297958e+01 -1 -2 -1
1822 1 2.0494798717801994e+00 3.3254570480808474e+00 5.3366868512528143e+01 2 -2 0
5320 1 6.0407349151693346e+00 8.3510132033261386e-01 5.3673083372003916e+01 0 2 -1
1857 1 6.6305932978063282e+00 3.5380216608419337e+00 5.4297878558431364e+01 4 3 -1
4946 1 9.0178457237453031e+00 3.9631501428713514e+00 5.2888864424722058e+01 0 2 -1
5075 1 2.7052827125392258e+00 6.0582680350429170e+00 5.4173167921810631e+01 1 -1 -1
1735 1 5.2367556480768558e+00 6.1045652977512104e+00 5.3992526734747031e+01 1 1 -1
6262 1 6.9177996141505975e+00 1.1042079675035168e+01 5.8158947409837680e+01 0 0 -1
3043 1 1.0969720937537686e+00 8.3180756891828214e+00 5.3707439821449157e+01 1 1 0
3433 1 1.7767172252983967e+00 1.0898715443477895e+01 5.4310544861457046e+01 2 -1 -1
4552 1 4.3353073209278863e+00 1.0969551443366024e+01 5.3540273318926268e+01 -2 1 0
4698 1 5.9004784626454319e+00 8.8433438303818672e+00 5.4398153776706181e+01 1 0 0
6369 1 8.4339257869602413e+00 8.5188785791272323e+00 5.3125422964661198e+01 -1 -1 -1
5054 1 9.4040073592050746e+00 1.0970513948762671e+01 5.4178648108164467e+01 1 -2 -1
3459 1 2.6410223723234538e+00 1.1600968251839758e+00 5.7106871144577681e+01 0 1 -1
5228 1 3.9309447899730965e+00 3.4781763797455487e+00 5.7931791449743670e+01 0 -2 -1
3145 1 9.2241062217946705e+00 6.1995533909783438e+00 5.4560158716503565e+01 2 -2 0
3569 1 7.9563297167910054e+00 1.4945139412783339e+00 5.8201391431215441e+01 2 0 -1
3533 1 6.8438084945175808e+00 3.7553327993288481e+00 5.7143061690914053e+01 1 3 -1
454 1 2.3780948992507644e+00 5.9163815219620259e+00 5.7098142600639747e+01 4 3 0
2116 1 3.1480836773267762e+00 8.3175280808732754e+00 5.8053834881195058e+01 1 0 0
4973 1 7.3615763650496682e+00 6.3353803437453022e+00 5.8052906499758308e+01 3 1 -1
92 1 2.0130744303660664e+00 1.0579931588536216e+01 5.7016236711969341e+01 0 -2 -1
2915 1 5.7326387208718801e+00 8.5202700810310397e+00 5.7214291184574378e+01 0 4 0
5081 1 9.3804591229753722e+00 1.1070699576299535e+01 5.6924557230221794e+01 0 0 -1
3245 1 9.8407745470264771e+00 1.6102134206432921e+00 5.3980535340410711e+01 1 -2 -1
5192 1 1.3756456030358311e+00 1.5017242193848292e+01 2.9528140457811527e+00 2 -1 0
5160 1 2.6611731401136134e+00 1.2563927045459719e+01 2.3517708739555232e+00 2 -1 0
1976 1 6.4385813303910249e+00 1.5542059249949238e+01 1.9826566722171137e+00 -4 0 1
6154 1 9.0140658436492842e+00 1.5461975040211147e+01 2.9740480119226311e+00 1 3 1
1783 1 5.3673437410392948e+00 1.3238810503441981e+01 2.9760903333007533e+00 2 -2 0
1590 1 2.3050500141404364e+00 1.7510203520677955e+01 2.0935255726028923e+00 0 0 0
445 1 9.0335327781866703e-01 1.9892646256469781e+01 2.9699523347533865e+00 -1 1 1
5249 1 4.8271741841418532e+00 1.7762630483141461e+01 3.0183193964536619e+00 0 -4 0
5059 1 6.1606428216493159e+00 1.9996598339365203e+01 1.8542548993230872e+00 1 -2 1
5205 1 8.7966308187210469e+00 2.0181595487149480e+01 2.6261053629925390e+00 1 -1 0
3606 1 2.4051087769014674e+00 2.2235255671052027e+01 2.0528725967163988e+00 1 2 1
1450 1 7.2225217193901763e+00 2.2398013826563130e+01 6.6714434707505044e+00 0 1 1
3478 1 4.8500218352670865e+00 2.2434704354987286e+01 2.8030339232766108e+00 0 1 0
1547 1 4.4636593861206473e+00 2.2145389409186894e+01 5.5439484807468560e+00 -1 -2 1
3215 1 1.5506998766543632e+00 1.4920335097839363e+01 5.8020612568138352e+00 0 1 1
3726 1 4.0120215852433150e+00 1.5099110378901154e+01 6.6465709475341894e+00 1 -1 0
151 1 4.3366493200856759e-01 1.2418241703814628e+01 6.7921880839432278e+00 2 2 0
1632 1 5.5905819989046188e+00 1.2882118932691608e+01 5.7533168176393970e+00 0 2 1
4594 1 8.1878291930219671e+00 1.2934343993303470e+01 6.3668287576950027e+00 2 1 1
5301 1 9.2150426810496331e+00 1.5376148088241413e+01 5.8587555942591925e+00 -2 1 1
4963 1 3.7725455210269239e+00 1.9691982762198005e+01 6.5928794231442831e+00 0 2 1
402 1 1.3642295691656379e+00 1.9781644383181764e+01 5.5970793839280022e+00 2 -2 0
5051 1 2.4977181120072345e-01 2.1956254340988686e+01 6.6003936619360699e+00 0 1 0
3227 1 8.6612175316001245e+00 2.0014301743871755e+01 5.5237829292336729e+00 1 2 1
6276 1 7.7035906872496556e+00 1.7730846818307231e+01 6.4956212271600489e+00 -1 0 1
4838 1 4.9527096626144482e+00 1.7492767120323638e+01 5.7815434294037091e+00 -1 0 1
2964 1 9.7946787082120785e+00 2.2664108685439118e+01 1.8397939160885459e+00 0 1 1
2868 1 3.2357162963643571e-01 1.7319637191269720e+01 6.5653376341737522e+00 1 -2 1