
# Create simulation box and atoms

read_data data.ML_graphite_m500atm_240K
  orthogonal box = (0 0 2.16312) to (49.22 49.0196 57.8989)
  5 by 4 by 8 MPI processor grid
  reading atoms ...
  6489 atoms
  reading velocities ...
  6489 velocities
group water type 1
3729 atoms in group water
group graphite type 2
2760 atoms in group graphite

# Define potential

pair_style sw
pair_coeff * * MLC_e.sw mW C


# Fix graphite atoms in place

fix 5 graphite setforce 0.0 0.0 0.0
velocity graphite set 0.0 0.0 0.0


# Equilibration of molecular water

# Add velocity/set timestep

velocity	    water create ${TEMP} ${SEED} rot yes dist gaussian
velocity	    water create 240 ${SEED} rot yes dist gaussian
velocity	    water create 240 23539 rot yes dist gaussian
timestep	    5.0

# Define output

compute			1 water msd
compute			3 water temp
thermo	    	50
thermo_style	custom step temp press vol etotal ke pe c_1[4] c_3

# Neighbor lists

neigh_modify    delay 0 every 1 check yes

# Set fixes

fix             1 water momentum 10 linear 1 1 1 rescale
fix             2 water nve
fix             3 water temp/csvr ${TEMP} ${TEMP} 500.0 ${SEED}
fix             3 water temp/csvr 240 ${TEMP} 500.0 ${SEED}
fix             3 water temp/csvr 240 240 500.0 ${SEED}
fix             3 water temp/csvr 240 240 500.0 23539
fix             4 water press/berendsen z ${PRES} ${PRES} 1000.0 modulus 20000
fix             4 water press/berendsen z -500 ${PRES} 1000.0 modulus 20000
fix             4 water press/berendsen z -500 -500 1000.0 modulus 20000

# Run 0.5 ns equilibration

dump		    1 all atom 2000 ${DIR}/eq.${NAME}-${TEMP}.dump
dump		    1 all atom 2000 run_29/eq.${NAME}-${TEMP}.dump
dump		    1 all atom 2000 run_29/eq.het_freeze_29-${TEMP}.dump
dump		    1 all atom 2000 run_29/eq.het_freeze_29-240.dump

reset_timestep  0

run	            100000
Neighbor list info ...
  update every 1 steps, delay 0 steps, check yes
  max neighbors/atom: 2000, page size: 100000
  master list distance cutoff = 6.67472
  ghost atom cutoff = 6.67472
  binsize = 3.33736, bins = 15 15 17
  1 neighbor lists, perpetual/occasional/extra = 1 0 0
  (1) pair sw, perpetual
      attributes: full, newton on
      pair build: full/bin/atomonly
      stencil: full/bin/3d
      bin: standard
Per MPI rank memory allocation (min/avg/max) = 4.067 | 4.175 | 4.485 Mbytes
Step Temp Press Volume TotEng KinEng PotEng c_1[4] c_3 
       0    137.90382   -585.46729    134476.24   -35583.071    2666.9904   -38250.061            0          240 
      50    140.43806   -628.44874    134476.88   -35584.114    2716.0012   -38300.115   0.50995095    244.41044 
     100    140.11472   -619.90535    134584.72   -35582.704     2709.748   -38292.452   0.81625394    243.84772 
     150    138.61567   -735.76107    134614.31    -35554.74    2680.7571   -38235.497    1.0658764    241.23885 
     200    139.79647   -778.92852    134571.59   -35579.653    2703.5933   -38283.246    1.3055483    243.29386 
     250    138.03333   -605.84017    134582.81   -35560.562    2669.4949   -38230.057    1.4686801    240.22538 
     300    140.18772   -535.10032    134597.41   -35514.463    2711.1598   -38225.623    1.6648986    243.97477 
     350    142.90482   -615.29718    134682.65   -35504.366    2763.7071   -38268.073    1.8123856    248.70345 
     400    140.65612   -694.20983    134768.23   -35539.097    2720.2184   -38259.315    2.0241597    244.78994 
     450    142.48536   -368.26896    134975.55   -35566.178    2755.5949   -38321.772    2.3027859    247.97344 
     500    142.37095   -783.98473     135002.1   -35584.122    2753.3823   -38337.504     2.551307    247.77433 
     550    138.06507   -805.94251    134941.39   -35592.351    2670.1089    -38262.46    2.7657118    240.28063 
     600    139.59228   -642.36331    134916.08   -35639.287    2699.6443   -38338.931     2.948624     242.9385 
     650    136.56704    -560.9045    134925.25   -35714.493    2641.1376    -38355.63    3.1516958    237.67353 
     700    138.97665   -494.89153    135026.26   -35690.701    2687.7382   -38378.439    3.3070194    241.86708 
     750    138.48935   -689.73771    135080.14   -35711.415    2678.3142   -38389.729    3.5048924    241.01902 
     800    135.66782    -450.0028    135024.31   -35749.679    2623.7472   -38373.426    3.6007254    236.10859 
     850     136.2563   -354.07351    135118.98   -35738.638    2635.1281   -38373.766      3.68521    237.13275 
     900    136.71803   -763.18761    135214.04   -35731.438    2644.0577   -38375.496    3.8496798    237.93631 
     950    134.78571   -641.49125    135258.04   -35788.373    2606.6876    -38395.06    3.9835548    234.57341 
    1000    135.52573   -607.01517    135331.29   -35773.602    2620.9992   -38394.601    4.1000057     235.8613 
    1050    138.84189    -514.7131    135300.95   -35730.766    2685.1321   -38415.898    4.1882499    241.63256 
    1100    137.13429   -568.31478    135418.33   -35692.682    2652.1081    -38344.79    4.3683282    238.66076 
    1150    138.24253   -826.92857    135380.22   -35686.178    2673.5408   -38359.719    4.5864132    240.58947 
    1200    137.79975   -394.16932    135399.92   -35676.557    2664.9776   -38341.535    4.7577112    239.81888 
    1250    136.29027   -797.22834    135486.57   -35699.728     2635.785   -38335.513    4.9219769    237.19186 
    1300    137.68309   -722.85231    135518.18   -35709.261    2662.7215   -38371.982     5.063187    239.61585 
    1350    137.97751   -567.03838    135565.65   -35735.485    2668.4154     -38403.9    5.2259261    240.12823 
    1400    137.85105   -738.55479    135649.36    -35653.32    2665.9698    -38319.29     5.433995    239.90816 
    1450    139.94804   -918.03091    135685.06   -35649.742    2706.5245   -38356.267    5.4875185    243.55764 
    1500    135.66026   -1023.3347    135624.87   -35680.001     2623.601   -38303.602     5.648237    236.09543 
    1550    138.11443   -1019.0088    135585.26   -35657.579    2671.0633   -38328.643    5.8718631    240.36652 
    1600    136.29974    -717.9737    135504.94   -35644.414    2635.9683   -38280.382    6.0424864    237.20835 
    1650    136.07621   -991.00962     135398.7   -35652.919    2631.6453   -38284.564    6.2098741    236.81933 
    1700    138.31172   -777.46013     135298.9    -35647.85    2674.8788   -38322.729    6.3588951    240.70988 
    1750    139.71247   -837.36566    135313.77   -35634.976    2701.9687   -38336.944    6.4869891    243.14767 
    1800    140.94171   -1015.8242    135229.57    -35654.99    2725.7415   -38380.732    6.6954292    245.28696 
    1850    140.92289   -757.67131    135190.63   -35660.748    2725.3777   -38386.126    6.9088244    245.25422 
    1900    137.65331   -699.06126    135180.48   -35622.803    2662.1457   -38284.948    7.0826488    239.56403 
    1950    140.03005   -657.35832     135189.3   -35640.891    2708.1106   -38349.002    7.2923449    243.70037 
    2000    139.53553   -602.47751    135210.13   -35630.296    2698.5467   -38328.842    7.3708822    242.83972 
    2050    135.26212   -867.65909     135159.7   -35642.501    2615.9012   -38258.402    7.4751766    235.40254 
    2100    140.38256   -752.15662    135153.43   -35649.539    2714.9279   -38364.467    7.6169813    244.31385 
    2150    139.13094    -977.6528    135143.52    -35689.81    2690.7222   -38380.532    7.8164372    242.13561 
    2200     138.2284   -521.96184    135159.43   -35646.075    2673.2675   -38319.343    8.0120676    240.56487 
    2250    139.08342   -678.54196    135119.39   -35712.864    2689.8031   -38402.667    8.2210646     242.0529 
    2300    140.34882    -823.0915    135012.97   -35675.845    2714.2754    -38390.12    8.2807349    244.25514 
    2350    138.38094   -767.60941    135047.76   -35643.419    2676.2176   -38319.637    8.4360586    240.83035 
    2400    138.72679   -579.17094    135048.31   -35716.545    2682.9062   -38399.451    8.5335377    241.43225 
    2450    136.17313   -328.76667    135138.08   -35684.527    2633.5196   -38318.046    8.7001281      236.988 
    2500    134.21684   -794.30969    135230.68   -35731.381     2595.686   -38327.067    8.8544807    233.58339 
    2550    136.49897    -865.6168    135226.25   -35777.306    2639.8212   -38417.127    8.9924423    237.55508 
    2600     138.3986   -835.22726    135273.86   -35768.588    2676.5592   -38445.147    9.1200991    240.86109 
    2650     135.1642    -1007.199    135169.13   -35751.501    2614.0074   -38365.508    9.2143626    235.23212 
    2700    137.04129   -669.59624     135180.5   -35707.534    2650.3095   -38357.843    9.3252071     238.4989 
    2750    138.81048   -830.28072    135193.31   -35721.342    2684.5247   -38405.867    9.5133395     241.5779 
    2800    141.73623    -597.1326     135252.5   -35697.411    2741.1072   -38438.519    9.7197035    246.66971 
    2850    135.48227   -810.14935    135254.77   -35681.459    2620.1588   -38301.617    9.8811053    235.78567 
    2900    137.26253    -623.1102    135198.21   -35747.592    2654.5882    -38402.18    9.9492848    238.88394 
    2950    137.70353   -677.31046    135147.08   -35754.238    2663.1169   -38417.355    10.053783    239.65143 
    3000    137.24202   -862.70172     135201.7   -35747.318    2654.1914    -38401.51    10.155826    238.84824 
    3050    137.98262   -830.78314    135124.45   -35710.111    2668.5143   -38378.625    10.198453    240.13713 
    3100    140.10348   -719.27936    135251.49   -35712.784    2709.5307   -38422.314    10.441543    243.82817 
    3150    140.97003   -641.80507    135323.33   -35655.933    2726.2893   -38382.223    10.620909    245.33626 
    3200    138.54828   -811.57863    135280.44   -35726.089    2679.4538   -38405.543     10.69444    241.12157 
    3250    139.47172   -782.17808    135235.36   -35712.977    2697.3127    -38410.29    10.832288    242.72867 
    3300    136.53661   -781.60558    135216.79   -35716.191    2640.5493   -38356.741    10.982559    237.62059 
    3350    138.07083   -646.52529    135168.06   -35729.478    2670.2201   -38399.698    11.095592    240.29064 
    3400     136.7664   -762.14828     135232.4   -35733.413    2644.9932   -38378.406    11.192105     238.0205 
    3450    138.00643   -760.71962    135225.11   -35727.862    2668.9747   -38396.837    11.293206    240.17857 
    3500    140.30662   -484.63214    135210.87   -35743.567    2713.4592   -38457.026    11.496786    244.18169 
    3550    136.10222   -344.75696    135340.48   -35777.442    2632.1482    -38409.59    11.701467    236.86459 
    3600    136.64457   -559.99897     135462.5   -35742.709    2642.6371   -38385.346    11.806758    237.80848 
    3650    136.90754   -678.72428    135449.19   -35789.752    2647.7227   -38437.475     11.89654    238.26612 
    3700    134.42963   -668.01018    135458.31   -35787.886    2599.8012   -38387.687    11.919126    233.95371 
    3750    135.91286   -642.03669    135434.73    -35776.11    2628.4862   -38404.596     12.08568    236.53504 
    3800    137.06003   -713.24329    135454.03   -35774.386    2650.6718   -38425.058    12.273324    238.53151 
    3850    136.81662    -557.1194    135384.43   -35758.224    2645.9644   -38404.188     12.48696     238.1079 
    3900    134.58527   -681.26774    135360.63   -35802.646    2602.8113   -38405.457    12.638273    234.22458 
    3950    137.86217    -606.0702     135349.5   -35834.645    2666.1848    -38500.83    12.738581    239.92751 
    4000    135.69986   -849.90239    135331.84   -35813.103    2624.3669    -38437.47    12.806078    236.16435 
    4050    135.00827   -745.26463     135339.8   -35742.424    2610.9918   -38353.415    12.819473    234.96074 
    4100    140.88835   -772.79102    135414.97   -35712.149    2724.7097   -38436.859    12.945862    245.19411 
    4150    138.42864   -804.71391    135437.13   -35742.594    2677.1401   -38419.734    13.125898    240.91336 
    4200    141.07866   -658.44819     135477.2   -35754.235    2728.3902   -38482.625    13.368792    245.52531 
    4250    135.71039   -1028.1593    135477.08   -35712.608    2624.5706   -38337.179    13.549079    236.18268 
    4300    138.84031   -583.02437    135418.75   -35710.859    2685.1016   -38395.961    13.669266    241.62981 
    4350    137.46634   -698.97964    135496.86   -35673.723    2658.5297   -38332.253     13.95364    239.23863 
    4400    135.36401   -698.81933    135503.58   -35756.221    2617.8717   -38374.093    14.146147    235.57986 
    4450    138.78202   -502.07637    135552.35   -35710.284    2683.9742   -38394.259    14.241029    241.52836 
    4500    136.31031    -649.8282    135616.94   -35684.352    2636.1727   -38320.524    14.446357    237.22674 
    4550    140.11547    -817.0124    135656.72    -35729.05    2709.7626   -38438.812    14.713063    243.84903 
    4600    138.87219   -997.93815    135642.48   -35670.448    2685.7181   -38356.166    14.845449    241.68529 
    4650    140.43698   -1152.4562    135473.32    -35681.02    2715.9804   -38397.001    14.839158    244.40857 
    4700    139.87055   -687.12004    135428.28   -35678.862    2705.0258   -38383.888     14.96768    243.42277 
    4750    137.92644   -909.97738    135358.07   -35723.948    2667.4279   -38391.376    15.227292    240.03937 
    4800    137.24433   -728.46668    135317.99   -35710.357     2654.236   -38364.593    15.363966    238.85225 
    4850    137.07634   -879.81068    135328.45   -35686.801    2650.9872   -38337.789    15.502053    238.55989 
    4900    140.65634   -819.90329    135209.27   -35596.791    2720.2227   -38317.014    15.608967    244.79033 
    4950    142.91547   -814.62433    135213.34   -35519.608    2763.9131   -38283.521    15.778451    248.72199 
    5000    138.70023   -743.83386    135259.55    -35615.64    2682.3925   -38298.033    15.854894    241.38602 
    5050    138.99073   -842.17956    135323.13   -35655.239    2688.0105    -38343.25     15.90496    241.89159 
    5100      137.596   -1137.8933     135257.7   -35649.271    2661.0373   -38310.309    16.080948    239.46428 
    5150    139.48549   -566.76348       135144   -35706.825     2697.579   -38404.405    16.215347    242.75265 
    5200    136.03091   -528.42028    135232.63   -35743.529    2630.7692   -38374.298    16.388901    236.74049 
    5250    136.71184   -714.77255    135271.65   -35735.589    2643.9381   -38379.527    16.600738    237.92555 
    5300     140.0732   -651.32939     135220.2   -35710.705     2708.945    -38419.65    16.709893    243.77546 
    5350    136.91718   -737.29382    135180.26   -35725.076    2647.9093   -38372.986    16.897477    238.28291 
    5400    138.49315    -834.0275    135145.98    -35737.87    2678.3876   -38416.258    17.037509    241.02563 
    5450    138.84715   -824.51336    135115.79   -35759.133    2685.2339   -38444.367    17.324016    241.64172 
    5500    136.54354   -527.12062    135078.38   -35788.471    2640.6831   -38429.154    17.592956    237.63264 
    5550    135.51377   -642.67986     135155.6   -35826.063     2620.768   -38446.831    17.696783    235.84049 
    5600    137.60913   -873.40894    135143.49   -35814.019    2661.2912    -38475.31    17.596927    239.48714 
    5650    137.32707   -532.83581    135151.66   -35787.779    2655.8363   -38443.615    17.863206    238.99626 
    5700    136.06955   -725.95487    135172.51   -35810.738    2631.5164   -38442.254    18.074142    236.80773 
    5750      135.246   -546.98969    135188.23   -35811.266    2615.5895   -38426.855    18.212458    235.37448 
    5800    134.30246   -530.60577    135286.22   -35799.977    2597.3418   -38397.319    18.412467    233.73239 
    5850    136.69571   -803.53951    135338.81    -35769.03     2643.626   -38412.656    18.538373    237.89746 
    5900    136.28535   -948.92073    135391.45   -35757.431      2635.69   -38393.121    18.731755    237.18331 
    5950    138.35747   -625.85187    135419.82   -35689.596    2675.7638   -38365.359    18.807682    240.78951 
    6000    138.38095   -834.73473    135477.39    -35713.12    2676.2178   -38389.338    18.862442    240.83037 
    6050    136.73058    -999.9293    135493.57   -35681.239    2644.3005   -38325.539    18.977477    237.95816 
    6100    137.08222   -766.77149    135442.64   -35663.349     2651.101    -38314.45    18.864197    238.57013 
    6150    142.47652   -902.11581    135379.77   -35637.297     2755.424   -38392.721     19.01626    247.95806 
    6200    138.96424   -658.83116    135503.26   -35675.965    2687.4984   -38363.463    19.048665     241.8455 
    6250    139.08519   -635.39576    135552.86   -35682.492    2689.8374   -38372.329    19.236728    242.05599 
    6300    136.01421   -586.43733    135604.45    -35721.36    2630.4461   -38351.806    19.288964    236.71142 
    6350    138.23979   -922.37042    135605.15   -35704.001    2673.4879   -38377.489    19.393593    240.58471 
    6400    137.89018   -524.07502    135564.44   -35694.071    2666.7264   -38360.798    19.459363    239.97625 
    6450    140.81779   -811.74462    135620.16   -35692.069     2723.345   -38415.414    19.590959     245.0713 
    6500    138.53076   -1074.1631    135526.58   -35687.601    2679.1149   -38366.716    19.670527    241.09108 
    6550     138.8642   -881.66755    135493.42   -35649.615    2685.5637   -38335.178    19.690314    241.67139 
    6600     141.5093   -502.16596    135524.88   -35642.394    2736.7184   -38379.112    19.734868    246.27476 
    6650    137.47999   -526.20248    135533.76   -35698.179    2658.7936   -38356.973    19.936552    239.26238 
    6700    137.81907   -547.30585    135586.57    -35696.59    2665.3512   -38361.941    20.125533    239.85249 
    6750    136.24892   -884.68071    135567.26   -35766.798    2634.9854   -38401.783    20.306189     237.1199 
    6800    132.92693   -949.91435    135500.52   -35740.503    2570.7397   -38311.242    20.450575    231.33849 
    6850    136.07911    -533.6334     135502.6   -35737.068    2631.7013   -38368.769    20.423109    236.82437 
    6900    138.08783   -805.47671    135575.15   -35709.755    2670.5489   -38380.304    20.649095    240.32023 
    6950    138.71557   -976.07819    135553.45   -35654.215    2682.6892   -38336.904    20.849346    241.41272 
    7000    137.26355   -922.82517    135513.33   -35689.627    2654.6078   -38344.235    21.077682     238.8857 
    7050    138.49661   -660.09202    135544.45   -35657.535    2678.4546    -38335.99    21.305393    241.03166 
    7100    138.04749   -863.46571    135517.13   -35638.976    2669.7688   -38308.745     21.49999    240.25003 
    7150    138.44682   -706.72897    135522.57   -35670.682    2677.4917   -38348.173    21.539655      240.945 
    7200    141.08192   -770.83128    135532.65   -35609.487    2728.4531    -38337.94    21.658738    245.53098 
    7250    143.22247   -824.05485    135544.38   -35536.404    2769.8503   -38306.254    21.747877    249.25627 
    7300    140.56589   -958.94084    135553.82   -35579.437    2718.4735    -38297.91    21.877786    244.63292 
    7350    137.57755   -945.17201    135492.82   -35639.811    2660.6804   -38300.492    22.059081    239.43218 
    7400    137.02478   -888.13559    135460.58   -35625.737    2649.9901   -38275.727    22.114006    238.47016 
    7450    138.42778   -872.92825    135423.69   -35663.701    2677.1233   -38340.825    22.132629    240.91186 
    7500    141.07115   -872.17997     135354.9   -35649.451    2728.2448   -38377.696    22.419009    245.51223 
    7550    138.46476   -688.14443     135294.7   -35661.273    2677.8387   -38339.111    22.551451    240.97623 
    7600    138.99527   -774.35187    135329.26   -35676.021    2688.0983   -38364.119    22.679759    241.89949 
    7650    135.62441   -833.16592    135363.88   -35694.689    2622.9078   -38317.597    22.901394    236.03305 
    7700    138.12057    -571.4202    135260.96   -35657.583    2671.1822   -38328.765    23.109163    240.37722 
    7750    136.78001   -582.45951    135287.88   -35694.333    2645.2564   -38339.589    23.287474    238.04418 
    7800    138.30421   -980.46177    135239.09   -35712.338    2674.7336   -38387.071    23.478666    240.69681 
    7850    135.99127   -1039.2532    135031.53   -35696.596    2630.0026   -38326.599    23.701224    236.67151 
    7900    134.33192   -774.30164    134973.65   -35742.386    2597.9115   -38340.297    23.972816    233.78366 
    7950    136.26888   -1096.9552    134854.79   -35716.069    2635.3715    -38351.44    24.079923    237.15465 
    8000    137.93266   -661.54227    134828.61   -35703.499     2667.548   -38371.047    24.237983    240.05018 
    8050    136.21269   -767.23181    134840.09    -35666.57    2634.2848   -38300.855    24.336415    237.05685 
    8100    139.64993   -569.83306    134919.92   -35672.521    2700.7592   -38373.281    24.609545    243.03883 
    8150    138.34105   -666.55327    134982.35   -35687.445    2675.4461   -38362.891    24.725691    240.76092 
    8200    138.12936   -600.68345    135013.81   -35677.902    2671.3522   -38349.254    24.932063    240.39252 
    8250    137.81993    -918.5761    134946.89   -35678.366    2665.3678   -38343.734    25.012386    239.85399 
    8300    137.88847   -707.62968    134886.94   -35664.687    2666.6935   -38331.381     25.18017    239.97328 
    8350    137.57713   -603.77336    134941.26   -35628.396    2660.6724   -38289.068    25.255653    239.43145 
    8400    136.46736    -761.1458    134905.21   -35666.385    2639.2099   -38305.595    25.337312    237.50007 
    8450    135.22159   -802.68719    134837.12    -35706.62    2615.1174   -38321.738    25.614195      235.332 
    8500     136.0584   -758.64821    134862.74    -35686.48    2631.3008   -38317.781    25.912525    236.78833 
    8550    136.35824   -824.02163    134896.56   -35692.929    2637.0996   -38330.028    26.162529    237.31016 
    8600    137.83416   -809.55551    134882.13   -35674.542    2665.6431   -38340.185    26.246997    239.87876 
    8650    138.00188   -597.44311     134858.1   -35703.488    2668.8867   -38372.375    26.344111    240.17065 
    8700    134.35758   -778.80235    134911.98   -35771.938    2598.4079   -38370.345    26.560874    233.82833 
    8750    137.60229   -678.53232    134894.82   -35741.022    2661.1589    -38402.18     26.67839    239.47523 
    8800    135.35649    -570.3455    134959.73   -35745.904    2617.7263    -38363.63    26.699036    235.56677 
    8850    136.96304    -599.8417    134961.11   -35756.526    2648.7961   -38405.322    26.758288    238.36271 
    8900    136.78564   -761.62063    134974.68   -35716.276    2645.3653   -38361.642    26.849732    238.05398 
    8950     138.4853   -688.26733    134902.48   -35673.533    2678.2358   -38351.769     26.97212    241.01196 
    9000    136.73234   -630.05232    134896.17   -35667.841    2644.3346   -38312.175    27.160371    237.96122 
    9050    138.69579   -838.18821     134864.4   -35654.847    2682.3067   -38337.154    27.254693     241.3783 
    9100    138.35595   -802.45056    134823.82   -35674.624    2675.7342   -38350.358    27.521602    240.78685 
    9150    141.12478   -652.59189    134727.18    -35600.26     2729.282   -38329.542     27.77875    245.60557 
    9200    140.44999   -336.47097    134771.47   -35590.433    2716.2319   -38306.665      27.8613     244.4312 
    9250     143.5456   -480.36049     134872.9   -35574.392    2776.0996   -38350.491    27.826003    249.81864 
    9300    141.73805   -416.29395    134946.65   -35647.651    2741.1424   -38388.793    28.026018    246.67288 
    9350    135.87915   -464.87849    135027.31   -35727.319    2627.8341   -38355.153    28.093373    236.47637 
    9400    136.75895   -660.65431    135102.22   -35703.922    2644.8492   -38348.771    28.408994    238.00753 
    9450    137.16383   -698.08852    135150.67     -35654.7    2652.6793    -38307.38    28.578673    238.71216 
    9500    136.75144   -580.74833    135142.37   -35668.792    2644.7039   -38313.496    28.757774    237.99446 
    9550    137.77012   -637.57995    135181.41   -35620.888    2664.4046   -38285.293    28.934738    239.76731 
    9600    138.27483   -826.41067    135104.27   -35566.273    2674.1654   -38240.439    29.290715    240.64568 
    9650    139.64726   -726.72723    135082.24   -35579.567    2700.7075   -38280.275    29.492898    243.03417 
    9700    137.29388   -874.57022    135068.03   -35622.221    2655.1943   -38277.415    29.622837    238.93848 
    9750    138.67921   -615.54848    135088.44   -35597.301    2681.9861   -38279.287    29.737572    241.34945 
    9800    139.74581   -713.77244    135088.98   -35546.441    2702.6134   -38249.054     29.96474    243.20569 
    9850    140.54465   -881.96294    135114.08    -35553.88    2718.0627   -38271.943    30.118885    244.59595 
    9900    136.84511   -957.69004    135026.99   -35604.073    2646.5154   -38250.588    30.285116    238.15747 
    9950    138.85173   -911.35152    135040.94   -35591.286    2685.3225   -38276.609    30.356577    241.64969 
   10000    138.91423   -943.10383    134948.68   -35622.889    2686.5311    -38309.42    30.446223    241.75845 
   10050    137.10763   -703.80522    134873.87    -35653.91    2651.5924   -38305.502    30.505608    238.61435 
   10100    138.07912   -775.60831    134892.86   -35657.149    2670.3806    -38327.53    30.697557    240.30509 
   10150    139.99913   -853.92489    134876.17   -35613.755    2707.5125   -38321.268    30.910469    243.64655 
   10200    138.25819   -664.31778    134852.01   -35597.217    2673.8436    -38271.06     30.95468    240.61671 
   10250    138.00289   -666.49146    134732.47   -35658.484    2668.9064    -38327.39    31.166444    240.17242 
   10300    137.47614    -651.9644    134629.15   -35626.207    2658.7192   -38284.926     31.41308    239.25568 
   10350    137.07435   -421.67932    134661.11   -35641.191    2650.9488    -38292.14     31.66415    238.55643 
   10400    136.55885   -1000.4316    134711.05   -35655.564    2640.9793   -38296.543    31.789972    237.65929 
   10450    138.66414   -863.95555    134624.23   -35666.065    2681.6945   -38347.759    31.895173    241.32321 
   10500    136.73364    -828.9401    134588.68   -35674.818    2644.3597   -38319.178    31.942607    237.96349 
   10550    136.57578   -778.43888    134561.92   -35686.024    2641.3067   -38327.331     32.08054    237.68875 
   10600    137.59746   -755.81054    134544.75   -35668.545    2661.0654    -38329.61    32.293944    239.46682 
   10650     138.5304    -560.7726    134632.41   -35631.136    2679.1081   -38310.244    32.526437    241.09046 
   10700    140.74716   -665.53584    134688.98   -35609.978     2721.979   -38331.957    32.708901    244.94838 
   10750    138.87303   -583.66528    134679.36   -35657.921    2685.7344   -38343.655    32.845022    241.68676 
   10800    136.74039    -462.4889    134667.38   -35610.793    2644.4901   -38255.283    33.060498    237.97522 
   10850     141.2774    -299.3242    134745.54   -35600.401    2732.2337   -38332.634    33.141105    245.87119 
   10900    141.19128    -628.1462    134853.06   -35615.161    2730.5682   -38345.729    33.243894    245.72131 
   10950    138.30203   -520.92232    135014.38   -35608.346    2674.6915   -38283.037    33.397502    240.69302 
   11000    138.41628   -511.93464    135054.65   -35565.697    2676.9011   -38242.598    33.412129    240.89186 
   11050    137.47733   -479.30702    135138.19   -35620.838    2658.7422    -38279.58    33.351344    239.25776 
   11100    139.13277    -677.8993    135192.24    -35616.12    2690.7575   -38306.878    33.526267    242.13878 
   11150    139.71922   -871.20884    135233.74   -35621.164    2702.0992   -38323.263    33.786933    243.15941 
   11200    140.12008   -605.60792    135197.65   -35569.323    2709.8517   -38279.175    34.096391    243.85705 
   11250    137.22836   -778.61586     135169.3   -35671.367    2653.9273   -38325.295     34.35464    238.82447 
   11300     139.8341   -729.67308     135177.3   -35694.227     2704.321   -38398.548    34.396028    243.35935 
   11350    139.37699   -679.93501    135114.06   -35702.562    2695.4807   -38398.043    34.670977    242.56382 
   11400    136.45307   -1011.9278    135054.14   -35703.648    2638.9336   -38342.582    34.976017     237.4752 
   11450    140.13722   -766.68445    134941.24   -35683.737    2710.1831   -38393.921    35.180039    243.88688 
   11500    136.09474    -551.7276    135034.92   -35681.652    2632.0036   -38313.655    35.314406    236.85158 
   11550    139.60779   -688.78783    135124.59   -35670.694    2699.9443   -38370.639    35.336465    242.96549 
   11600    135.55433   -888.93055    135056.85   -35690.679    2621.5524   -38312.231    35.636744    235.91108 
   11650    133.47521   -627.55064       134898   -35757.035    2581.3433   -38338.379    35.536389     232.2927 
   11700    136.67507   -700.16673    134826.67     -35716.2    2643.2268   -38359.427     35.62505    237.86154 
   11750    138.13232   -440.26756     134820.2   -35685.444    2671.4095   -38356.853    35.914982    240.39767 
   11800    137.48166   -554.95084    134900.67   -35674.256     2658.826   -38333.082    36.171232    239.26529 
   11850    136.15068   -645.15674    134946.36   -35656.808    2633.0855   -38289.893    36.518916    236.94894 
   11900    138.99408   -471.85453    134995.79   -35627.122    2688.0754   -38315.198    36.686529    241.89742 
   11950    140.18605   -648.26856    135013.69   -35608.571    2711.1274   -38319.698    36.817023    243.97185 
   12000    137.54982    -633.0858    135161.65    -35666.33    2660.1441   -38326.474    36.970925    239.38391 
   12050    138.61262   -665.13305    135120.08    -35704.95    2680.6981   -38385.648    37.270507    241.23355 
   12100    136.78509   -394.04834    135199.97   -35740.644    2645.3546   -38385.998     37.34348    238.05302 
   12150    136.14192   -525.63924    135260.36   -35752.499     2632.916   -38385.415    37.260406    236.93368 
   12200    138.58359   -746.19606     135194.8   -35742.087    2680.1368   -38422.224    37.281869    241.18304 
   12250    139.80937   -422.16301    135261.39   -35691.675    2703.8427   -38395.518    37.556241    243.31631 
   12300    137.41011   -678.28017    135349.69   -35723.131    2657.4423   -38380.573    37.850279    239.14077 
   12350    137.66591    -611.0436    135382.91   -35723.497    2662.3893   -38385.887    38.028521    239.58596 
   12400    140.84463   -720.93042    135386.06   -35723.158     2723.864   -38447.022    38.220172    245.11801 
   12450    134.49142    -715.5532    135360.79   -35772.537    2600.9963   -38373.533    38.379854    234.06125 
   12500    139.15717   -676.13869    135429.04   -35733.586    2691.2295   -38424.815    38.504216    242.18125 
   12550    140.59605   -898.48429    135428.34   -35730.708    2719.0567   -38449.765    38.658054     244.6854 
   12600    139.85477    -864.8063     135314.2   -35670.307    2704.7206   -38375.028    38.763077    243.39531 
   12650    135.99718   -621.74482    135244.98   -35708.932    2630.1168   -38339.048    38.956825    236.68178 
   12700    139.22395   -800.56782    135219.36   -35680.653     2692.521   -38373.174    39.242862    242.29748 
   12750    139.40016   -796.75973    135186.36   -35700.199    2695.9288   -38396.128    39.331369    242.60415 
   12800    140.35886   -847.05314    135063.53   -35728.679    2714.4696   -38443.149    39.590234    244.27261 
   12850    138.95948   -755.47633    135008.18   -35731.199    2687.4063   -38418.606    39.827132    241.83721 
   12900    138.37425   -872.13703    135018.77   -35756.585    2676.0882   -38432.674    39.924868    240.81871 
   12950    137.38343   -798.85604    135031.36   -35766.752    2656.9262   -38423.678    39.958953    239.09434 
   13000    136.92427    -823.3933    135027.25   -35747.408    2648.0462   -38395.455    40.242722    238.29524 
   13050    136.23543   -692.42162    135039.86   -35779.958    2634.7244   -38414.683    40.252464    237.09642 
   13100    136.66915   -669.77978    135055.81   -35797.058    2643.1125   -38440.171    40.378476    237.85125 
   13150    137.58027   -990.08172    135111.32   -35791.645    2660.7331   -38452.379    40.776289    239.43692 
   13200    136.32448   -728.70472    135189.39   -35785.684    2636.4467   -38422.131    41.013991     237.2514 
   13250    134.68359   -686.78867    135281.54   -35805.883    2604.7127   -38410.595     41.03197    234.39569 
   13300    139.72531   -817.78957    135277.29   -35773.323     2702.217    -38475.54     41.22717    243.17001 
   13350    139.60033   -579.84186    135307.57   -35800.748       2699.8   -38500.548    41.267966     242.9525 
   13400    134.95194   -914.16069    135312.12   -35859.742    2609.9025   -38469.645    41.415437    234.86272 
   13450    136.19419   -720.60939    135390.56   -35885.761     2633.927   -38519.688    41.660732    237.02466 
   13500    137.81283   -909.55224    135340.74   -35856.037    2665.2306   -38521.267    41.860366    239.84164 
   13550    135.24427   -523.15622    135381.26   -35815.901    2615.5559   -38431.457    41.984792    235.37146 
   13600    137.21491   -814.85508    135482.93   -35823.783    2653.6672   -38477.451     42.22578    238.80106 
   13650    135.60175   -732.15938    135560.54   -35811.813    2622.4694   -38434.282    42.312542     235.9936 
   13700    136.67297   -739.33128    135524.04   -35807.646    2643.1864   -38450.833    42.572167     237.8579 
   13750    135.90002   -826.35415    135480.68   -35819.251    2628.2378   -38447.489    42.724279    236.51269 
   13800    140.97121   -463.14915    135475.84    -35783.65    2726.3121   -38509.962    42.847346    245.33831 
   13850    137.97885   -451.69468    135573.14   -35795.183    2668.4414   -38463.625    43.014054    240.13058 
   13900    138.22998   -886.52098    135591.15   -35782.253    2673.2981   -38455.551    43.414046    240.56763 
   13950    137.09852   -843.09263    135414.16   -35731.426    2651.4163   -38382.843    43.710914     238.5985 
   14000    137.95866   -896.14644    135370.08   -35779.773    2668.0508   -38447.824    43.768958    240.09543 
   14050     135.9072    -863.4086    135334.89   -35760.896    2628.3767   -38389.272    43.982213    236.52519 
   14100    137.92054   -922.07637    135213.66   -35792.884    2667.3138   -38460.197    44.069156     240.0291 
   14150    139.01177   -947.93821    135071.37   -35753.725    2688.4175   -38442.142    44.197625    241.92821 
   14200    141.41342   -698.74453    135059.54   -35706.646    2734.8643    -38441.51    44.281215    246.10791 
   14250     137.8896   -689.75595    135110.52   -35750.218    2666.7153   -38416.933     44.51401    239.97525 
   14300    136.28654   -588.41551    135082.24   -35810.422     2635.713   -38446.135    44.611877    237.18537 
   14350    139.22904    -629.5039     135142.5    -35779.59    2692.6194   -38472.209     44.82924    242.30633 
   14400    135.35904    -805.1879    135081.44   -35808.862    2617.7755   -38426.638     44.88098     235.5712 
   14450     138.8167    -722.1617    135106.29    -35755.28     2684.645   -38439.925    45.110863    241.58873 
   14500    135.90067    -663.1459    135192.36   -35771.118    2628.2504   -38399.369    45.393358    236.51383 
   14550    137.68334   -760.10778    135200.32   -35768.678    2662.7263   -38431.404    45.761441    239.61628 
   14600    135.89641   -778.57083    135086.25   -35734.403     2628.168   -38362.571    45.864044    236.50641 
   14650     138.3165    -730.5675    135119.97   -35729.454    2674.9713   -38404.426    45.888324     240.7182 
   14700     137.9962   -993.11584    135076.84   -35718.591    2668.7769   -38387.367    46.107804    240.16077 
   14750    140.31567   -559.73313    135069.24   -35708.409    2713.6344   -38422.043      46.2274    244.19745 
   14800    137.64735   -397.78332     135109.2   -35713.141    2662.0303   -38375.172    46.316696    239.55365 
   14850    136.62903   -764.84623    135125.43    -35759.37    2642.3366   -38401.707     46.45968    237.78143 
   14900    138.25941   -1006.4656    135057.54   -35710.813    2673.8673    -38384.68    46.700923    240.61885 
   14950    139.48241   -695.89687    134980.55   -35731.118    2697.5194   -38428.638    46.693087    242.74728 
   15000    138.04565   -542.48473    135071.54    -35722.15    2669.7333   -38391.883    46.830869    240.24684 
   15050     132.3209   -753.18228    135134.22   -35750.029    2559.0195   -38309.049    47.131045     230.2838 
   15100    137.40741   -825.64475    135100.28   -35724.187    2657.3901   -38381.577     47.10226    239.13608 
   15150    137.40255   -798.64323    135105.19   -35738.727    2657.2961   -38396.023    47.197865    239.12762 
   15200     135.3073   -826.01997    135202.81   -35797.772     2616.775   -38414.547    47.327859    235.48116 
   15250    139.39812    -792.2538    135310.94   -35750.271    2695.8894    -38446.16    47.313256     242.6006 
   15300    136.74038   -629.27065    135275.74   -35783.282    2644.4899   -38427.772    47.418015     237.9752 
   15350    137.08887   -678.44514    135262.94   -35764.292    2651.2296   -38415.521    47.290521     238.5817 
   15400    138.31772   -559.50756    135352.15   -35705.432     2674.995   -38380.427    47.453329    240.72033 
   15450     139.1737   -962.31368    135355.83   -35717.359    2691.5491   -38408.908    47.709343    242.21002 
   15500    137.33813   -696.30858    135382.14   -35762.387    2656.0502   -38418.437     47.92916     239.0155 
   15550    136.32532   -500.03265    135443.61   -35774.109    2636.4629   -38410.572    48.197625    237.25286 
   15600     134.6919   -1009.0629    135440.43   -35840.038    2604.8733   -38444.912    48.487779    234.41014 
   15650    132.87599   -914.01403    135414.51   -35856.126    2569.7546    -38425.88    48.646327    231.24984 
   15700    133.57698    -596.0674    135401.59   -35849.711    2583.3114   -38433.022     48.80957    232.46981 
   15750    136.93074   -435.12989    135385.78   -35835.438    2648.1714    -38483.61    49.043992     238.3065 
   15800    136.19756   -650.64263    135448.55   -35772.209    2633.9922   -38406.201     49.31906    237.03052 
   15850    134.74585   -890.85393    135388.89   -35763.058    2605.9168   -38368.974    49.632959    234.50405 
   15900    135.45769     -1020.79    135291.69   -35668.551    2619.6834   -38288.235    49.783339    235.74289 
   15950    135.31977   -996.97066       135246    -35702.88    2617.0162   -38319.896    49.730231    235.50287 
   16000    137.15169   -651.84131    135283.63   -35709.627    2652.4446   -38362.072    49.856971    238.69104 
   16050    137.56384   -548.27743    135352.19   -35714.971    2660.4152   -38375.386    50.295185    239.40831 
   16100    137.73385   -885.04526    135381.03   -35727.489    2663.7032   -38391.192    50.399773    239.70419 
   16150    134.51576   -700.50017    135375.48   -35728.184    2601.4669   -38329.651    50.643053    234.10361 
   16200    136.09567   -1007.3348    135284.69   -35751.722    2632.0216   -38383.743    50.666629    236.85319 
   16250    136.57643     -1078.06       135231   -35742.967    2641.3192   -38384.286    50.731478    237.68988 
   16300    137.48795   -588.87969    135114.31   -35728.389    2658.9477   -38387.337    50.844097    239.27625 
   16350    135.52779   -930.72324    135062.37   -35729.501     2621.039    -38350.54    51.142771    235.86488 
   16400    139.07476   -803.12383    135042.66   -35706.342    2689.6357   -38395.977    51.267534    242.03783 
   16450    138.28273   -666.89927    135028.93   -35696.462    2674.3182    -38370.78    51.602845    240.65943 
   16500    138.38243   -833.10325    135014.15   -35654.505    2676.2464   -38330.751    51.788287    240.83294 
   16550    138.34882   -573.62202    135026.31   -35634.461    2675.5964   -38310.057    51.999305    240.77445 
   16600    137.20287   -714.86022    135065.16   -35612.865    2653.4343   -38266.299     52.09488     238.7801 
   16650    137.63868   -646.27244    135159.03   -35645.351    2661.8627   -38307.214    52.389055    239.53857 
   16700    138.46481   -633.60109    135266.16   -35645.762    2677.8396   -38323.602    52.584077    240.97631 
   16750    140.58545   -763.52052    135344.71   -35653.024    2718.8518   -38371.876    52.741495    244.66696 
   16800    138.68556   -838.55941    135399.26   -35633.054    2682.1088   -38315.163    52.855762     241.3605 
   16850    134.61221   -740.61122    135348.56   -35677.677    2603.3323   -38281.009    53.166744    234.27147 
   16900    137.77002   -705.11584    135355.55   -35669.801    2664.4027   -38334.204     53.40945    239.76714 
   16950    137.67814   -873.73469    135385.35   -35639.699    2662.6257   -38302.324    53.446259    239.60723 
   17000    138.66957   -634.75412    135344.24   -35637.067    2681.7994   -38318.866    53.291135    241.33266 
   17050    138.66213   -882.33728    135314.48   -35637.697    2681.6557   -38319.353    53.373058    241.31972 
   17100    137.64794   -992.53436    135260.84   -35638.121    2662.0418   -38300.163    53.610843    239.55468 
   17150    137.39977   -739.47607    135200.25   -35660.416    2657.2423   -38317.659    53.685055    239.12278 
   17200    141.61513   -881.54477       135190   -35654.942    2738.7652   -38393.707    53.775433    246.45895 
   17250     138.5111   -878.00895    135132.09   -35641.256    2678.7348   -38319.991     54.02525    241.05687 
   17300    140.49336    -570.6109    135190.91    -35605.55    2717.0707   -38322.621    54.382983    244.50668 
   17350    139.29638    -830.8041    135217.44   -35617.919    2693.9217    -38311.84    54.546113    242.42352 
   17400    139.44999   -720.86346    135203.82   -35606.205    2696.8924   -38303.098    54.495566    242.69086 
   17450    139.65399   -532.38045    135175.51   -35616.646    2700.8376   -38317.483    54.424646    243.04588 
   17500     140.4065   -672.18708    135135.97   -35640.451    2715.3909   -38355.842    54.591709    244.35552 
   17550    139.06897   -812.67273     135051.2   -35687.859    2689.5237   -38377.383    54.866541    242.02775 
   17600     137.8023   -716.77006       134922   -35667.015     2665.027   -38332.042    54.875397    239.82332 
   17650    138.48445   -762.39569    134830.46   -35728.028    2678.2195   -38406.248    55.097014     241.0105 
   17700    134.43003   -632.16016       134834   -35727.797     2599.809   -38327.606    55.228232    233.95441 
   17750    135.31815   -772.57065    134886.36   -35703.084    2616.9848   -38320.069    55.535823    235.50004 
   17800    135.79863   -850.22866    134920.01   -35683.053    2626.2771    -38309.33    55.778429    236.33625 
   17850    139.62333   -482.77739    134952.64   -35683.258    2700.2448   -38383.502    55.907376    242.99253 
   17900     136.0873   -773.12453    135009.57   -35680.628    2631.8598   -38312.488    56.078928    236.83863 
   17950    137.10504   -863.37813    135052.25   -35628.961    2651.5423   -38280.503     56.32475    238.60985 
   18000    138.98053   -678.12529    135044.29   -35627.575    2687.8133   -38315.388    56.429942    241.87384 
   18050    138.43588   -661.45834    135205.79   -35617.348    2677.2801   -38294.628    56.665448    240.92596 
   18100    138.28585   -408.71239    135286.68   -35658.787    2674.3786   -38333.166    56.837291    240.66486 
   18150    136.97126   -561.59646    135294.62   -35639.207    2648.9551   -38288.162    56.849449    238.37703 
   18200     140.0457   -720.94052    135371.44   -35620.746    2708.4132   -38329.159     56.95035     243.7276 
   18250    139.15234   -837.60164    135336.99    -35635.59    2691.1361   -38326.726    57.117279    242.17285 
   18300    137.55626   -891.17006    135278.49   -35681.418    2660.2686   -38341.687    57.266742    239.39512 
   18350    139.33128   -639.34415    135265.36   -35697.368    2694.5967   -38391.965    57.534676    242.48427 
   18400    137.46281   -888.24623    135207.98   -35725.405    2658.4614   -38383.866    57.814403    239.23249 
   18450    136.83972   -862.99753     135174.7   -35712.531    2646.4111   -38358.942    57.994008    238.14809 
   18500    137.87251   -519.82416    135232.16   -35722.668    2666.3849   -38389.053    58.113448    239.94551 
   18550    136.17748   -899.34408    135218.92   -35742.211    2633.6039   -38375.814    58.187234    236.99558 
   18600     136.3239   -712.68235    135161.53   -35767.097    2636.4355   -38403.532    58.239689     237.2504 
   18650     138.3206    -353.8542    135239.47   -35731.275    2675.0506   -38406.326    58.560958    240.72534 
   18700    138.66001   -671.48218    135275.94   -35696.297    2681.6147   -38377.912     58.74117    241.31603 
   18750    138.63913   -520.95096    135293.83   -35637.034    2681.2109   -38318.245    58.803874    241.27969 
   18800    139.98709   -745.68574    135362.03   -35636.743    2707.2797   -38344.023    59.218173     243.6256 
   18850    138.76567   -828.57148    135287.81   -35599.343     2683.658   -38283.001    59.527469     241.4999 
   18900    139.72404    -818.6469    135173.49   -35632.812    2702.1924   -38335.005    59.799141     243.1678 
   18950     140.2808    -674.9475    135170.87   -35605.669    2712.9599   -38318.629    60.050451    244.13675 
   19000    138.99049   -541.07137    135159.27   -35630.452    2688.0059   -38318.458    60.344825    241.89117 
   19050    140.55498   -926.90027    135311.12    -35579.45    2718.2624   -38297.713    60.821699    244.61393 
   19100    137.75146    -775.1569    135308.25   -35630.025    2664.0437   -38294.069    61.059593    239.73483 
   19150    138.11475   -967.35231    135355.31   -35673.366    2671.0695   -38344.435    61.194465    240.36708 
   19200     136.9035   -1036.1984    135334.63     -35665.2    2647.6446   -38312.844    61.545552    238.25909 
   19250    136.48486   -864.28024    135299.14    -35693.17    2639.5483   -38332.718    61.759925    237.53051 
   19300     141.3639   -927.96674    135293.42   -35662.617    2733.9065   -38396.524    61.885366    246.02172 
   19350    141.09706   -786.73474    135325.41   -35649.011    2728.7459   -38377.757    61.843011    245.55733 
   19400    138.65117   -832.69554       135380   -35676.337    2681.4437   -38357.781    61.832001    241.30064 
   19450     136.8554   -488.98586     135464.3   -35693.751    2646.7145   -38340.466    61.876666    238.17539 
   19500    138.51435   -722.49237    135550.64   -35726.337    2678.7976   -38405.135    61.945074    241.06252 
   19550    139.64102   -819.48539    135535.52   -35725.303    2700.5868   -38425.889    62.059519    243.02332 
   19600    138.51204   -908.43568    135577.41    -35695.97     2678.753   -38374.723    62.168033    241.05851 
   19650      142.137   -641.72855    135526.56   -35654.564     2748.858   -38403.422    62.137714    247.36719 
   19700    138.65724   -904.02473    135461.94     -35669.6    2681.5612   -38351.161    62.376229    241.31121 
   19750    138.14515   -764.87616    135372.74   -35701.099    2671.6576   -38372.757    62.519695       240.42 
   19800    136.02101   -1037.5459    135256.32   -35694.665    2630.5778   -38325.242    62.628751    236.72327 
   19850    136.56626   -618.06646    135161.72   -35693.688    2641.1226   -38334.811    62.853042    237.67219 
   19900    140.76187   -542.79627    135220.37   -35689.681    2722.2636   -38411.944    63.022572    244.97399 
   19950    139.41621   -492.28713    135310.91   -35739.337    2696.2391   -38435.576    62.990485    242.63207 
   20000    137.06854   -574.76612    135309.73   -35732.369    2650.8364   -38383.205    62.895934    238.54632 
   20050    134.25165   -792.27474    135274.92   -35728.649    2596.3592   -38325.008    63.004497    233.64397 
   20100    138.44917   -828.95324    135225.83   -35734.888    2677.5371   -38412.425    63.239141    240.94909 
   20150    135.62404   -715.23721    135244.99   -35759.705    2622.9006   -38382.606    63.411234     236.0324 
   20200    139.43375   -731.37369    135307.55   -35730.088    2696.5784   -38426.667    63.706235     242.6626 
   20250    139.06461   -662.86076    135312.23   -35700.051    2689.4394    -38389.49    63.812323    242.02016 
   20300    137.69136    -712.2412    135315.39   -35693.751    2662.8814   -38356.632    64.046699    239.63023 
   20350    139.70027   -682.03262    135268.93   -35713.831    2701.7327   -38415.564    64.383498    243.12643 
   20400    139.38285   -889.64855    135242.01   -35690.997    2695.5941   -38386.591    64.468121    242.57402 
   20450    137.26335   -686.62718    135245.08   -35755.713    2654.6039   -38410.317    64.722671    238.88535 
   20500    136.59716   -801.63681    135265.33   -35751.635    2641.7203   -38393.356    64.978459    237.72597 
   20550    137.82051   -882.11578    135297.56   -35729.898    2665.3791   -38395.277    65.297064    239.85501 
   20600    137.74764   -965.57637    135288.09   -35772.611    2663.9698   -38436.581    65.433346    239.72818 
   20650    138.20664   -733.64765    135259.85   -35782.135    2672.8466   -38454.982    65.657647      240.527 
   20700    135.35432   -473.46835    135345.74   -35849.755    2617.6843   -38467.439    65.584477    235.56299 
   20750    135.52181   -745.27425    135311.68   -35852.907    2620.9234    -38473.83    65.925898    235.85448 
   20800    135.23228   -965.24403    135195.54   -35832.041     2615.324   -38447.365    66.164277    235.35059 
   20850    136.51462   -700.30517    135188.11   -35812.735    2640.1239   -38452.859    66.322963    237.58231 
   20900     135.1818   -793.97872    135211.32   -35812.106    2614.3479   -38426.454    66.607209    235.26275 
   20950    133.52146   -658.76793    135246.88   -35834.607    2582.2377   -38416.845    66.816331    232.37319 
   21000     138.3961   -991.95244    135372.16    -35813.59    2676.5108     -38490.1    66.868703    240.85673 
   21050    135.63883   -817.01676    135389.39   -35800.498    2623.1866   -38423.685    67.119772    236.05814 
   21100    138.92069   -809.34449     135406.8   -35727.778     2686.656   -38414.434    67.110604    241.76969 
   21150    139.17344   -870.98967    135455.05   -35700.114     2691.544   -38391.658     67.40515    242.20956 
   21200    138.36662   -762.08521    135536.77   -35692.731    2675.9407   -38368.671    67.652874    240.80543 
   21250    134.78906   -863.31811    135473.39   -35681.258    2606.7523    -38288.01    67.794842    234.57924 
   21300     138.8448   -837.92053    135478.69   -35722.177    2685.1884   -38407.365      67.8115    241.63763 
   21350    137.20172   -761.90691    135416.26   -35757.941    2653.4121   -38411.353    67.937696     238.7781 
   21400     138.3034   -556.47637     135526.4   -35706.179     2674.718   -38380.897    68.059624     240.6954 
   21450    137.57291   -524.22953    135642.62   -35708.559    2660.5906    -38369.15    68.252929    239.42409 
   21500    141.83709   -483.09872    135736.01   -35723.107    2743.0577   -38466.165     68.66255    246.84523 
   21550    137.83526   -526.44839    135834.01   -35687.746    2665.6643   -38353.411    68.841815    239.88067 
   21600        139.8   -629.18819    135877.34   -35680.741    2703.6616   -38384.403    69.129046    243.30001 
   21650    139.61271   -480.37103    135963.31   -35701.076    2700.0395   -38401.115     68.95955    242.97406 
   21700    142.15381   -516.20833    136069.56   -35670.118     2749.183   -38419.301    68.884895    247.39643 
   21750    139.15393   -946.32243     136054.2   -35679.786    2691.1668   -38370.952    69.197638    242.17561 
   21800    138.61402   -613.84812    136004.29   -35712.466    2680.7253   -38393.191    69.255186    241.23599 
   21850    137.97389   -621.36053    136008.29    -35748.25    2668.3455   -38416.595    69.151001    240.12195 
   21900    139.74203    -707.3605    136021.67   -35727.566    2702.5404   -38430.107     69.22416    243.19911 
   21950    138.55515   -741.99425    135932.11     -35716.2    2679.5867   -38395.787    69.206211    241.13354 
   22000    140.61416   -837.12719    135947.44   -35727.378     2719.407   -38446.785    69.151272    244.71692 
   22050    139.34363   -848.09059    135965.99   -35751.495    2694.8356   -38446.331    68.986222    242.50577 
   22100    137.59381    -739.0287    135941.12   -35796.996    2660.9949    -38457.99    68.991328    239.46047 
   22150    136.71141   -966.30492    135818.12   -35846.063    2643.9297   -38489.993     68.91231    237.92479 
   22200    136.38426   -804.86061     135772.9   -35860.532    2637.6028   -38498.135    68.987869    237.35544 
   22250    136.34559   -696.15388    135713.54    -35864.94    2636.8549   -38501.795    69.101996    237.28813 
   22300    136.86698   -651.58862    135753.95   -35858.329    2646.9383   -38505.267    69.086309    238.19553 
   22350    136.25423    -821.1148    135580.44   -35869.001    2635.0881   -38504.089    69.167845    237.12915 
   22400    137.38157   -631.48462    135557.48    -35865.86    2656.8902    -38522.75     69.20191     239.0911 
   22450    134.48871   -917.88696    135602.57   -35846.882    2600.9438   -38447.825    69.248043    234.05653 
   22500    138.34798   -538.10044    135574.07   -35776.829    2675.5801   -38452.409    69.422961    240.77299 
   22550    137.14616   -705.46573    135612.02   -35796.161    2652.3376   -38448.498    69.571474    238.68141 
   22600    135.72425   -1042.0813    135572.85   -35822.384    2624.8385   -38447.222    69.702355    236.20679 
   22650    135.84251     -809.922    135466.63   -35800.348    2627.1257   -38427.474    69.884779    236.41262 
   22700    138.33023   -887.79294     135371.8   -35716.314    2675.2369   -38391.551    70.165418     240.7421 
   22750    138.88086   -745.66274       135378   -35741.312    2685.8857   -38427.198    70.307846    241.70038 
   22800    138.57521   -691.20406    135387.26   -35740.241    2679.9747   -38420.215    70.422503    241.16845 
   22850     140.2288   -668.23648    135494.81   -35759.325    2711.9542   -38471.279    70.548909    244.04625 
   22900    136.11879   -830.34529    135510.65   -35785.582    2632.4687    -38418.05    70.745421    236.89343 
   22950    137.87581   -826.81999    135464.07    -35775.08    2666.4486   -38441.529    70.792749    239.95125 
   23000    135.92458   -728.35229    135446.63    -35832.77    2628.7128   -38461.483    71.204216    236.55543 
   23050     138.6944   -530.93579    135517.54   -35794.655    2682.2798   -38476.935    71.407121    241.37588 
   23100    136.23148   -546.93795    135560.79   -35773.582     2634.648    -38408.23    71.566149    237.08954 
   23150    139.53089    -728.3001    135587.67   -35746.246    2698.4571   -38444.703    71.615075    242.83166 
   23200    137.80769   -941.17295    135585.53    -35773.76    2665.1312   -38438.891    71.778892    239.83269 
   23250    137.25411   -556.02939     135569.8   -35797.915    2654.4253    -38452.34    72.053938    238.86928 
   23300    136.47081   -935.18317    135558.99   -35833.678    2639.2766   -38472.955     72.19489    237.50607 
   23350    136.71272   -709.08139    135509.96   -35819.134    2643.9551   -38463.089    72.371535    237.92707 
   23400    134.76032   -811.95989    135537.02   -35858.562    2606.1966   -38464.759    72.481936    234.52923 
   23450    137.20102   -848.22634    135503.48   -35858.774    2653.3985   -38512.173     72.67467    238.77688 
   23500     136.2226   -730.06514    135524.68   -35773.217    2634.4764   -38407.693    72.883927     237.0741 
   23550    140.30982   -753.01767    135614.38   -35772.882    2713.5211   -38486.403    72.974983    244.18725 
   23600    135.68302   -807.99706    135603.33   -35766.479    2624.0411    -38390.52    73.243673    236.13504 
   23650     140.2309   -820.48357    135635.99   -35676.733    2711.9949   -38388.728    73.607324    244.04991 
   23700    138.70779   -691.03513    135685.28    -35708.97    2682.5386   -38391.509    73.712904    241.39917 
   23750    138.23958   -839.95922    135677.81   -35725.684    2673.4838   -38399.168    73.591001    240.58434 
   23800    134.97823   -682.72037    135681.56   -35748.231    2610.4109   -38358.642    73.755595    234.90847 
   23850    139.93174    -715.5765     135669.3   -35751.494    2706.2092   -38457.703    73.839879    243.52927 
   23900    138.44763   -747.98445    135646.41    -35705.17    2677.5074   -38382.678    74.025229    240.94642 
   23950    137.99359   -710.61819    135725.86   -35727.526    2668.7264   -38396.253    74.216555    240.15622 
   24000    136.43911   -736.82797    135711.51   -35738.062    2638.6635   -38376.726    74.125217    237.45089 
   24050    139.21163   -457.08962    135772.95   -35742.282    2692.2826   -38434.565    74.215704    242.27603 
   24100    135.52601   -851.72074    135810.26   -35813.995    2621.0046   -38434.999    74.404274    235.86179 
   24150    136.41924    -570.5257    135910.82   -35826.962    2638.2793   -38465.242    74.704434    237.41632 
   24200    137.36171   -1108.9596    135974.39   -35780.468    2656.5062   -38436.974    74.886676    239.05654 
   24250    138.03489   -755.41583    135931.55   -35748.737    2669.5251   -38418.262    74.984218     240.2281 
   24300    136.82632    -813.8976    135906.54   -35690.813    2646.1519   -38336.965    74.954357    238.12477 
   24350    139.69526   -891.92049    135807.69   -35633.885    2701.6359   -38335.521    74.931265    243.11772 
   24400     139.0506   -841.09619    135703.59   -35682.135    2689.1685   -38371.304    75.100817    241.99579 
   24450    139.33807   -903.04108    135676.09   -35696.405     2694.728   -38391.133    75.399429    242.49609 
   24500    139.21633    -947.4105    135564.99   -35717.115    2692.3737   -38409.489    75.774171    242.28422 
   24550    138.69739   -886.49829    135473.64   -35695.601    2682.3376   -38377.938    75.811893    241.38108 
   24600    138.60371   -874.52551    135435.39   -35711.761    2680.5258   -38392.287    75.981376    241.21804 
   24650    139.46209   -850.18419    135383.76   -35678.094    2697.1266    -38375.22    76.037421    242.71193 
   24700    140.81861   -855.37047    135313.47   -35637.458    2723.3609   -38360.819    76.185873    245.07273 
   24750    142.36896   -857.48491    135278.42   -35670.079    2753.3438   -38423.423    76.456666    247.77087 
   24800    136.62708   -703.89072    135334.99   -35711.158    2642.2988   -38353.457    76.733331    237.77803 
   24850    139.95338   -750.94022    135273.31   -35709.666    2706.6278   -38416.294    76.977233    243.56693 
   24900    136.71227   -957.35093    135284.55   -35707.623    2643.9464   -38351.569    77.026971     237.9263 
   24950    136.88457   -701.51251    135281.13   -35680.156    2647.2785   -38327.435    77.037468    238.22615 
   25000    139.11356   -926.66227    135175.26   -35707.245    2690.3861   -38397.631    77.343836    242.10536 
   25050    137.77512   -645.11949    135127.03   -35682.271    2664.5014   -38346.772    77.289691    239.77602 
   25100    136.54986    -605.1919    135155.66   -35768.359    2640.8054   -38409.164    77.342721    237.64364 
   25150    137.29907   -678.78089    135139.37    -35789.38    2655.2948   -38444.675    77.678392    238.94753 
   25200    132.79767   -684.90038     135139.9   -35790.275      2568.24   -38358.515    77.854698    231.11354 
   25250    137.21011   -787.15568    135120.92   -35769.996    2653.5743    -38423.57    77.825568     238.7927 
   25300    137.72483   -514.67883    135137.71   -35743.278    2663.5288   -38406.807    77.698441    239.68849 
   25350    137.92421   -793.91326    135081.35   -35723.409    2667.3847   -38390.793    78.154881    240.03549 
   25400    139.94803   -872.40387    135017.37   -35754.496    2706.5243    -38461.02    78.462493    243.55762 
   25450    140.03827   -845.02441    134928.05   -35706.379    2708.2695   -38414.648    78.691463    243.71467 
   25500    137.42127   -714.99293    134868.67   -35657.202     2657.658    -38314.86     78.68316    239.16018 
   25550    138.01135   -526.49962    134953.98   -35640.983    2669.0699   -38310.053     78.87107    240.18714 
   25600    140.81278   -442.58845    135000.48   -35627.639    2723.2482   -38350.888    79.087781    245.06259 
   25650    137.30105   -831.37689     135038.8   -35707.943     2655.333   -38363.276    79.128074    238.95097 
   25700    139.02241   -1002.7538    135136.96   -35710.554    2688.6232   -38399.177    79.213237    241.94672 
   25750    135.80424   -387.30292    135082.07   -35681.885    2626.3855    -38308.27     79.26769      236.346 
   25800    139.00548   -644.86012    135069.01   -35693.774    2688.2958    -38382.07    79.355633    241.91726 
   25850    136.41696   -820.00177    135065.13   -35680.541    2638.2353   -38318.777    79.498768    237.41236 
   25900    138.16158   -849.00391    135063.97   -35703.009    2671.9753   -38374.984    79.458914    240.44859 
   25950      138.155   -807.92329    135064.85   -35704.731    2671.8481   -38376.579    79.615971    240.43714 
   26000    136.60517   -604.39133    135094.29    -35718.63     2641.875   -38360.505    79.810498    237.73989 
   26050    139.34137   -521.54675    135201.71    -35669.61    2694.7918   -38364.402    79.927904    242.50183 
   26100    137.85765   -785.96747    135262.34   -35631.575    2666.0975   -38297.672    80.234086    239.91965 
   26150    141.16862   -892.18679    135320.85   -35624.345    2730.1299   -38354.475    80.593348    245.68187 
   26200    140.28445   -892.99123    135331.01   -35663.641    2713.0306   -38376.672    80.797699    244.14311 
   26250    137.73921   -611.87906    135237.78   -35660.276    2663.8068   -38324.083    80.833418    239.71352 
   26300    137.26191   -735.51961    135187.26   -35681.222    2654.5762   -38335.798    80.927972    238.88286 
   26350     141.3169   -788.32237    135214.19   -35687.804    2732.9975   -38420.802    81.092702    245.93992 
   26400    136.57905   -602.80653    135240.46   -35710.773    2641.3699   -38352.143    81.024305    237.69444 
   26450    136.92733    -676.1291    135171.53   -35736.425    2648.1054   -38384.531    81.073527    238.30056 
   26500    135.63504   -801.56956    135125.59   -35761.775    2623.1132   -38384.888    80.989027    236.05153 
   26550    137.16836   -744.76965    135072.72   -35715.553    2652.7669    -38368.32    81.174755    238.72005 
   26600    138.10014   -758.96202    135137.87   -35683.004     2670.787   -38353.791    81.317397    240.34166 
   26650    140.46743   -793.49938    135116.38    -35677.21    2716.5693    -38393.78    81.445414    244.46156 
   26700    134.77444   -815.68269    135068.11   -35650.838    2606.4696   -38257.307    81.430663    234.55379 
   26750    140.10337   -704.16235    135012.48   -35576.599    2709.5285   -38286.127    81.523319    243.82797 
   26800    138.68107   -859.29182    135051.13   -35649.419     2682.022   -38331.441    81.692147    241.35268 
   26850    138.28217   -783.49129    135044.85   -35677.621    2674.3073   -38351.929     81.93802    240.65845 
   26900    134.62691   -704.60534    135138.87   -35688.319    2603.6166   -38291.935    82.088655    234.29705 
   26950     135.6833   -723.49303    135159.66   -35670.745    2624.0466   -38294.791    82.112406    236.13553 
   27000    138.74589   -1070.4784    135158.67   -35675.426    2683.2755   -38358.702    82.252342    241.46548 
   27050    137.32714    -961.9629    135186.51   -35646.517    2655.8376   -38302.355     82.53879    238.99638 
   27100    138.10615   -885.66461    135130.87     -35640.2    2670.9032   -38311.103     82.55249    240.35211 
   27150    134.65229   -705.51526    135113.41   -35689.675    2604.1073   -38293.782    82.779162    234.34121 
   27200    137.68093   -896.27673    135162.16   -35717.729    2662.6798   -38380.409    83.039384     239.6121 
   27250    138.93765   -737.30242    135152.59   -35761.533    2686.9841   -38448.517    83.312074    241.79922 
   27300    135.03284   -628.68653     135255.6   -35755.266    2611.4671   -38366.733    83.541004    235.00351 
   27350    136.31155   -689.12857    135275.64   -35698.837    2636.1966   -38335.033    83.785123    237.22889 
   27400      137.157   -607.94272    135345.55   -35699.115    2652.5472   -38351.663    83.953681    238.70027 
   27450    139.18953   -545.31183    135347.57   -35647.753    2691.8552   -38339.608    84.122834    242.23757 
   27500    138.73021   -690.48865       135337       -35686    2682.9723   -38368.972    84.347058     241.4382 
   27550     134.5892   -835.46092    135296.39   -35694.383    2602.8873    -38297.27     84.50755    234.23142 
   27600    136.60611   -878.22347    135168.66   -35736.735    2641.8933   -38378.628    84.512773    237.74154 
   27650    137.16623   -795.89164     135070.7   -35696.081    2652.7257   -38348.807     84.87581    238.71633 
   27700    137.43494   -776.39622    135076.68   -35662.463    2657.9224   -38320.386    85.145897    239.18398 
   27750    137.57433   -584.31168    135023.84    -35620.01    2660.6182   -38280.629    85.206866    239.42658 
   27800    136.78251   -744.46473    135133.91   -35627.844    2645.3048   -38273.149    85.350812    238.04854 
   27850    137.98253   -903.33853    135197.87   -35615.701    2668.5126   -38284.213     85.76233    240.13698 
   27900    137.25793   -740.26775    135197.04   -35576.591    2654.4992    -38231.09    85.637612    238.87593 
   27950    138.72415   -742.05887     135196.6   -35591.091    2682.8551   -38273.946    85.931928    241.42765 
   28000     136.7428   -857.61347    135178.44   -35654.011    2644.5368   -38298.547     85.81103    237.97942 
   28050    138.80249   -679.54226    135169.67   -35624.356    2684.3701   -38308.726    86.149008    241.56398 
   28100    137.95038   -1014.9589    135203.18   -35598.722    2667.8908   -38266.613    86.672831    240.08103 
   28150     139.3968   -670.62243    135139.91   -35622.759    2695.8638   -38318.623    86.401747    242.59829 
   28200    140.35774    -813.8598    135261.56   -35603.269    2714.4478   -38317.717    86.220793    244.27065 
   28250    136.77634   -1060.2773    135188.92   -35577.608    2645.1853   -38222.794    86.470327    238.03779 
   28300    139.62699   -781.29881    135129.65   -35569.282    2700.3156   -38269.598    86.630838    242.99891 
   28350    140.01342   -731.30869    135129.47   -35580.505    2707.7888   -38288.294    86.551767    243.67142 
   28400    136.98997   -645.85648    135119.25   -35599.392    2649.3168   -38248.709    86.671362    238.40957 
   28450    138.45618   -683.28958    135111.07   -35665.401    2677.6727   -38343.074    86.894601    240.96129 
   28500    135.41885   -644.06756    135075.15   -35656.895    2618.9323   -38275.827    86.852486     235.6753 
   28550    138.50837   -560.17686    134979.68   -35678.835    2678.6821   -38357.517    87.135127    241.05213 
   28600    140.10794   -665.84322    135048.47   -35625.534    2709.6169   -38335.151    87.507239    243.83592 
   28650    142.36186   -730.85269    135126.82   -35585.758    2753.2065   -38338.965    87.490275    247.75851 
   28700    142.02032   -733.50529    135098.15   -35558.223    2746.6014   -38304.824    87.654317    247.16412 
   28750    138.40933   -576.94809    135111.28   -35631.185    2676.7666   -38307.952    87.741058    240.87975 
   28800    137.98918   -860.37879    135135.62   -35660.019    2668.6411    -38328.66    87.806646    240.14854 
   28850    138.25005   -628.28514    135190.29   -35690.681    2673.6863   -38364.367    87.813478    240.60256 
   28900    137.88883   -413.89665    135180.23   -35709.734    2666.7005   -38376.434    88.167729    239.97392 
   28950    138.14253   -802.93087    135241.58   -35680.892    2671.6068   -38352.499    88.302946    240.41542 
   29000    137.68519   -694.37435    135220.41   -35719.299    2662.7621   -38382.062    88.548622     239.6195 
   29050    140.39358   -843.85982    135148.37   -35694.814     2715.141   -38409.955    88.695524    244.33303 
   29100    137.99835   -702.27573    135033.08   -35676.562    2668.8185    -38345.38    88.706063    240.16451 
   29150    138.11491   -801.15419    134987.49   -35668.466    2671.0727   -38339.539    88.850931    240.36736 
   29200    140.58872    -469.1345    135011.47    -35600.75    2718.9149   -38319.665    89.072332    244.67264 
   29250    139.03985   -476.06032    135099.05   -35621.919    2688.9607    -38310.88    89.313747    241.97709 
   29300    139.75078   -884.48162    135055.16   -35603.985    2702.7095   -38306.695    89.337268    243.21433 
   29350    137.52256   -752.19302    134966.15   -35637.233    2659.6169    -38296.85    89.119309    239.33647 
   29400    138.66771   -533.46949     134951.4   -35686.863    2681.7636   -38368.627     88.86912    241.32943 
   29450    138.60051   -723.67603    135009.14   -35703.214     2680.464   -38383.678    88.997321    241.21248 
   29500    139.51804   -673.45177    134996.16   -35717.606    2698.2085   -38415.814    89.400163    242.80929 
   29550    139.54697   -331.34896    135006.46   -35717.172     2698.768    -38415.94     89.50809    242.85964 
   29600    138.83808   -632.42392    135039.22   -35719.201    2685.0584   -38404.259    89.424863    241.62593 
   29650    138.03658   -663.37846    134981.26   -35710.664    2669.5578   -38380.222    89.420836    240.23104 
   29700    135.85744   -746.87491    134991.13   -35710.337    2627.4144   -38337.751     89.60757    236.43859 
   29750    136.32709   -791.43873     134968.8   -35711.297    2636.4971   -38347.794    89.386701    237.25594 
   29800    137.75235   -674.69288    134868.05   -35698.456    2664.0611   -38362.517    89.744693    239.73639 
   29850    134.60159   -763.36478    134855.12   -35675.005     2603.127   -38278.132    90.058572    234.25299 
   29900    139.07875   -514.53621    134864.75   -35680.101    2689.7129   -38369.814    90.155023    242.04478 
   29950    138.56092   -788.02503    134940.74   -35642.378    2679.6983   -38322.076    90.317906    241.14357 
   30000    140.23016   -869.90497    135000.32   -35633.928    2711.9805   -38345.908    90.415464    244.04862 
   30050    136.35016   -704.72818    135041.15   -35670.264    2636.9434   -38307.208    90.665587     237.2961 
   30100    137.44664   -861.71599    135090.93   -35737.517    2658.1486   -38395.665    91.054191    239.20434 
   30150    134.62546   -498.64107    135008.94   -35794.529    2603.5885   -38398.117     91.04577    234.29453 
   30200    140.02388   -564.29001    134939.14    -35722.25    2707.9912   -38430.241     91.54637    243.68963 
   30250    137.39108    -739.7711     135012.8   -35740.408    2657.0742   -38397.482    91.836843    239.10765 
   30300    137.34471   -1005.7989    134947.87   -35734.284    2656.1774   -38390.462    91.933816    239.02695 
   30350    136.43436   -754.41187    134872.37   -35736.099    2638.5716    -38374.67    92.203741    237.44262 
   30400    136.21838    -762.4806    134810.34   -35762.442    2634.3947   -38396.837    92.149582    237.06675 
   30450    137.28012   -848.76929    134708.93   -35684.753    2654.9283   -38339.681    92.211398    238.91455 
   30500    140.48547   -681.98196    134674.11   -35643.013    2716.9181   -38359.931    92.328997    244.49295 
   30550    140.77804   -744.40493    134616.87   -35621.525    2722.5763   -38344.102     92.61198    245.00213 
   30600    137.67514   -895.41924    134549.83   -35673.446    2662.5677   -38336.014    92.728492    239.60201 
   30650    136.21274   -435.81133    134577.72   -35645.863    2634.2858   -38280.149    92.906636    237.05694 
   30700    140.92713   -524.50199    134567.47   -35620.278    2725.4597   -38345.737    92.956445     245.2616 
   30750    137.31296   -679.93158    134556.55   -35644.197    2655.5634    -38299.76    93.030416     238.9717 
   30800    137.81453   -736.81815    134503.17   -35638.112    2665.2635   -38303.375    93.111024     239.8446 
   30850    134.53598    -872.1818    134479.43   -35635.948    2601.8581   -38237.806    93.104761     234.1388 
   30900    139.15386   -738.07677    134378.46   -35630.942    2691.1655   -38322.108    93.252819     242.1755 
   30950    136.36616   -895.07696     134265.8   -35664.708    2637.2527   -38301.961    93.632449    237.32393 
   31000    134.06208    -821.7761    134177.14   -35699.486     2592.693   -38292.179    93.711867    233.31405 
   31050     137.0738   -400.33631     134214.4   -35687.655    2650.9381   -38338.593    93.855781    238.55547 
   31100    138.46521   -503.93422    134255.33    -35655.89    2677.8473   -38333.738    94.163427    240.97701 
   31150    138.33468   -751.98657     134243.8   -35684.045    2675.3229   -38359.368    94.494823    240.74984 
   31200    138.84213   -631.65947    134232.38   -35667.688    2685.1368   -38352.824    94.713111    241.63298 
   31250    138.59786   -400.77997    134320.43   -35654.004    2680.4127   -38334.417    94.847964    241.20786 
   31300     138.7671   -630.86556    134393.68   -35630.193    2683.6856   -38313.878    94.958471    241.50239 
   31350    139.13542   -524.52782    134425.58   -35634.106    2690.8089   -38324.915    95.049056    242.14341 
   31400    138.84715   -365.90853    134450.79   -35651.169    2685.2339   -38336.403    95.261268    241.64172 
   31450    139.73084   -527.79743    134492.21   -35626.881     2702.324   -38329.205    95.444587    243.17964 
   31500     141.5834   -411.97376     134467.7    -35614.98    2738.1516   -38353.131    95.173012    246.40373 
   31550    141.76804   -646.87281     134452.6   -35611.667    2741.7223    -38353.39    95.350059    246.72506 
   31600    138.13492   -493.52092     134503.7   -35651.136    2671.4597   -38322.596    95.482733    240.40219 
   31650    139.15335   -596.42114    134534.71   -35661.723    2691.1555   -38352.878    95.889023     242.1746 
   31700    138.03409   -660.46278    134534.79     -35655.8    2669.5096    -38325.31    96.179162     240.2267 
   31750    139.72496    -703.1517    134506.36   -35642.709    2702.2102   -38344.919    96.454904     243.1694 
   31800     138.0746   -537.14265    134556.36     -35640.4     2670.293   -38310.693     96.56675     240.2972 
   31850     138.1593   -617.13514    134521.75   -35641.768    2671.9312     -38313.7    96.931263    240.44462 
   31900    137.38781    -643.8999    134569.99   -35654.395    2657.0109   -38311.406    97.048013    239.10196 
   31950     137.4569   -752.44774    134598.61   -35627.114    2658.3471   -38285.461    97.487957     239.2222 
   32000    137.33681   -688.30407    134634.04   -35613.165    2656.0246   -38269.189    97.340823     239.0132 
   32050    136.94862   -836.48679    134585.13   -35652.405    2648.5172   -38300.922    97.637651    238.33761 
   32100    135.76119   -734.53923    134564.58   -35669.299    2625.5529   -38294.852     97.88687    236.27108 
   32150    136.63429   -441.98677    134564.42   -35652.441    2642.4382   -38294.879    98.049594    237.79057 
   32200    135.93483    -641.7358    134572.77   -35651.268     2628.911   -38280.179    98.552323    236.57327 
   32250    136.70028    -415.6216    134603.97   -35656.995    2643.7145   -38300.709    98.598964    237.90542 
   32300    137.58582   -568.28546    134679.94   -35646.157    2660.8403   -38306.998    98.909461    239.44656 
   32350    138.23345   -903.98821    134720.73   -35682.366    2673.3652   -38355.731    99.103442    240.57367 
   32400    137.51474   -827.06246    134774.38   -35649.142    2659.4657   -38308.608    99.524075    239.32286 
   32450     138.0157   -610.60086    134815.96   -35633.083    2669.1541   -38302.237    99.443638    240.19471 
   32500    136.10197    -585.3807     134854.3     -35623.8    2632.1435   -38255.943    99.664881    236.86416 
   32550    134.06659   -606.07291    134844.51   -35637.656    2592.7802   -38230.436    100.07876     233.3219 
   32600    134.92466   -468.72284     134863.7    -35633.24    2609.3748   -38242.615    100.42018    234.81523 
   32650    136.91037   -698.96041    134849.08   -35652.884    2647.7776   -38300.661    100.70883    238.27106 
   32700    135.02521   -614.05697    134789.73   -35643.649    2611.3194   -38254.968    100.82532    234.99022 
   32750    135.41994   -657.04946    134784.48   -35644.046    2618.9534   -38262.999    101.15264     235.6772 
   32800    136.03568    -612.8231    134747.55   -35601.024    2630.8615   -38231.886    101.82859     236.7488 
   32850    137.61893   -561.78667    134826.28    -35621.84    2661.4806   -38283.321    101.89618    239.50418 
   32900     136.7776   -740.79954    134896.89   -35660.069    2645.2098   -38305.279    102.13536    238.03999 
   32950     136.2191   -869.41193    134883.13   -35641.254    2634.4087   -38275.663     102.1906    237.06801 
   33000     138.5287   -764.79317    134854.93   -35602.724    2679.0751   -38281.799    102.43379     241.0875 
   33050    138.25666   -772.21882    134800.91   -35579.097    2673.8141   -38252.912    102.59091    240.61407 
   33100    135.52895   -782.15966    134718.72   -35579.294    2621.0615   -38200.355    102.75747    235.86691 
   33150    139.48235   -664.36201    134647.28    -35501.95    2697.5183   -38199.468    103.31284    242.74718 
   33200    137.45313    -449.9767    134591.04   -35527.377    2658.2741   -38185.651    103.53734    239.21564 
   33250    140.53494   -744.47963    134637.04   -35527.022    2717.8749   -38244.896    103.62543    244.57905 
   33300    139.38008   -398.85009    134638.55   -35538.714    2695.5405   -38234.255    103.71714     242.5692 
   33350    141.97742   -804.84369     134690.5    -35544.79    2745.7718   -38290.562    104.14438    247.08947 
   33400    138.17754   -777.68046    134728.88   -35527.781     2672.284   -38200.065    104.45555    240.47637 
   33450     138.3909   -676.12004     134788.4   -35566.356    2676.4102   -38242.767    105.00606    240.84768 
   33500    141.45716   -841.15302    134817.72   -35572.697    2735.7101   -38308.407    105.32632    246.18403 
   33550    141.32239   -597.17299    134940.03   -35536.832    2733.1038   -38269.936    105.62416    245.94949 
   33600    140.88177   -945.45749     134952.5   -35521.465    2724.5824   -38246.047    105.63394    245.18265 
   33650    139.30716   -851.20363    134873.64   -35588.599    2694.1301   -38282.729    105.56759    242.44228 
   33700    137.48281   -758.65662    134830.08   -35620.514    2658.8482   -38279.363    105.49695    239.26729 
   33750     138.5733     -707.494     134857.7   -35640.141    2679.9377   -38320.079    105.58929    241.16512 
   33800    137.69193   -579.22012    134920.12   -35596.884    2662.8925   -38259.777    105.78518    239.63123 
   33850    140.47436   -782.20337    134979.49   -35605.564    2716.7033   -38322.267    106.06242    244.47362 
   33900    136.52555   -478.24276    134980.33   -35672.508    2640.3354   -38312.843     106.1364    237.60134 
   33950    138.52405   -830.05032    134988.26   -35714.479    2678.9853   -38393.464    106.36649    241.07941 
[...]
   92000    136.12302   -421.06216    134696.91   -35671.263    2632.5505   -38303.814    299.72226    236.90078 
   92050     135.2584   -682.40803    134725.29   -35704.005    2615.8293   -38319.834    299.75866    235.39606 
   92100    136.58275   -869.32387    134707.62   -35768.573    2641.4415   -38410.014    300.21716    237.70088 
   92150    138.79815   -709.14178    134709.04   -35706.257    2684.2862   -38390.543    300.16582    241.55643 
   92200    135.19987   -788.78537    134683.58   -35713.075    2614.6972   -38327.772    300.73969    235.29419 
   92250     136.4568   -400.50612    134745.33   -35709.414    2639.0057    -38348.42    301.04986    237.48169 
   92300    136.85701   -1036.3531    134767.95   -35663.704    2646.7456   -38310.449    301.25968    238.17819 
   92350     136.6424    -583.3901     134823.9   -35640.782     2642.595   -38283.377    301.67827    237.80469 
   92400    135.50956   -825.66965    134803.38    -35620.88    2620.6866   -38241.566    302.26167    235.83317 
   92450      138.403   -618.20632    134855.42     -35663.7    2676.6443   -38340.344    302.50097    240.86874 
   92500    139.02486   -791.18996    134886.07   -35632.465    2688.6707   -38321.136    302.60047    241.95099 
   92550    136.25532   -626.76014    134925.26   -35646.764    2635.1091   -38281.873    303.03015    237.13104 
   92600    135.55245   -884.67737    134978.45   -35677.275    2621.5159   -38298.791    303.20264     235.9078 
   92650    137.82824   -719.60464    134939.99   -35657.335    2665.5287   -38322.864    303.69467    239.86846 
   92700    137.31254   -672.45043    134887.87   -35657.286    2655.5552   -38312.842    304.05084    238.97096 
   92750    136.69541   -578.27887    134962.48   -35690.734    2643.6203   -38334.354    303.92269    237.89695 
   92800    141.17744   -716.90484    135022.43   -35687.347    2730.3005   -38417.648    304.32239    245.69722 
   92850    135.40434   -947.02983    135034.39   -35655.364    2618.6515   -38274.016    304.68337    235.65003 
   92900    139.71626    -743.3065    135046.12   -35684.347    2702.0421   -38386.389     304.3602    243.15427 
   92950    136.44867   -785.03173    135059.71   -35679.184    2638.8485   -38318.033    304.52533    237.46754 
   93000     141.3504   -643.13433    135086.06   -35620.713    2733.6454   -38354.359    304.82645    245.99822 
   93050    139.50428   -711.96716    135192.51   -35643.456    2697.9424   -38341.398    304.89136    242.78535 
   93100    137.69184   -891.29284    135209.88   -35602.096    2662.8907   -38264.987    305.40972    239.63108 
   93150    135.30642   -819.28489    135205.06   -35635.628    2616.7579   -38252.386    305.79103    235.47963 
   93200    135.80278   -803.35138    135123.28   -35683.466    2626.3572   -38309.823    305.60069    236.34346 
   93250    135.72019   -681.62415    135009.08   -35665.926    2624.7601   -38290.686     305.3577    236.19973 
   93300    138.76401   -562.00001    134970.49   -35675.186    2683.6259   -38358.812    305.96336    241.49702 
   93350     137.2631   -491.28437    135037.31   -35683.316    2654.5992   -38337.915    306.42096    238.88493 
   93400    135.97493   -611.27617    135028.67   -35678.481    2629.6866   -38308.167     306.3036    236.64307 
   93450    136.01811   -954.33018    134997.81   -35717.176    2630.5216   -38347.698    306.18967    236.71821 
   93500    138.19751   -816.88903    134963.65   -35701.124    2672.6702   -38373.794    306.70771    240.51112 
   93550      138.181   -540.71061    134858.98   -35712.924    2672.3509   -38385.275     306.6964    240.48239 
   93600    139.23332   -757.55999    134927.21   -35627.015    2692.7022   -38319.717     307.1558    242.31378 
   93650    139.83195   -997.39107    134944.02   -35655.373    2704.2793   -38359.653    307.12204     243.3556 
   93700    137.26057   -528.89806    134883.73   -35628.382    2654.5501   -38282.932    307.50736    238.88051 
   93750    137.45535   -648.21656    134899.61    -35640.56    2658.3171   -38298.877    307.61861     239.2195 
   93800    134.85038   -602.90483    134937.13   -35675.905    2607.9384   -38283.843    307.45885    234.68597 
   93850    139.82898   -670.38039     134959.9   -35635.743    2704.2219   -38339.965    307.38307    243.35043 
   93900    137.86192   -704.49285    134961.64   -35629.374      2666.18   -38295.554    306.97295    239.92707 
   93950     137.4775   -516.78453    134992.23   -35633.205    2658.7455   -38291.951    307.35837    239.25806 
   94000    140.01673   -696.84896    135000.44   -35642.025    2707.8529   -38349.878    307.85418    243.67718 
   94050    138.84386   -669.72321    134999.93   -35636.054    2685.1702   -38321.224    307.97282    241.63599 
   94100     138.9877   -697.20714    134982.56   -35675.599    2687.9519   -38363.551    307.40783    241.88631 
   94150    141.56423   -615.11385    135015.95   -35687.476    2737.7807   -38425.257    307.47238    246.37036 
   94200    139.03684   -854.26368    135023.44   -35655.113    2688.9023   -38344.015    307.52868    241.97184 
   94250    140.59201   -954.49933    134984.51   -35701.413    2718.9786   -38420.391    307.17088    244.67837 
   94300    137.66077    -630.4469    134960.82   -35693.127    2662.2899   -38355.417     307.2335    239.57701 
   94350    138.36147   -898.04837    134930.18   -35667.179    2675.8411    -38343.02    307.15961    240.79647 
   94400    137.93301   -971.94003    134791.39   -35669.429    2667.5548   -38336.984    307.02058     240.0508 
   94450    138.79788   -591.12142    134765.11   -35631.404     2684.281   -38315.685    306.92282    241.55597 
   94500    138.13711   -844.00341    134726.87   -35678.637    2671.5021   -38350.139    306.88232      240.406 
   94550      137.476   -695.98338    134658.14   -35709.932    2658.7165   -38368.649    306.78773    239.25544 
   94600    138.89883   -633.65489    134619.83   -35695.252    2686.2334   -38381.485    306.52729    241.73166 
   94650    138.52592   -630.61636    134652.94   -35674.421    2679.0213   -38353.443     306.4335    241.08266 
   94700    138.55561   -381.03309    134760.99   -35695.168    2679.5957   -38374.763     306.3581    241.13434 
   94750    137.34077   -782.61826    134706.03   -35698.555    2656.1012   -38354.657    306.44994    239.02009 
   94800    136.79007   -788.00697    134723.06   -35752.447     2645.451   -38397.898    306.16499     238.0617 
   94850    136.85721    -796.4851    134707.43   -35735.825    2646.7494   -38382.575    306.25534    238.17853 
   94900    137.55255   -848.15731    134520.69   -35713.569    2660.1969   -38373.766    306.55056    239.38866 
   94950    135.61973   -628.80395    134498.94   -35699.403    2622.8172   -38322.221    307.00846     236.0249 
   95000    138.85977   -511.56639    134416.58   -35681.019    2685.4779   -38366.497    307.42841    241.66368 
   95050    137.99613   -788.00573    134447.01   -35660.307    2668.7756   -38329.082    307.26153    240.16065 
   95100     138.0334   -638.87666       134487   -35709.932    2669.4964   -38379.428     307.3527    240.22552 
   95150    137.32557   -635.81866    134427.85   -35691.137    2655.8072   -38346.944    307.28059    238.99364 
   95200    139.83065   -808.66729    134509.65   -35670.281    2704.2542   -38374.535    307.98103    243.35333 
   95250    138.27859   -846.40377    134566.58   -35680.102    2674.2382    -38354.34    308.58234    240.65222 
   95300    140.09056    -819.6503    134639.03   -35639.405    2709.2808   -38348.686    308.64784    243.80568 
   95350    139.77904    -668.4455    134626.09   -35695.528    2703.2562   -38398.784    308.97112    243.26353 
   95400    138.74099   -896.92056    134662.91   -35732.294    2683.1808   -38415.475    308.83083    241.45696 
   95450    136.27936   -756.06936    134640.99   -35705.785     2635.574   -38341.359    308.68528    237.17287 
   95500    134.42425   -723.83474    134686.05   -35724.548    2599.6973   -38324.246    308.31333    233.94436 
   95550    136.84813   -842.54871    134696.65   -35734.271    2646.5738   -38380.845    307.90104    238.16273 
   95600    140.43572   -871.51917    134697.51   -35745.729     2715.956   -38461.685    307.98212    244.40637 
   95650    138.34104   -664.53902    134688.92   -35719.274     2675.446    -38394.72    308.21118    240.76091 
   95700    135.94139   -475.33978     134728.9   -35708.797     2629.038   -38337.835    307.93087     236.5847 
   95750    139.99622   -965.61558    134733.52   -35674.216    2707.4563   -38381.672    307.92946     243.6415 
   95800     142.0487   -739.80647    134682.32   -35636.127    2747.1502   -38383.277    308.08282     247.2135 
   95850     138.5891   -954.91241    134781.22    -35672.12    2680.2434   -38352.364     308.4388    241.19263 
   95900    139.13553   -870.32902    134767.68   -35696.313    2690.8109   -38387.123    308.37134    242.14359 
   95950    138.72317    -931.3335    134715.49   -35635.016    2682.8361   -38317.852    308.70757    241.42594 
   96000    139.83371   -778.45749    134742.19   -35626.677    2704.3135    -38330.99    308.72246    243.35868 
   96050    141.16953   -826.71312    134708.88   -35629.229    2730.1476   -38359.376    309.11314    245.68346 
   96100    140.34203   -708.34767    134607.34    -35663.49    2714.1441   -38377.634    309.82872    244.24332 
   96150    138.53014   -588.14067    134636.24     -35645.8    2679.1031   -38324.903    310.17272    241.09001 
   96200    137.51773   -585.28437    134676.85   -35635.903    2659.5235   -38295.426    310.36228    239.32806 
   96250    140.72348   -723.69726     134718.8   -35696.554    2721.5212   -38418.075    310.75773    244.90718 
   96300    138.25643   -710.76426    134825.21   -35693.104    2673.8097   -38366.914    310.65428    240.61366 
   96350    141.08012   -639.77535    134831.56   -35667.821    2728.4183   -38396.239    310.91586    245.52784 
   96400    137.20067   -634.30701    134903.74   -35722.521    2653.3918   -38375.913    310.60857    238.77627 
   96450    136.69167    -957.9975    134854.84   -35715.194     2643.548   -38358.742    310.50419    237.89044 
   96500    139.73087   -778.67583    134827.52    -35710.83    2702.3245   -38413.154    310.79242    243.17969 
   96550    138.40791   -814.73181    134842.65   -35748.007    2676.7391   -38424.746    310.79246    240.87728 
   96600    136.93629   -819.36507    134811.07   -35765.676    2648.2787   -38413.955    310.61604    238.31615 
   96650    137.26145   -498.54921    134783.64   -35755.957    2654.5671   -38410.525    310.76537    238.88204 
   96700    135.91757    -653.4506    134881.17   -35725.135    2628.5772   -38353.712     310.7227    236.54323 
   96750    137.61101   -680.17461    134945.45   -35701.371    2661.3275   -38362.699    310.70203    239.49041 
   96800    137.93442   -730.60155    134971.88   -35751.945     2667.582   -38419.527    311.02361    240.05324 
   96850    138.80515   -433.66858    135008.07   -35722.434    2684.4216   -38406.855    310.86655    241.56862 
   96900    139.66748    -854.9887    135032.64   -35725.027    2701.0986   -38426.126    310.99683    243.06936 
   96950    137.49164   -702.36348    134983.74   -35780.145     2659.019   -38439.164    311.13611    239.28267 
   97000    139.40875   -681.06694    134994.71   -35707.788    2696.0948   -38403.883    311.60746    242.61908 
   97050    138.35479   -697.26352    134960.08   -35708.465    2675.7118   -38384.177    311.44734    240.78483 
   97100    141.36543   -797.18196    134951.07   -35683.771    2733.9362   -38417.707    311.23628    246.02439 
   97150    139.81884   -557.75707    134992.97   -35667.295    2704.0258    -38371.32    310.82825    243.33278 
   97200     138.8518   -822.80664    134996.04    -35665.66    2685.3238   -38350.984    310.90208    241.64981 
   97250     137.5975   -506.45314    134953.99   -35728.425    2661.0662   -38389.491    310.87002    239.46689 
   97300    140.08021   -599.50963    135004.21   -35758.109    2709.0807    -38467.19     310.6856    243.78767 
   97350    135.66751   -744.91479    134987.88   -35798.411    2623.7412   -38422.152    310.47828    236.10805 
   97400    135.43819   -691.35936    135017.57   -35803.587    2619.3062   -38422.894    310.71822    235.70895 
   97450    138.06398   -660.48332     134982.4   -35781.111    2670.0878   -38451.198     310.6467    240.27873 
   97500    138.24573    -795.0463    134892.73   -35748.974    2673.6027   -38422.576    311.36046    240.59504 
   97550    137.92432   -776.36128    134874.96   -35787.909    2667.3868   -38455.296    311.37886    240.03568 
   97600    136.46452   -611.08775    134958.77    -35808.16    2639.1549   -38447.315    311.54041    237.49511 
   97650    135.15905   -801.60299    135057.92   -35841.193    2613.9079   -38455.101    311.71633    235.22316 
   97700    135.30698   -613.25962    135106.55   -35871.889    2616.7688   -38488.658    312.31198    235.48061 
   97750    135.85581   -333.70504    135252.88   -35795.009    2627.3828   -38422.391    312.73073    236.43575 
   97800     138.1594   -1009.3685     135279.6    -35741.32     2671.933   -38413.253    312.86777    240.44478 
   97850    141.62064   -481.17112    135185.71    -35716.29    2738.8717   -38455.162    312.73869    246.46853 
   97900    137.06524   -688.97252     135255.5   -35713.602    2650.7726   -38364.374    312.95666    238.54058 
   97950    137.97171   -632.85672    135308.12   -35716.176    2668.3033    -38384.48    313.35907    240.11815 
   98000    139.99486   -534.95124    135298.61   -35728.323    2707.4301   -38435.754    313.38414    243.63913 
   98050    137.35018   -692.96464    135308.77   -35733.863    2656.2832   -38390.147    313.87218    239.03647 
   98100    138.53953   -764.00812    135303.62    -35740.02    2679.2846   -38419.305    313.84746    241.10635 
   98150    140.44538   -880.98531    135296.74   -35754.082    2716.1428   -38470.225    313.77272    244.42318 
   98200    140.03152    -638.0181    135243.74   -35719.439    2708.1389   -38427.578    313.59073    243.70292 
   98250    137.31211   -197.77149    135278.59   -35742.965     2655.547   -38398.512    313.67988    238.97023 
   98300    135.99649   -648.88023    135327.46   -35762.315    2630.1035   -38392.418    313.87247    236.68059 
   98350     140.5219   -620.27613    135295.43   -35723.382    2717.6227   -38441.004    313.78067    244.55635 
   98400    136.67311   -816.36689    135257.15   -35746.187    2643.1891   -38389.376    313.56318    237.85814 
   98450    137.13247   -470.46381    135253.13   -35738.152    2652.0728   -38390.225     313.9985    238.65758 
   98500    138.34692   -524.40775    135342.46   -35762.678    2675.5597   -38438.237    314.69978    240.77114 
   98550    137.53797   -891.47546    135274.81   -35773.693     2659.915   -38433.608    315.00484     239.3633 
   98600    137.43653   -906.62707    135202.01   -35759.582    2657.9531   -38417.535    315.22869    239.18675 
   98650    137.85899   -644.00234    135258.81   -35775.983    2666.1234   -38442.107     315.5737    239.92198 
   98700    137.16512   -609.50922    135219.15   -35801.609    2652.7042   -38454.313    315.78207     238.7144 
   98750    132.77694   -728.51833    135192.87   -35834.845     2567.839   -38402.684    315.78039    231.07746 
   98800    135.25923   -692.01585    135227.47   -35882.162    2615.8453   -38498.008    316.44929     235.3975 
   98850    136.31002   -552.53471    135213.07   -35793.093     2636.167    -38429.26    316.51489    237.22623 
   98900    137.98066   -580.70293    135240.49   -35782.225    2668.4764   -38450.701    316.57121    240.13373 
   98950    140.33286   -623.69725    135186.34   -35784.962    2713.9668   -38498.929    316.33939    244.22736 
   99000    137.48239   -816.43937    135255.93   -35763.036    2658.8401   -38421.876    315.83735    239.26656 
   99050    138.37306   -568.63155    135303.27   -35750.843    2676.0652   -38426.908    315.73186    240.81664 
   99100    136.05088   -585.27051    135322.79   -35746.175    2631.1554   -38377.331    315.97869    236.77524 
   99150    138.01736   -661.62123     135344.1   -35756.613    2669.1861   -38425.799    315.47575    240.19759 
   99200    139.14617   -621.64527    135291.97   -35735.274    2691.0168   -38426.291     315.4319    242.16211 
   99250    138.56472   -594.45605    135331.29    -35720.88    2679.7719   -38400.652    315.52892     241.1502 
   99300    137.65158    -663.2871    135397.78   -35704.341    2662.1122   -38366.453    315.62584    239.56102 
   99350    135.76824   -670.28541    135387.24   -35720.897    2625.6893   -38346.587    315.95559    236.28336 
   99400    139.08728   -554.67527    135415.49   -35693.727    2689.8778   -38383.604    315.63637    242.05962 
   99450    134.41526   -719.84413    135442.67   -35710.873    2599.5233   -38310.396     315.8541     233.9287 
   99500    138.20677   -631.80544    135360.53   -35663.559    2672.8491   -38336.408    315.93359    240.52722 
   99550    137.42884   -718.36644    135312.44   -35706.362    2657.8045   -38364.167    315.78183    239.17337 
   99600    141.00847   -469.64037    135331.22   -35745.154    2727.0327   -38472.187    315.94428    245.40315 
   99650    135.19793   -742.93255    135359.94   -35769.485    2614.6597   -38384.145    316.27259    235.29081 
   99700    138.33635   -513.23239    135321.56   -35740.064    2675.3553   -38415.419    315.74804    240.75275 
   99750    138.49539    -598.5271    135314.64    -35727.59    2678.4311   -38406.021    315.65176    241.02954 
   99800    135.08613   -735.43406    135326.44   -35700.597    2612.4977   -38313.095    315.79563    235.09625 
   99850    138.78099   -858.87922    135299.62   -35653.028    2683.9544   -38336.983    315.91929    241.52658 
   99900    137.01505   -653.27764    135309.33    -35641.84    2649.8019   -38291.642    316.08334    238.45322 
   99950    138.64433   -713.26674    135258.07   -35608.565    2681.3115   -38289.877    316.10955    241.28874 
  100000    135.39803   -620.26171    135260.94   -35648.393    2618.5297   -38266.923    316.43119    235.63907 
Loop time of 124.715 on 160 procs for 100000 steps with 6489 atoms

Performance: 346.389 ns/day, 0.069 hours/ns, 801.826 timesteps/s
98.0% CPU use with 160 MPI tasks x no OpenMP threads

MPI task timing breakdown:
Section |  min time  |  avg time  |  max time  |%varavg| %total
---------------------------------------------------------------
Pair    | 14.828     | 34.439     | 91.797     | 523.5 | 27.61
Neigh   | 0.373      | 0.77681    | 2.4674     |  78.5 |  0.62
Comm    | 9.3303     | 34.219     | 93.918     | 566.4 | 27.44
Output  | 0.18835    | 0.19125    | 0.34311    |   2.8 |  0.15
Modify  | 8.8814     | 54.002     | 97.617     | 575.8 | 43.30
Other   |            | 1.087      |            |       |  0.87

Nlocal:    40.5562 ave 109 max 21 min
Histogram: 101 19 0 5 15 0 0 0 2 18
Nghost:    522.769 ave 887 max 350 min
Histogram: 80 0 1 39 0 0 0 0 20 20
Neighs:    0 ave 0 max 0 min
Histogram: 160 0 0 0 0 0 0 0 0 0
FullNghs:  3253.76 ave 13625 max 765 min
Histogram: 120 0 0 0 20 0 0 0 0 20

Total # of neighbors = 520602
Ave neighs/atom = 80.2284
Neighbor list builds = 5998
Dangerous builds = 0

write_data		${DIR}/data.eq-${NAME}-${TEMP}
write_data		run_29/data.eq-${NAME}-${TEMP}
write_data		run_29/data.eq-het_freeze_29-${TEMP}
write_data		run_29/data.eq-het_freeze_29-240
undump          1

reset_timestep  0

unfix           2
unfix           3
unfix           4


################################################
#######         Run Simulation         #########
################################################

log				${DIR}/log.run_${NAME}
log				run_29/log.run_${NAME}
log				run_29/log.run_het_freeze_29
