LAMMPS data file via write_data, version 16 Mar 2018, timestep = 6000000

6768 atoms
2 atom types

2.3632133431213020e-01 4.8983678665681410e+01 xlo xhi
2.3535932082433675e-01 4.8784276609589341e+01 ylo yhi
-7.4023737034542236e-01 6.0802237370345765e+01 zlo zhi

Masses

1 18.015
2 12.01

Atoms # atomic

5242 1 4.0891531534981844e+00 2.7934221672619279e+00 7.5807004631056363e-01 0 -3 0
6673 1 6.1627470130626083e-01 8.3969852926106525e-01 3.9088402803337701e+00 2 -1 1
6356 1 2.8252403719523085e+00 5.8609250020126280e-01 7.1600743086379648e-03 0 -1 1
5137 1 7.7691800461448413e+00 1.0970827743312652e+00 3.4471493463150105e-01 0 1 1
3052 1 8.1582896258368116e+00 8.1204450497522751e-01 2.9974888536288367e+00 1 1 1
2118 1 6.9159005195758709e+00 2.0932532130022803e+01 -2.4993287055836516e-01 1 0 0
6465 1 1.1712540701827688e+01 3.3982527685488266e+00 3.7900975675525528e-01 0 1 1
3560 1 1.3722297494339240e+00 9.4423147720248952e+00 1.1335952948371952e+01 2 -1 0
1333 1 1.2133866651558160e+01 2.9427590209524430e+00 7.3787787204339388e+00 0 0 1
4938 1 2.6973466049542583e+00 5.0958079004780528e+00 -1.1319894046253265e-01 -2 1 1
4836 1 1.1238009775681043e+01 2.2818939224149648e+01 1.1250739230953839e+01 3 1 1
3868 1 4.3930367466694298e+00 7.2510242712624766e+00 7.2271120602495831e-01 1 -2 1
1388 1 7.9090790178090939e+00 5.3759534568850800e+00 3.6554088689725028e-01 0 0 1
6675 1 8.2007399588277163e+00 5.3509721528337479e+00 3.1709520968818063e+00 0 -1 1
160 1 5.1911682162974104e-01 2.3017076340815276e+01 1.1472153957164428e+00 0 -1 0
3078 1 1.2044092810969161e+01 7.4971413672795100e+00 4.6591383353668370e-01 -1 1 1
5371 1 5.5251507778899267e-01 1.8402114948935562e+01 1.2554313479510757e+00 0 0 0
5622 1 9.0594237617210887e+00 1.0016507338429483e+00 1.0735062018931348e+01 -1 -1 1
1650 1 3.0029612467098561e+00 9.7670956537810696e+00 2.5987946063247924e-01 2 0 1
622 1 4.4404520841626134e+00 1.2037595377698407e+01 1.1376902139647505e+00 0 1 1
6617 1 1.2014366987498313e+01 3.1502260005748588e+00 3.0089800734387007e+00 2 1 1
2173 1 8.1239777986761137e+00 9.8288460384955609e+00 6.8118616459789183e-01 1 -2 0
3432 1 7.1056313571189165e+00 7.5243385047946640e+00 -2.8580079037324230e-01 2 1 1
1451 1 4.9881971744097725e-01 1.4056073553697669e+01 9.6880008733277911e-01 -2 1 1
1428 1 1.1894184552029060e+01 1.2204424558729285e+01 5.4515079530073951e-01 -4 -2 1
3386 1 1.1923616464514469e+01 1.1908090186640392e+01 3.3040698395819348e+00 0 2 1
4707 1 8.2887525441319490e+00 9.6384610091292142e+00 3.4246398378435270e+00 2 0 1
4953 1 5.5064467996421751e-01 9.4143694319460636e+00 3.6429759735919456e+00 2 1 1
6754 1 3.0037395730137275e+00 1.4187982271860767e+01 1.6948158379923628e-01 2 2 1
1867 1 4.3775504616934695e+00 1.6270972854279403e+01 9.9504300562835479e-01 0 -2 0
3405 1 8.1186033556406230e+00 1.4377898191943208e+01 9.2285065041795677e-01 1 2 1
3092 1 7.5078039330807700e-01 1.8071170376002762e+01 3.8918901007538720e+00 0 1 1
4911 1 9.9271852607587341e-01 5.1970416094212650e+00 1.1181308909727381e+01 1 2 0
2335 1 1.2009899501191397e+01 1.6665488322265315e+01 2.8685966317111835e+00 -1 1 1
4978 1 3.0843348459065942e+00 1.8576992356199955e+01 9.7140092011538393e-02 0 -1 1
426 1 1.0365258318607868e+01 1.4235470415779925e+01 -5.0993281982976679e-01 0 -2 0
4793 1 8.3130159585027226e+00 1.8584207163477004e+01 2.7201351310079813e-01 -1 1 1
3046 1 1.1908002350556632e+01 1.6567745659554024e+01 2.8206766252309046e-01 -2 -2 1
3782 1 1.2212761997183982e+01 7.6107139084910367e+00 3.2809719241008599e+00 3 0 1
3750 1 2.8284257049218757e+00 2.2783085848057819e+01 -2.6501593726255868e-01 1 1 0
4979 1 4.5386527611797804e+00 2.0886758947628330e+01 6.8396731906798869e-01 1 0 1
4823 1 1.0598287254051087e+01 5.6467831807057118e+00 -4.9581353241215481e-01 0 1 1
4719 1 6.8271295154746063e+00 1.6346780247260632e+01 -2.6069581196879055e-01 0 -2 1
5703 1 8.1795950069915229e+00 2.3137983049311188e+01 5.3370532945041904e-01 -3 1 0
137 1 8.0524967953326794e+00 2.2963120795818543e+01 3.2103822883294133e+00 1 0 1
5512 1 1.0850652173164269e+01 2.3444126071924369e+01 -5.5973546209998304e-01 2 0 0
3708 1 4.5443106744046141e-01 2.2523411055308859e+01 3.8995519768713116e+00 1 -1 0
5636 1 1.1611663068224640e+01 2.1116718623464337e+01 5.2692997378072359e-01 0 -1 1
3139 1 2.0608108684805755e+00 2.9338723043752055e+00 4.6745012405734991e+00 0 0 1
269 1 7.5073379408588128e+00 3.0081096486340257e+00 1.1416361691862853e+01 -3 -1 0
201 1 6.0153291780435660e+00 9.9378866762133078e-01 6.7553593603143911e+00 -1 1 0
1901 1 5.7114447148754195e+00 6.4197205649477196e-01 4.1757766438594910e+00 -1 1 0
5509 1 4.7289368846416471e+00 2.7367497035951880e+00 3.3006475485841280e+00 0 -1 0
6744 1 9.4221483859153992e+00 3.1482131118316632e+00 3.7926130048291951e+00 0 2 1
450 1 9.3988809584137574e+00 2.9473668282007051e+00 6.5440511948495006e+00 1 1 1
4941 1 1.8877931546071731e+00 7.2550991206700388e+00 4.8146029910767396e+00 4 1 1
4010 1 2.0942296515480918e+00 7.3421897365463265e+00 7.6749636903842724e+00 3 1 0
1447 1 4.2149156878035638e+00 7.7454350658757267e+00 3.4799174467044756e+00 0 1 1
1745 1 1.0091643271264279e+00 2.2486538233623161e+01 8.4151314953881791e+00 1 0 1
3938 1 5.7025293509406945e+00 5.2237841183534428e+00 4.2624472784949745e+00 -1 2 0
5042 1 5.8436770516845300e+00 5.0410767535482579e+00 7.0559865224936260e+00 2 0 1
5318 1 9.5787116045171192e+00 7.4016778889233521e+00 4.1628998930863910e+00 2 -1 0
4995 1 9.6482480265501565e+00 7.4173991964604973e+00 6.9964142778044831e+00 1 0 1
3499 1 6.4158801271525743e+00 3.2762945725133168e+00 -3.8241568875910303e-01 0 -1 0
3356 1 1.7181966528664538e+00 1.1610245879765570e+01 4.7584827610860359e+00 0 -1 1
363 1 4.4906849537234939e+00 1.1906287488889365e+01 3.7123896731087447e+00 2 -1 0
5500 1 5.8318733286901141e+00 9.7492455674139684e+00 4.5423235321620075e+00 2 1 1
6458 1 6.0663703326074545e+00 9.4116526817903612e+00 7.3554267036387930e+00 1 0 1
1310 1 9.8055495065366252e+00 1.1873800412535928e+01 6.9298407317046564e+00 -1 0 0
6753 1 9.4172337038583489e+00 1.1816039340330763e+01 4.1433698140274862e+00 -1 0 1
3419 1 9.3520386918453480e-01 1.3657271851268737e+01 1.1132485844288345e+01 1 1 0
3103 1 2.2585033030857917e+00 1.5903990521799400e+01 4.5784126743590061e+00 0 0 1
4969 1 2.3381392872732825e+00 1.5901584761485172e+01 7.3905886803528329e+00 1 -1 1
184 1 4.6625817451176763e+00 1.6244913991343648e+01 3.5517613781720767e+00 -2 1 1
1631 1 8.3118998318573638e+00 1.4172965721436153e+01 3.3969305764256825e+00 2 1 1
3543 1 5.8985188859983566e+00 1.4160910473118967e+01 4.2214423512659991e+00 0 1 1
1653 1 6.3439960946635079e+00 1.4129762430997793e+01 6.9396490330221630e+00 1 0 1
5342 1 9.6381634149705011e+00 1.6385095545667561e+01 4.1997903059707502e+00 0 2 0
1442 1 4.6808007873996893e-01 5.2597005613385690e+00 1.2665459464836211e+00 0 -4 1
1963 1 8.2288949500534017e+00 1.8467238678474903e+01 3.1602475979019000e+00 -2 1 0
3949 1 5.7141039208335753e+00 1.8535935398976108e+01 4.3408084821134052e+00 0 1 1
1828 1 5.6695092045693327e+00 1.8448196742687099e+01 7.1260405773662399e+00 -1 0 1
3171 1 9.5199107491418928e+00 1.6297786729491463e+01 6.8342106197259511e+00 -2 0 1
5003 1 8.1621801302186299e+00 1.8526581179643898e+01 7.9339068569821620e+00 0 0 1
4794 1 1.0184395493432632e+00 1.8481062807015899e+01 1.1437185696203089e+01 2 2 1
373 1 2.0407707789917748e+00 2.0249468631289453e+01 4.4939648379219657e+00 1 2 0
3867 1 4.4474735128078988e+00 2.0571264691585508e+01 3.3876167964862711e+00 0 -3 0
3197 1 5.6324651041922369e+00 2.2894223418675153e+01 4.3385200504240231e+00 1 0 0
5041 1 5.8571592195368929e+00 2.2920443118349716e+01 6.9317277697212401e+00 1 2 1
3316 1 9.2404361661045158e+00 2.0861629193925712e+01 6.9663272715013500e+00 1 1 1
6596 1 9.2330263217528170e+00 2.0892886394841199e+01 4.1243306013074150e+00 1 -2 1
3426 1 4.4948525364181779e-01 9.6376510478438799e+00 1.0684702271558852e+00 1 1 0
1308 1 8.2460607888571635e-01 7.9688042441892804e-01 8.3686727247952728e+00 -1 1 1
616 1 2.2361484160237763e+00 3.0276450287759502e+00 7.3609031267950549e+00 1 1 1
522 1 1.1581219631987173e+01 5.1943714120915576e+00 1.1178023037701625e+01 1 -1 0
27 1 1.0749945349201237e+01 1.8744785867639258e+01 -4.8483852788378029e-01 2 0 0
3989 1 4.6223295114323983e+00 2.7896048352559344e+00 8.1591309320473346e+00 0 0 1
5174 1 4.7692845974151430e+00 3.0793437152731342e+00 1.0983191224365010e+01 -1 1 1
5476 1 8.4399461048284916e+00 8.8602700824053704e-01 8.0676480507141495e+00 2 0 0
277 1 9.2980385258262521e-01 7.3680435143302014e-01 1.1110885719155641e+01 1 -2 1
1503 1 1.1614694128669219e+01 6.6985686544655731e-01 1.0802516243932368e+01 -1 0 1
6719 1 2.2733697542322724e+00 2.0434303122031771e+01 7.4188105306682726e+00 2 -1 1
253 1 4.8020791047934077e+00 2.0579567670266513e+01 8.2168014799090940e+00 0 3 0
478 1 6.8597210480386401e+00 1.2161686869341885e+01 1.6627739507272299e-01 0 -2 1
3712 1 8.9841879474924013e-01 5.2206828270429764e+00 8.4532063721976787e+00 2 0 0
3460 1 4.6810100368421121e+00 7.4314218401091043e+00 8.3493541879339048e+00 0 -1 0
3968 1 5.0931834310948041e+00 7.3055146817995844e+00 1.0970641386360910e+01 2 1 1
488 1 8.2641187377958563e+00 2.3086123523293601e+01 8.0979240568625155e+00 0 -1 0
3025 1 8.9306049465492485e+00 5.1629081792127280e+00 1.0511135812330442e+01 -3 1 1
3844 1 8.2990153641975724e+00 5.2684129407465514e+00 7.4778217172356563e+00 2 -1 0
3394 1 1.1667163788516246e+01 2.0903543044213901e+01 3.1113782625002315e+00 0 3 1
3537 1 1.1400079974618071e+01 1.8779826158841484e+01 1.1253905988500756e+01 1 0 1
2214 1 8.5423732557808627e+00 2.2859174291442997e+01 1.0670771045338945e+01 0 -2 0
3379 1 1.2281849090736472e+01 7.4234322523420833e+00 7.6244910286366565e+00 -1 0 0
495 1 9.6072216709664571e-01 9.6370226221267927e+00 8.6455068191981201e+00 0 -2 1
1816 1 2.1516221346774742e+00 1.1587360779613395e+01 7.3787350754551682e+00 0 0 0
3991 1 5.0987918211733962e+00 1.1794216199631338e+01 8.0522800700155894e+00 0 1 1
3790 1 5.2974782873954007e+00 1.1671446599425581e+01 1.0936577924076747e+01 0 0 0
3006 1 8.8088657698667454e+00 9.6861855778922088e+00 7.8268345274031770e+00 2 1 1
355 1 1.1639414725549207e+01 9.8681487150530494e+00 1.1043619541011623e+01 1 2 0
5019 1 9.1763590813832501e+00 9.7374547734654229e+00 1.0635725634352577e+01 3 0 1
5079 1 1.1878148655036245e+01 2.0943881534732938e+01 7.6257493200369755e+00 0 -3 0
6498 1 1.0282759262882193e+00 1.3763322181802749e+01 8.5928239078335586e+00 -1 1 1
3202 1 5.0688291663843659e+00 1.6124400455924249e+01 1.0966415154756154e+01 -1 1 0
287 1 8.7589117317539618e+00 1.4271740922849288e+01 7.8489073772490592e+00 2 -1 0
1723 1 4.8928113662257262e+00 2.0409157482949791e+01 1.0972237476287100e+01 0 0 1
2023 1 8.9576748283720757e+00 1.4226753532448763e+01 1.0590995992133090e+01 3 0 0
1819 1 1.1483690573754910e+01 1.4259347235824050e+01 1.1256340192877772e+01 2 2 0
1506 1 8.6851229425847565e-01 1.3768448013728371e+01 3.7708797583029146e+00 -1 2 1
4761 1 1.3383279484573685e+00 1.8195415244770722e+01 8.5733047438248988e+00 0 0 1
215 1 5.0024140026880959e+00 1.5937399910561071e+01 8.2001979956893081e+00 0 0 0
3589 1 6.2713452125451319e-01 5.0114127984992169e+00 3.9521769475286721e+00 0 -2 0
3631 1 8.7410575869760549e+00 1.8196830905509721e+01 1.0728373478453049e+01 1 2 0
607 1 8.9022814071615086e-01 2.2927263837437312e+01 1.1285340789734272e+01 1 -2 1
5640 1 1.0214325406735153e+01 1.3831988733800809e+00 -5.9866970252523055e-01 0 1 0
3099 1 1.0418761349324290e+01 1.0012801476675360e+01 -2.0803613981555513e-01 1 1 1
5462 1 7.8837420719946536e+00 7.5715159177048887e+00 1.1255804561018564e+01 1 1 0
2057 1 7.4737873558204679e+00 2.0540582998000254e+01 1.1498205675827201e+01 1 0 0
49 1 1.2388332267508845e+01 1.1770982284828774e+01 7.2931657259237728e+00 2 -1 0
1977 1 1.2269559308986384e+01 1.6225971718991765e+01 7.3440026247279295e+00 -1 -1 0
3977 1 4.6169648943651415e-01 1.1450760309654530e+01 1.2540117049516528e+01 -1 1 1
133 1 9.7028344036982048e+00 5.7504348707432418e-01 1.8317715253820012e+01 1 0 0
6605 1 2.8431764132947679e+00 2.9829409515756500e+00 1.5499402704673816e+01 2 -2 1
4873 1 6.4235267483417662e+00 7.0242641867545352e-01 1.4682161020667225e+01 1 -3 1
5614 1 7.6757958511908742e+00 2.9761201687146994e+00 1.4032096559486511e+01 0 -1 0
3845 1 3.6622752745738016e+00 2.2544774350336404e+01 1.2276179978421892e+01 2 -1 1
6727 1 1.1581473207055852e+01 7.1294062115129120e-01 1.3502263335205381e+01 0 2 1
2251 1 1.0679034175367249e+01 3.0825945848099741e+00 1.4189283628210525e+01 1 -1 0
6603 1 4.1368038278442185e+00 5.1774151183155928e+00 1.4791639453229468e+01 1 -2 1
3041 1 3.1739440545326714e+00 1.5544085313382400e+01 2.3480647817124613e+01 -1 -1 1
3554 1 7.6207356050556641e+00 7.5564261477477617e+00 1.4062706898099337e+01 1 -2 0
6767 1 7.0662932477956133e+00 5.2395322430619515e+00 1.5384946963446740e+01 1 1 1
5626 1 1.1940907653189893e+01 5.1694581192926465e+00 1.3832055853042503e+01 1 0 0
1863 1 1.0395042107293811e+01 7.3323509814131880e+00 1.4760971838984316e+01 0 1 0
3870 1 3.7759466373395347e+00 6.9403977081047563e-01 1.4568156395705730e+01 1 0 0
5607 1 4.1174436174708973e+00 9.4494933343008647e+00 1.4773570452726014e+01 3 -1 1
6686 1 2.9831748911538822e+00 1.1759525779972464e+01 1.5850984711595650e+01 -1 -1 0
6361 1 6.7766813245544277e+00 9.7582082395694982e+00 1.5452034746849563e+01 1 -1 1
3186 1 8.0308417127095240e+00 1.2052393331791839e+01 1.4399801589286684e+01 -1 2 1
4946 1 9.1590075669022308e+00 2.3570840141831535e+01 2.1106105245970991e+01 0 0 1
3772 1 1.1608165820733985e+01 9.7681202923235659e+00 1.3738136401980844e+01 0 0 0
2204 1 1.0662680719632188e+01 1.2272982614469941e+01 1.5053557351798654e+01 -1 -3 0
5255 1 4.1552773384147006e+00 1.3812494050618007e+01 1.4631064049045298e+01 -2 1 0
5055 1 3.1480435089273571e+00 1.5836728585715413e+01 1.5775606129071203e+01 -2 -1 0
3553 1 1.7781397906317282e+00 2.2323679377466433e+01 2.2267106310797132e+01 -1 2 1
5178 1 6.6612063461431195e+00 1.4002565493867783e+01 1.5448728370802133e+01 1 2 0
5350 1 7.9581510121800596e+00 1.6203119057142267e+01 1.4188771006309418e+01 1 -1 0
1495 1 1.1948118898735187e+01 1.4122091186219153e+01 1.3935341695981998e+01 0 2 1
45 1 1.0453058285812206e+01 1.6254044251712088e+01 1.5111911748642504e+01 -1 2 0
2045 1 3.7356185073707859e+00 1.8155783121838308e+01 1.4688207482431233e+01 2 -1 0
3326 1 3.3791818847600030e+00 8.6191339057928440e-01 1.2064725080410337e+01 -1 3 0
5180 1 1.1572502232159739e+01 1.8437522458628219e+01 1.3852219869649234e+01 1 -1 1
5615 1 1.0076987902043507e+01 2.0316861031037874e+01 1.5189902993293552e+01 1 -1 0
4855 1 3.7685300940141446e+00 2.2636042432372236e+01 1.4835124502309002e+01 2 -1 1
5261 1 2.6517695792760145e+00 7.2563183087339285e+00 2.3623966643749828e+01 1 1 0
5163 1 5.5060902418261470e+00 2.0805500820544566e+01 2.1964934690453987e+01 0 0 1
3725 1 7.5697833559666776e+00 2.0694158931009838e+01 1.4337352152474059e+01 1 1 0
2101 1 6.3290672315661221e+00 2.2902554452157037e+01 1.5149454545767446e+01 -1 2 0
5587 1 1.1259564350926118e+01 2.2751116429695500e+01 1.4115855074598615e+01 0 1 1
336 1 2.8789187713226205e+00 2.8445255750390812e+00 1.8548281345665416e+01 1 -1 0
3834 1 3.9550125963557932e+00 9.3618043464430887e+00 1.1959111974282862e+01 1 0 0
2206 1 5.4870593375872048e+00 3.0029744516701520e+00 1.8912221394738392e+01 1 0 0
3747 1 1.1170584735325587e+01 1.3517983243002591e+01 2.3768303066289242e+01 -1 -2 0
5355 1 1.0809259127157601e+01 2.6724365138577757e+00 1.7099617549279415e+01 0 1 1
2047 1 2.5702590496492697e+00 7.1206309456090882e+00 1.5935043032163964e+01 2 1 0
4974 1 3.1480968345733902e+00 7.3225643024633822e+00 1.8678751470198332e+01 1 0 0
6565 1 1.5364702182006038e+00 5.1549153868960564e+00 1.9383215200529850e+01 1 2 1
2098 1 6.9201209733684399e+00 5.0822464409830976e+00 1.7851877593104870e+01 0 2 0
6415 1 5.9142100399197899e+00 7.2982721882212873e+00 1.8870660163999180e+01 1 -1 1
4943 1 9.5676204627035268e+00 4.8757071487443699e+00 1.8552468542363496e+01 0 1 0
313 1 1.0565058093449997e+01 7.4011748923984637e+00 1.7296056445759223e+01 -2 -1 0
5466 1 3.1978957824547556e+00 1.1705515784136686e+01 1.8671493448135035e+01 0 0 0
1346 1 1.7582526100447899e+00 9.3581246267892411e+00 1.9741922154156160e+01 0 0 1
6650 1 6.8269067390139453e+00 9.6249256103244516e+00 1.7979197765597341e+01 -2 -1 1
1778 1 5.6269662541280958e+00 1.1658130362502854e+01 1.9386662582710052e+01 0 0 0
3137 1 9.3672618243180352e+00 9.6453256650309189e+00 1.8227238241756954e+01 1 0 1
3579 1 1.0704759053122491e+01 1.1935044076860953e+01 1.7905911280113909e+01 0 1 1
5308 1 1.7405965222211488e+00 1.3479396965147240e+01 1.9894467080161796e+01 1 1 0
147 1 2.8726731663534557e+00 1.6031538907405022e+01 1.8635654248100725e+01 2 1 0
1775 1 6.9908066990352227e+00 1.3664882176390192e+01 1.8233417944064460e+01 0 0 0
3490 1 5.8356404292766770e+00 1.5669936275628320e+01 1.9439279190249188e+01 1 2 0
3124 1 9.6577361222373668e+00 1.4229256807689305e+01 1.8734749310857826e+01 2 -1 1
2056 1 1.0620329454754287e+01 1.6317491531736415e+01 1.7690067029505716e+01 0 2 0
4713 1 1.7154522698704657e+00 1.8058147321016826e+01 1.9789996313304098e+01 -1 0 1
5548 1 6.4588704583928838e+00 1.8342375288805449e+01 1.5283086458905203e+01 3 -1 0
3014 1 6.3849336111273036e+00 1.8000693833475346e+01 1.7889828292631030e+01 2 0 1
1772 1 9.1149447574773106e+00 1.8387946012967888e+01 1.8932282091407199e+01 4 -1 1
5585 1 1.0300170496102139e+01 2.0561783298558897e+01 1.7902383047214819e+01 2 -3 1
2154 1 2.8099851314526529e+00 2.0303725342276746e+01 1.5655667448560052e+01 1 1 0
4703 1 2.7731648352913010e+00 2.0305106554410962e+01 1.8421220100223533e+01 0 -1 1
506 1 1.5372856784126205e+00 2.2604161496290537e+01 1.9694601190223292e+01 -1 0 0
1750 1 5.4146131770298043e+00 2.0318333813344150e+01 1.9040360844371968e+01 0 0 0
6652 1 6.6941257619983707e+00 2.2719676432217124e+01 1.7933514104369983e+01 -1 0 1
6732 1 9.1157318217665164e+00 2.2953993065962067e+01 1.8581860976118229e+01 1 -1 0
1430 1 5.8723032764391725e+00 2.3706236015372035e+01 2.1725263577068741e+01 1 -1 1
5264 1 3.7126886666400623e+00 1.8211746218390854e+01 1.1789197962208878e+01 1 1 0
4833 1 6.9818643006656682e+00 3.1186573748438828e+00 2.1279120735307078e+01 1 0 1
1833 1 5.5957415527784518e+00 3.2766493731969679e+00 2.3695126726239828e+01 0 -1 0
6385 1 1.1436224938095638e+01 5.4021722588513632e-01 2.0712577712435905e+01 1 0 1
1410 1 8.3059958851841280e+00 4.4137373173614847e-01 2.0777662310170619e+01 1 1 1
280 1 3.7872392809180817e+00 1.3776061257594032e+01 1.1882133960408902e+01 1 1 0
24 1 1.6291825581214869e+00 2.4116940650159094e-01 2.2279366313185594e+01 1 1 1
4864 1 1.5856983471859019e+00 5.1414907217016914e+00 2.2132765270474490e+01 -1 1 1
1596 1 3.4759943517247649e+00 2.0183540336931483e+01 2.3629107872511948e+01 -1 2 1
6511 1 7.2260495174712531e+00 7.6909466884297872e+00 2.1290857598012177e+01 -2 3 1
2030 1 3.4680672562803444e-01 1.1710530447899099e+01 1.5405546911907827e+01 1 -1 0
6384 1 1.1966974069648426e+01 5.1668844315849221e+00 2.0957216077133332e+01 2 1 1
5513 1 8.5746352444970348e+00 5.3131066502045501e+00 2.1169510779048988e+01 1 2 0
43 1 1.7613086015427761e+00 9.3790411618020091e+00 2.2504099998411114e+01 1 0 0
3213 1 6.7895506554736791e+00 6.1145554642361488e-01 1.7580523683558553e+01 0 1 0
4919 1 7.6225974787613344e+00 1.1522731654662623e+01 2.2922294038921940e+01 0 0 0
182 1 1.2061303324935746e+01 1.0038721584123092e+01 2.1849366485316082e+01 0 1 0
66 1 9.1168690971277186e+00 9.6585108265234059e+00 2.1332410257837829e+01 -3 1 0
5604 1 1.5663489526206604e+00 1.3436872708659456e+01 2.2729134335187258e+01 0 -1 0
547 1 1.1929761877910030e+01 2.2717383324133149e+01 2.1149983099519247e+01 1 1 1
34 1 3.5087064667673895e-01 1.5950758752727081e+01 1.5274921786977732e+01 0 2 0
6483 1 5.3046355761832631e+00 1.2918366098544956e+01 2.1759903065396340e+01 0 1 1
3010 1 5.4198929108612335e+00 1.5459213806458099e+01 2.2097982527070865e+01 -1 2 1
4706 1 1.1206567064014870e+01 1.3733333756781558e+01 2.1064477502879910e+01 -1 0 1
3488 1 5.2808007369762571e+00 7.5116538446712733e+00 2.3312635343200167e+01 3 -1 0
5143 1 1.2989317159034166e+00 4.4730785284426910e-01 1.9681018240974606e+01 -1 -1 1
1966 1 1.7649873635114257e+00 1.7910347804046729e+01 2.2992388874847460e+01 3 -2 0
1978 1 3.1573996942358935e+00 1.1336495629546842e+01 2.3576286970236563e+01 2 -1 0
5223 1 1.1138578859633142e+01 1.8121172882515580e+01 2.1119730046438999e+01 0 1 0
3275 1 1.1570753811979559e+01 8.9769019701026442e-01 2.3523097652513542e+01 -1 3 1
2148 1 7.5231678120973564e+00 2.0603210729778183e+01 2.3621102729275410e+01 2 4 0
1738 1 7.4825817128289431e+00 1.6214223552902787e+01 2.3386915171980906e+01 -1 1 1
3144 1 7.7182571426738988e+00 1.6045809809629880e+01 1.1792638529911471e+01 2 1 1
5454 1 3.3890124880357013e+00 5.3871604779159172e+00 1.2332551036939682e+01 2 1 0
556 1 1.1977571297638034e+01 5.4297839717749845e+00 2.3779032964259628e+01 0 1 1
4835 1 3.4320585626419842e-01 3.0054090887321943e+00 1.4728197770129164e+01 1 3 1
1385 1 2.7616697328392248e+00 2.9657660071039516e+00 2.3037165462517400e+01 0 0 1
2242 1 8.6937988139092290e+00 2.3530208362603204e+01 2.3847069126270178e+01 0 -1 0
1334 1 7.9012045219852185e+00 1.2170494511980671e+01 1.1728989687836155e+01 1 0 1
623 2 2.3632133431213020e-01 3.0497893085783989e+00 2.6743761071692393e+01 0 0 0
625 2 2.3632133431213020e-01 2.3535932082433675e-01 2.6743761071692393e+01 0 0 0
627 2 1.4550052675961300e+00 9.3896681776285229e-01 2.6743761071692393e+01 0 0 0
634 2 1.4550052675961300e+00 2.3461818116408089e+00 2.6743761071692393e+01 0 0 0
636 2 2.6736892008801298e+00 3.0497893085783989e+00 2.6743761071692393e+01 0 0 0
638 2 2.6736892008801298e+00 2.3535932082433675e-01 2.6743761071692393e+01 0 0 0
640 2 3.8923731341643828e+00 9.3896681776285229e-01 2.6743761071692393e+01 0 0 0
655 2 3.8923731341643828e+00 2.3461818116408089e+00 2.6743761071692393e+01 0 0 0
576 1 5.9652354230319640e+00 9.8927185592082054e+00 2.4547530574476021e+01 -1 0 1
657 2 5.1110570674481295e+00 3.0497893085783989e+00 2.6743761071692393e+01 0 0 0
659 2 5.1110570674481295e+00 2.3535932082433675e-01 2.6743761071692393e+01 0 0 0
661 2 6.3297410007332884e+00 9.3896681776285229e-01 2.6743761071692393e+01 0 0 0
684 2 6.3297410007332884e+00 2.3461818116408089e+00 2.6743761071692393e+01 0 0 0
686 2 7.5484249340166354e+00 3.0497893085783989e+00 2.6743761071692393e+01 0 0 0
688 2 7.5484249340166354e+00 2.3535932082433675e-01 2.6743761071692393e+01 0 0 0
3544 1 6.5453295819759907e+00 7.4901084298651066e-01 2.4345319359942252e+01 1 1 0
690 2 8.7671088672992639e+00 9.3896681776285229e-01 2.6743761071692393e+01 0 0 0
721 2 8.7671088672992639e+00 2.3461818116408089e+00 2.6743761071692393e+01 0 0 0
723 2 9.9857928005841288e+00 3.0497893085783989e+00 2.6743761071692393e+01 0 0 0
725 2 9.9857928005841288e+00 2.3535932082433675e-01 2.6743761071692393e+01 0 0 0
727 2 1.1204476733873243e+01 9.3896681776285229e-01 2.6743761071692393e+01 0 0 0
766 2 1.1204476733873243e+01 2.3461818116408089e+00 2.6743761071692393e+01 0 0 0
768 2 1.2423160667154447e+01 3.0497893085783989e+00 2.6743761071692393e+01 0 0 0
770 2 1.2423160667154447e+01 2.3535932082433675e-01 2.6743761071692393e+01 0 0 0
1094 2 9.9857928005841288e+00 2.1343584228983175e+01 3.3318238928349672e+01 0 0 0
628 2 2.3632133431213020e-01 7.2714342902083233e+00 2.6743761071692393e+01 0 0 0
630 2 2.3632133431213020e-01 4.4570043024572810e+00 2.6743761071692393e+01 0 0 0
632 2 1.4550052675961300e+00 5.1606117993947622e+00 2.6743761071692393e+01 0 0 0
647 2 1.4550052675961300e+00 6.5678267932711902e+00 2.6743761071692393e+01 0 0 0
649 2 2.6736892008801298e+00 7.2714342902083233e+00 2.6743761071692393e+01 0 0 0
651 2 2.6736892008801298e+00 4.4570043024572810e+00 2.6743761071692393e+01 0 0 0
653 2 3.8923731341643828e+00 5.1606117993947622e+00 2.6743761071692393e+01 0 0 0
676 2 3.8923731341643828e+00 6.5678267932711902e+00 2.6743761071692393e+01 0 0 0
678 2 5.1110570674481295e+00 7.2714342902083233e+00 2.6743761071692393e+01 0 0 0
680 2 5.1110570674481295e+00 4.4570043024572810e+00 2.6743761071692393e+01 0 0 0
682 2 6.3297410007332884e+00 5.1606117993947622e+00 2.6743761071692393e+01 0 0 0
713 2 6.3297410007332884e+00 6.5678267932711902e+00 2.6743761071692393e+01 0 0 0
715 2 7.5484249340166354e+00 7.2714342902083233e+00 2.6743761071692393e+01 0 0 0
717 2 7.5484249340166354e+00 4.4570043024572810e+00 2.6743761071692393e+01 0 0 0
3894 1 6.6888691814876555e+00 5.6968639422086751e+00 2.4772611547108944e+01 2 0 1
719 2 8.7671088672992639e+00 5.1606117993947622e+00 2.6743761071692393e+01 0 0 0
758 2 8.7671088672992639e+00 6.5678267932711902e+00 2.6743761071692393e+01 0 0 0
760 2 9.9857928005841288e+00 7.2714342902083233e+00 2.6743761071692393e+01 0 0 0
762 2 9.9857928005841288e+00 4.4570043024572810e+00 2.6743761071692393e+01 0 0 0
764 2 1.1204476733873243e+01 5.1606117993947622e+00 2.6743761071692393e+01 0 0 0
805 2 1.1204476733873243e+01 6.5678267932711902e+00 2.6743761071692393e+01 0 0 0
807 2 1.2423160667154447e+01 7.2714342902083233e+00 2.6743761071692393e+01 0 0 0
809 2 1.2423160667154447e+01 4.4570043024572810e+00 2.6743761071692393e+01 0 0 0
1095 2 1.1204476733873243e+01 2.2047191725918243e+01 3.3318238928349672e+01 0 0 0
641 2 2.3632133431213020e-01 1.1493079271840585e+01 2.6743761071692393e+01 0 0 0
643 2 2.3632133431213020e-01 8.6786492840902252e+00 2.6743761071692393e+01 0 0 0
645 2 1.4550052675961300e+00 9.3822567810266815e+00 2.6743761071692393e+01 0 0 0
668 2 1.4550052675961300e+00 1.0789471774903756e+01 2.6743761071692393e+01 0 0 0
670 2 2.6736892008801298e+00 1.1493079271840585e+01 2.6743761071692393e+01 0 0 0
672 2 2.6736892008801298e+00 8.6786492840902252e+00 2.6743761071692393e+01 0 0 0
674 2 3.8923731341643828e+00 9.3822567810266815e+00 2.6743761071692393e+01 0 0 0
705 2 3.8923731341643828e+00 1.0789471774903756e+01 2.6743761071692393e+01 0 0 0
707 2 5.1110570674481295e+00 1.1493079271840585e+01 2.6743761071692393e+01 0 0 0
709 2 5.1110570674481295e+00 8.6786492840902252e+00 2.6743761071692393e+01 0 0 0
711 2 6.3297410007332884e+00 9.3822567810266815e+00 2.6743761071692393e+01 0 0 0
750 2 6.3297410007332884e+00 1.0789471774903756e+01 2.6743761071692393e+01 0 0 0
752 2 7.5484249340166354e+00 1.1493079271840585e+01 2.6743761071692393e+01 0 0 0
754 2 7.5484249340166354e+00 8.6786492840902252e+00 2.6743761071692393e+01 0 0 0
5294 1 5.9311264614484518e+00 8.1108110402037354e+00 3.5901862563582711e+01 -1 1 -1
756 2 8.7671088672992639e+00 9.3822567810266815e+00 2.6743761071692393e+01 0 0 0
797 2 8.7671088672992639e+00 1.0789471774903756e+01 2.6743761071692393e+01 0 0 0
799 2 9.9857928005841288e+00 1.1493079271840585e+01 2.6743761071692393e+01 0 0 0
801 2 9.9857928005841288e+00 8.6786492840902252e+00 2.6743761071692393e+01 0 0 0
803 2 1.1204476733873243e+01 9.3822567810266815e+00 2.6743761071692393e+01 0 0 0
844 2 1.1204476733873243e+01 1.0789471774903756e+01 2.6743761071692393e+01 0 0 0
846 2 1.2423160667154447e+01 1.1493079271840585e+01 2.6743761071692393e+01 0 0 0
848 2 1.2423160667154447e+01 8.6786492840902252e+00 2.6743761071692393e+01 0 0 0
662 2 2.3632133431213020e-01 1.5714724253463109e+01 2.6743761071692393e+01 0 0 0
664 2 2.3632133431213020e-01 1.2900294265718044e+01 2.6743761071692393e+01 0 0 0
666 2 1.4550052675961300e+00 1.3603901762656204e+01 2.6743761071692393e+01 0 0 0
697 2 1.4550052675961300e+00 1.5011116756539083e+01 2.6743761071692393e+01 0 0 0
699 2 2.6736892008801298e+00 1.5714724253463109e+01 2.6743761071692393e+01 0 0 0
701 2 2.6736892008801298e+00 1.2900294265718044e+01 2.6743761071692393e+01 0 0 0
703 2 3.8923731341643828e+00 1.3603901762656204e+01 2.6743761071692393e+01 0 0 0
742 2 3.8923731341643828e+00 1.5011116756539083e+01 2.6743761071692393e+01 0 0 0
744 2 5.1110570674481295e+00 1.5714724253463109e+01 2.6743761071692393e+01 0 0 0
746 2 5.1110570674481295e+00 1.2900294265718044e+01 2.6743761071692393e+01 0 0 0
748 2 6.3297410007332884e+00 1.3603901762656204e+01 2.6743761071692393e+01 0 0 0
789 2 6.3297410007332884e+00 1.5011116756539083e+01 2.6743761071692393e+01 0 0 0
791 2 7.5484249340166354e+00 1.5714724253463109e+01 2.6743761071692393e+01 0 0 0
793 2 7.5484249340166354e+00 1.2900294265718044e+01 2.6743761071692393e+01 0 0 0
795 2 8.7671088672992639e+00 1.3603901762656204e+01 2.6743761071692393e+01 0 0 0
836 2 8.7671088672992639e+00 1.5011116756539083e+01 2.6743761071692393e+01 0 0 0
838 2 9.9857928005841288e+00 1.5714724253463109e+01 2.6743761071692393e+01 0 0 0
840 2 9.9857928005841288e+00 1.2900294265718044e+01 2.6743761071692393e+01 0 0 0
842 2 1.1204476733873243e+01 1.3603901762656204e+01 2.6743761071692393e+01 0 0 0
878 2 1.1204476733873243e+01 1.5011116756539083e+01 2.6743761071692393e+01 0 0 0
880 2 1.2423160667154447e+01 1.5714724253463109e+01 2.6743761071692393e+01 0 0 0
882 2 1.2423160667154447e+01 1.2900294265718044e+01 2.6743761071692393e+01 0 0 0
691 2 2.3632133431213020e-01 1.9936369235106039e+01 2.6743761071692393e+01 0 0 0
693 2 2.3632133431213020e-01 1.7121939247356114e+01 2.6743761071692393e+01 0 0 0
695 2 1.4550052675961300e+00 1.7825546744283855e+01 2.6743761071692393e+01 0 0 0
734 2 1.4550052675961300e+00 1.9232761738164964e+01 2.6743761071692393e+01 0 0 0
736 2 2.6736892008801298e+00 1.9936369235106039e+01 2.6743761071692393e+01 0 0 0
738 2 2.6736892008801298e+00 1.7121939247356114e+01 2.6743761071692393e+01 0 0 0
740 2 3.8923731341643828e+00 1.7825546744283855e+01 2.6743761071692393e+01 0 0 0
781 2 3.8923731341643828e+00 1.9232761738164964e+01 2.6743761071692393e+01 0 0 0
783 2 5.1110570674481295e+00 1.9936369235106039e+01 2.6743761071692393e+01 0 0 0
785 2 5.1110570674481295e+00 1.7121939247356114e+01 2.6743761071692393e+01 0 0 0
787 2 6.3297410007332884e+00 1.7825546744283855e+01 2.6743761071692393e+01 0 0 0
828 2 6.3297410007332884e+00 1.9232761738164964e+01 2.6743761071692393e+01 0 0 0
830 2 7.5484249340166354e+00 1.9936369235106039e+01 2.6743761071692393e+01 0 0 0
832 2 7.5484249340166354e+00 1.7121939247356114e+01 2.6743761071692393e+01 0 0 0