LAMMPS data file via write_data, version 16 Mar 2018, timestep = 100000

6768 atoms
2 atom types

2.9441958833480797e-01 4.8925580411665450e+01 xlo xhi
2.9322106929921077e-01 4.8726414861110506e+01 ylo yhi
-6.6688959260602232e-01 6.0728889592606194e+01 zlo zhi

Masses

1 18.015
2 12.01

Atoms # atomic

6514 1 3.7254404104002203e+00 2.9571595575752774e+00 3.0759638917942875e+00 0 1 1
5174 1 7.4302305289992243e-01 1.8371662611721387e+00 3.1003975385550411e+00 0 1 1
1612 1 9.1302159693678275e-01 1.9795661907326216e+00 7.2217639133498572e+00 0 0 1
9 1 5.5490557380539691e+00 3.7928717186417198e+00 5.7471610835182418e-01 1 0 0
3372 1 7.5012828971182826e+00 1.7712962362315743e+00 5.8885593692579064e-01 -2 -1 1
3780 1 1.1418379786467026e+01 1.5984070870822919e+01 9.6832577630896886e+00 1 0 0
6672 1 9.7386242404513297e+00 3.9405787881128174e-01 1.0128751068594932e+01 -1 0 0
3453 1 4.4111100800286449e+00 2.4125005118480420e+01 2.2891164108579329e+00 1 1 0
3830 1 5.0663173539593398e+00 6.7039316327871239e+00 1.5517304828454344e+00 0 0 0
5240 1 5.1198342153306777e+00 7.1077199180991579e+00 4.1507286242629924e+00 1 1 0
5589 1 8.8651543434746785e+00 9.5821113174191765e+00 1.9820689249339059e+00 1 -1 1
5701 1 7.7955349405962231e+00 7.0664490210971547e+00 1.3415927484013923e+00 1 1 1
5585 1 9.4540362262457904e+00 5.4215322028491943e+00 2.7018331132075892e+00 2 -2 1
1916 1 3.8589122224921626e+00 8.2682580399072556e+00 -6.4353823818194589e-01 0 1 0
2999 1 2.2725369809515219e+00 1.1338445071490392e+01 2.3601910624622784e+00 1 1 1
2271 1 1.0211223476943070e+01 2.3183119809091632e+01 4.9316416811872710e+00 1 0 0
45 1 1.2362133030212220e+01 1.5991159063522026e+01 1.3380315302509804e+00 -1 1 0
1954 1 2.7205815095304446e+00 2.0990274563437644e+01 -1.6098860478170451e-01 2 1 0
6692 1 7.1801380792108400e+00 1.1353959849382317e+01 1.0065359984034259e+00 2 -1 0
5256 1 4.7920130814124420e+00 1.5927493566596018e+01 9.8465839375623894e+00 0 0 0
3648 1 8.1490206300075059e+00 1.9878666458369086e+01 1.0815358833446300e+01 2 0 0
1798 1 2.3990296944211620e+00 1.5270680386580549e+01 3.6502804550907086e+00 0 1 1
5271 1 4.7802174437667819e+00 1.2293124707976041e+01 2.9196150264189193e+00 0 1 0
3183 1 4.8390238505959244e+00 1.4684837551669032e+01 2.0139291449909660e+00 0 1 1
532 1 9.9741683009584303e+00 1.4847013508310139e+01 1.7492058256109115e+00 -1 0 0
3289 1 9.0857038753557671e+00 1.2932234885384108e+01 -6.4476655471189415e-02 1 0 0
37 1 1.5953427669306557e+00 9.3876908111597572e+00 2.4154735748886824e-01 0 0 1
2182 1 2.4462732363209221e+00 1.8387152309081113e+01 7.3418351112460423e-02 1 -2 0
1723 1 1.3743285144293371e+00 6.7481586362411203e+00 1.9780509947454217e+00 0 1 1
6368 1 7.0551591999449483e+00 2.1301818086134741e+01 3.8184272372631423e-01 1 0 1
485 1 8.2481686830004186e+00 1.7064837119481293e+01 1.3309515316945515e+00 0 1 0
2080 1 5.5997460853419323e-01 9.8330624157071487e+00 1.1322767763850656e+01 0 1 0
74 1 3.4632104696949848e+00 1.8564056758519669e+01 2.6999967754715199e+00 0 0 1
451 1 1.1075567181284017e+01 2.0047563735554121e+01 2.0672324042737347e+00 1 -1 0
2259 1 8.0581891981191731e+00 2.0000049370003765e+01 2.3713120845847921e+00 0 2 0
3713 1 6.1257018826232934e-01 1.6608659846434040e+01 8.0236461544769924e+00 0 -1 0
2036 1 2.2843989297760876e+00 2.4110735593850791e+01 9.8942521106951347e+00 -1 -1 0
466 1 1.2016614830770893e+01 2.1292281496587108e+01 1.0491713288998318e+01 0 0 1
1560 1 4.6600060316508518e+00 2.1288921472603832e+01 1.7560551354618541e+00 0 0 1
1878 1 6.7669871541521536e+00 2.3717608800264173e+01 7.9743808205316995e+00 1 0 0
3424 1 6.7310738363123281e+00 2.8294026359552853e+00 1.1034284077671574e+01 0 1 1
2282 1 1.2129075943730321e+01 2.2673020778277031e+01 2.1028776369043545e+00 0 0 1
3416 1 1.1515517433215797e+01 5.9560644698075800e+00 6.9141621692273594e+00 -1 1 0
1694 1 6.4880752397251706e-01 2.2398720871694373e+01 4.9572255756038226e+00 1 -1 0
5020 1 2.1477197662488590e+00 6.3298327923307154e+00 6.9699706285928862e+00 1 0 0
3455 1 5.9917887164958676e+00 2.9061006660906505e+00 4.4670963338455838e+00 -1 2 0
1356 1 8.4136435389945170e+00 2.8546490731726726e+00 3.1707921858779979e+00 0 1 1
380 1 1.1778030234510926e+01 1.8406042235680120e+00 5.6638710600882813e+00 0 0 0
1632 1 1.0035824014448853e+01 9.7631907491392078e-01 3.4734703965059008e+00 1 1 0
4750 1 2.7562511944978811e+00 5.7390545584369121e+00 4.4516711248201881e+00 -1 0 1
2263 1 2.3740307296235481e+00 9.1314701519190038e+00 6.7897573465694023e+00 0 1 0
437 1 6.6338825616533210e+00 5.5541258736842680e+00 5.3434494959253849e+00 1 -1 0
3337 1 5.0429686759893269e+00 8.9716698752858939e+00 7.6685111968742312e+00 1 1 1
558 1 9.1817740639195335e+00 6.3892280440149545e+00 5.1935468473637432e+00 0 2 1
6541 1 1.1903766128796001e+01 2.4215380548502914e+01 1.0266674358915273e+01 0 0 1
6376 1 7.0630359947914967e-01 3.7698860955844347e+00 4.8598178615793035e+00 1 0 1
3906 1 1.3089458116382229e+00 8.9248373458256065e+00 3.9325479735873436e+00 0 1 1
3444 1 5.7303307105894312e+00 1.2215785426855090e+01 5.5122362738510011e+00 0 1 0
5706 1 6.2301673144227125e+00 9.5990842663580160e+00 5.3074614834342171e+00 1 2 0
182 1 1.1789002279022515e+01 1.2322475538735702e+01 4.6181358189882022e+00 0 0 0
1901 1 1.1645683071884234e+01 1.0504557263142168e+01 2.6006119186117944e+00 -1 0 0
1642 1 9.0151510053422310e+00 9.1224924706967041e+00 4.7351160566047037e+00 -1 1 1
5527 1 1.0724507299809753e+01 1.0285903404010620e+01 6.4127477365664181e+00 2 1 0
3731 1 2.7528149788682099e+00 1.5367489163754612e+01 6.2729316301845035e+00 0 1 0
6466 1 7.6276160171644731e+00 1.4201389579950968e+01 5.3090472796618648e+00 0 1 1
1494 1 6.2615550722103794e+00 1.6521581590046182e+01 5.1597697164384018e+00 0 1 1
356 1 9.9661974810677343e+00 1.4412077299975525e+01 4.3446190841701160e+00 -1 1 0
6404 1 4.9485179199844365e-01 1.7756745507316676e+01 3.4087412309455010e+00 0 0 1
194 1 1.0260590395160736e+00 1.9458837541579911e+01 5.5667793781454042e+00 1 0 0
3825 1 3.3309477818426738e+00 1.9450150140578277e+01 7.7667658589081903e+00 1 1 0
424 1 1.1693031461258162e+01 2.0034244106686746e+01 8.3216957789898647e+00 0 -1 0
2104 1 4.4210677130520502e+00 1.6965564919626601e+01 7.3646560544435307e+00 0 0 1
46 1 5.7877009066808478e+00 1.6973613621105912e+01 2.6553521695723368e+00 0 -1 1
3707 1 4.1915969190991875e+00 2.0233278047348936e+01 4.9172200711440421e+00 0 -1 0
5283 1 8.3162646582070892e+00 1.8283216957666976e+01 5.7735442069074132e+00 2 -1 0
1325 1 1.0891365368576837e+01 1.7012882103685580e+01 5.2075182666312081e+00 0 0 1
6682 1 1.1399929993716249e+01 5.4421280303745867e+00 1.0204428163316051e+00 0 1 0
3204 1 3.2800556113421013e+00 2.2836175724488459e+01 4.8538957852555988e+00 0 1 1
369 1 6.6507590464249855e+00 2.0271425687513890e+01 4.9091543423593338e+00 0 1 0
6602 1 2.5456989658331040e+00 1.6574103028891646e+01 1.1192709888430054e+01 1 1 1
1978 1 7.5103840605049408e+00 2.2675709990485444e+01 5.4793819144121727e+00 0 1 0
4814 1 1.2317204505014008e+01 5.6354775539677693e-01 1.2218835594218158e+00 1 -1 1
1464 1 1.1358923166193760e+01 1.1683615586689655e+01 1.0761108009333697e-01 1 -1 1
293 1 3.6760698780322074e+00 2.2041001437926635e+00 8.1013614197474961e+00 -1 0 0
5284 1 4.0988178994216717e+00 2.3943061738776041e+00 1.0852620234243593e+01 1 0 0
1971 1 8.4192428440489202e+00 6.3825912791162338e+00 9.9072605614122367e+00 1 1 0
3436 1 3.9766203758898473e+00 2.1579119636134561e+01 9.3777169791321402e+00 0 0 1
5148 1 3.9626840777494445e+00 5.0758484137542812e+00 8.4336076110531124e+00 1 2 0
3189 1 7.7814215877123845e+00 2.0198580979278162e+00 8.8522627332901056e+00 1 1 1
6386 1 9.1760079474396683e+00 3.2451598884600124e+00 6.1497075988046701e+00 0 1 1
1660 1 6.6854040169319502e+00 2.2206164701117640e+01 1.0115396884214698e+01 0 1 1
187 1 9.0232649073285121e+00 1.8512571850751478e+01 8.2925501864549371e+00 -1 -1 0
3853 1 6.2816458322953013e+00 6.5480931448076429e+00 7.7481304399540143e+00 1 1 0
1545 1 1.2058770321801733e+01 2.1521208006541414e+01 6.1416510396669617e+00 0 -1 1
6534 1 9.9974753825844562e+00 4.5216862431707252e+00 9.0008475466248239e+00 0 1 1
4945 1 1.0165986290252540e+01 8.2830982641805981e+00 1.0130780052871939e+01 1 2 1
504 1 6.0504197359380352e-01 1.3326622512044567e+01 3.0334181870099299e+00 1 0 0
5063 1 1.9086922121171315e+00 1.1784757520615672e+01 7.5420793610910675e+00 1 -1 0
150 1 1.1916724976561948e+01 1.3173909432830662e+01 9.8774851420854741e+00 0 1 0
2100 1 6.4300244275063339e+00 1.0247558764392803e+01 9.9213767365767715e+00 1 1 0
1766 1 9.0492566855902865e+00 1.0702988238908837e+01 1.0393771602981111e+01 0 0 1
533 1 9.7743505503312349e+00 1.2194433812953319e+01 8.3173176731919600e+00 0 0 1
5156 1 2.7639079869031966e+00 5.0369797978890656e+00 1.1255188369519171e+01 1 1 0
3242 1 1.1824304021678925e+01 3.2639288700422227e+00 1.0595910785316470e+01 0 1 1
5546 1 4.0535762538382389e+00 1.3224640669341253e+01 7.1939247795693921e+00 2 0 1
6680 1 5.6545673010003137e+00 1.3132369237679960e+01 9.4929285093217928e+00 0 -1 0
537 1 8.6535863811165523e+00 1.6000815813109767e+01 9.2326345726141881e+00 -1 0 1
575 1 7.7907474815300439e+00 1.3931517886878732e+01 7.6936105591536457e+00 0 0 1
3413 1 2.4411794973453498e+00 1.1679046079870208e+01 1.0761696297716860e+01 1 -1 0
3160 1 1.0310648870515897e+00 1.8718021529659524e+01 1.0446264485408491e+01 0 1 1
4969 1 4.0707027634968034e+00 9.3367994214156125e-01 7.6820430528423489e-01 0 1 1
3481 1 1.2228409136079607e+01 8.3825701777656665e+00 7.8423628306846886e+00 1 0 0
2998 1 1.2445110005279503e+01 1.8164853130450229e+01 3.1577658218399938e+00 -1 0 1
3435 1 4.2791494793390026e+00 2.4044943237472239e+01 7.3118208250680397e+00 0 -1 0
6354 1 4.7914087597157845e-01 5.4308752226576003e+00 9.9079499484266229e+00 0 1 1
2114 1 1.3562048223660170e+00 1.3594501357034352e+01 -2.3181662814313525e-01 1 0 1
3857 1 1.9884641564043100e+00 4.0425756782228390e+00 1.3765263277707962e+01 0 0 0
3077 1 3.5113932548810558e+00 1.3504757522296402e+00 1.4563142556370515e+01 -1 1 1
2345 1 6.0715038427559724e+00 2.2918481234700852e+00 1.4695814799594444e+01 0 1 0
3475 1 1.0598420381830844e+00 3.1011011516748552e+00 2.3423613537465211e+01 1 1 1
6427 1 1.0500357437108724e+01 1.8928805436513292e+00 1.3781164939921426e+01 1 1 0
3736 1 9.3597155741310463e+00 6.1231476987072435e+00 1.3624720520360984e+01 1 0 0
3275 1 1.0587568028358055e+01 2.0049068446325141e+01 1.2227368652900889e+01 0 1 1
1783 1 5.1461430586309387e+00 6.2784250992163679e+00 1.2968797571384567e+01 0 0 0
4861 1 1.0393253025881135e+00 6.1855096715147218e+00 1.5410835743560757e+01 1 0 1
3047 1 4.7065982461009241e+00 4.9500599891897359e+00 1.5415811106334903e+01 0 0 1
5646 1 7.3194390814693771e+00 5.3345953986333905e+00 1.2096793838947907e+01 1 0 0
5235 1 7.8100120253795478e+00 8.7596734585646985e+00 1.2975999040902966e+01 1 1 0
6418 1 9.0763260111031663e+00 2.1127162711256897e+00 1.8466998375790169e+01 1 0 1
42 1 6.3725317375689086e+00 1.7641913441746741e+01 1.1709620192489069e+01 -1 -1 0
3262 1 3.0659340489458526e+00 1.3729727242161275e+01 1.3700802725349398e+01 0 1 1
6540 1 2.3498667091722627e+00 1.0867122837029144e+00 2.0052924512570133e+01 1 1 0
4779 1 4.6319602064904064e+00 8.9923449391932753e+00 1.3630656051068732e+01 0 1 1
1726 1 9.2778827611341406e+00 9.4988866701017010e+00 1.6684839846322866e+01 0 2 1
256 1 1.0137976323467948e+01 9.9167346005867376e+00 1.3804449231638799e+01 -1 0 0
6543 1 3.4081798568496779e+00 1.7533001288144817e+01 1.9771247420360670e+01 0 1 1
3572 1 2.9031626419867900e+00 1.6495292557550609e+01 1.3935329805718421e+01 -1 0 1
6387 1 7.4549550688959680e+00 1.4778971636936209e+01 1.2034446122362278e+01 1 0 1
3375 1 6.0590224687978269e+00 1.4717785655388495e+01 1.7610584274552892e+01 0 1 1
2006 1 9.9208077006241293e+00 1.5065812882049588e+01 1.3615322213332753e+01 0 1 0
3694 1 1.0246715676333961e+01 1.4304157709899457e+01 1.6228463289122899e+01 1 0 0
1821 1 3.6086540699013216e+00 2.3434233251660704e+01 1.2414206059328768e+01 0 0 0
3769 1 4.0002618287271412e+00 1.8578392355645651e+01 1.5731592781392035e+01 1 0 0
2128 1 5.4283809488426993e+00 1.9801979861726721e+01 1.3473914385754417e+01 1 0 0
4823 1 8.2412780646735868e+00 1.8566033234058008e+01 1.4024840469436652e+01 1 0 1
5619 1 8.2726055011173365e+00 1.6002589492561913e+01 1.7667383367098072e+01 0 0 0
5205 1 5.7069770753389815e+00 1.3127454050286014e+01 1.3187073559761268e+01 2 0 0
2161 1 1.1342339864405965e+01 1.7438418434976573e+01 1.2883988930574134e+01 1 1 0
3097 1 1.0543391893676612e+01 2.4091618776300010e+01 1.7676790843580132e+01 0 1 1
2052 1 3.8044759482422292e+00 2.2638702462830011e+01 2.2578381115654299e+01 0 0 0
4836 1 1.4953008508956507e+00 2.1152403169158049e+01 1.3980351298627498e+01 2 0 1
5360 1 7.5393241657583134e+00 2.2645834142421233e+01 1.4677625361049303e+01 1 0 1
3843 1 1.0071737387910838e+01 2.1602203330200734e+01 1.4189507999486253e+01 2 1 0
1804 1 1.1221093643775482e+01 7.1900883888685598e+00 2.0372064955090863e+01 0 1 1
2041 1 1.0761194950048317e+01 2.0263690107729420e+01 1.6317338767899955e+01 0 1 0
6455 1 4.6856299617674653e+00 1.0785790912443767e+01 1.1779702084758783e+01 -1 1 1
2025 1 4.8482688648244743e+00 3.7094190239133162e+00 1.8852455099354287e+01 0 1 0
4886 1 1.0847878097642779e+01 2.8492724636985547e+00 1.6545578296373119e+01 0 -1 1
6431 1 6.9483350682293188e-01 6.1741423025134328e+00 1.9167702925720896e+01 1 1 1
5408 1 2.4958566414142593e+00 4.3301027450555276e+00 1.7565824041399740e+01 2 1 0
3306 1 6.9431972544724783e+00 6.0592898732297984e+00 1.6965488941375884e+01 0 2 1
3292 1 1.1398607895908244e+01 7.7558550316790935e+00 1.7755896480484743e+01 0 0 0
3128 1 9.8701853458974451e+00 5.8266661678768124e+00 1.6553208292186707e+01 0 1 0
3195 1 2.1799769936998818e+00 8.4446648848657215e+00 1.5514695227822017e+01 2 1 0
1836 1 2.1423770253191106e+00 8.6746997179532173e+00 1.8212539606582251e+01 0 1 0
2321 1 6.8403193521853849e+00 8.6432965605727556e+00 1.7538384757402991e+01 0 0 0
3640 1 5.0647070987496727e+00 1.0302677773373135e+01 1.6191987642406463e+01 2 0 0
286 1 3.2963570630294750e+00 1.1280406619424914e+01 1.7967726454140507e+01 1 0 0
3223 1 1.0842751635789709e+01 1.4646159184404421e+00 2.3230445052598284e+01 1 2 1
3247 1 8.7100873774362491e+00 1.2253790029131491e+01 1.7498364695199626e+01 0 1 1
1761 1 1.9531909563138024e+00 1.3003441991832316e+01 1.6175141052020543e+01 0 0 0
352 1 1.2437566970414486e+00 1.5296311654277316e+01 1.7508466242538173e+01 1 0 0
1987 1 6.9248573446818495e-01 1.4645315876101661e+01 1.9954898506687172e+01 0 0 0
6527 1 6.2522677901011834e+00 1.2446279677188976e+01 1.5874080214290810e+01 0 -1 1
2239 1 4.7927604641887731e+00 1.3474732871388202e+01 1.9937255310980117e+01 0 0 0
2106 1 8.6861297825717401e+00 5.1066611156441111e+00 2.3631901523101796e+01 0 2 0
3776 1 5.4113684068175809e+00 6.0739726579626918e+00 2.3678032844355805e+01 1 1 0
6390 1 8.7716775786272336e+00 1.3143851924404157e+01 2.0332603087532469e+01 1 0 1
3941 1 3.7590325566126004e+00 1.6392722586047135e+01 1.7404174582345959e+01 0 1 0
6737 1 8.6654802873436712e+00 1.8661645453122972e+01 1.6701971176152046e+01 -1 2 0
3797 1 7.8717188703160028e+00 1.8720480320996749e+01 1.9899351077011055e+01 0 0 0
5209 1 1.1778288001965558e+01 1.6586944819810018e+01 1.7647076517150783e+01 0 1 0
1655 1 7.6857096431421041e+00 1.6975293874306669e+00 2.1210690597882273e+01 0 1 1
3281 1 2.1661794167764823e+00 2.0497796278062502e+01 1.6470478937887492e+01 1 1 0
1376 1 7.0682119166717055e+00 2.3324543951553224e+01 1.8985624317651776e+01 2 0 1
6622 1 1.1874393643492335e+01 1.1359112346663931e+01 1.5825029523749528e+01 -1 2 1
354 1 1.0901931144911277e+01 2.1492241800553970e+01 1.9209408715590840e+01 0 0 0
3792 1 6.4812660272722571e+00 2.0536317343338538e+01 1.6468091573275515e+01 1 -1 0
3506 1 5.1282994733345157e+00 1.9165371932377166e+01 2.0992097924289077e+01 1 0 0
1870 1 1.9475323670953901e+00 2.4258268207435641e+01 1.4476737386300657e+01 -1 0 0
3188 1 1.1403768955131806e+01 2.4033149536009486e+01 1.4830375056580193e+01 2 0 1
3040 1 4.9199235186434374e+00 1.3421866232994708e+00 2.0811271399042127e+01 0 2 1
5126 1 1.0373457180702887e+00 1.3697711278795021e+01 1.1897198858540253e+01 0 1 0
3307 1 1.1347133172687901e+01 4.5438615366547452e+00 1.2983160441205738e+01 0 1 1
4860 1 8.7638159499456840e+00 4.5655472726450848e+00 2.0390447778043914e+01 1 0 1
3126 1 6.7345354884209829e+00 2.0994708750187665e+00 1.7342804936935504e+01 1 0 1
17 1 5.5856106491021595e-01 3.6016027291183819e+00 2.0772100325188408e+01 0 0 0
3224 1 2.5821946217040970e+00 7.7664324769306550e+00 2.1014495671319914e+01 -1 2 1
5201 1 8.0015248340498886e+00 1.4132446301800652e+00 1.3048737325036122e+01 1 1 0
5365 1 3.8902650460707742e+00 2.2414686748456095e+01 1.7062522663294864e+01 1 0 0
3257 1 6.3498633800800963e+00 5.7364258704916722e+00 1.9473375392083234e+01 0 0 0
3217 1 5.0950073264625075e+00 7.3895761048677917e+00 2.1341950180546512e+01 0 -1 1
3235 1 1.1026508751250294e+01 2.1786552898324111e+01 2.3684925085648814e+01 1 1 1
3052 1 6.2518387307773864e+00 1.2145957894550580e+01 2.3888598071909300e+01 1 2 1
1450 1 9.4024733539011009e+00 8.8565091702371657e+00 2.1373681972031164e+01 2 1 1
3993 1 1.1925022970150621e+01 4.4432577625541168e+00 2.0712501395628415e+01 0 0 1
5508 1 8.2301493424348600e+00 8.0055279862382491e+00 2.3846243082995564e+01 0 0 0
1707 1 8.2874680642169452e+00 1.1213998412299975e+00 2.3663006183118764e+01 1 2 1
2119 1 1.1022722408519373e+01 1.2050986924735478e+01 2.3818525507637368e+01 0 1 0
3312 1 2.8115194808936836e+00 1.0951750955304847e+01 2.0713688617176377e+01 1 1 1
5299 1 2.9623200308992841e+00 2.0124819710717706e+01 2.3227153687729320e+01 1 2 0
1453 1 6.2212285203952433e+00 2.4461788983836545e+01 1.6190646632962288e+01 1 0 1
5350 1 7.0096105391228827e+00 9.2614162800313107e+00 2.0024601288200198e+01 1 0 0
3581 1 6.4719103908543785e+00 1.1856093218693484e+01 2.1093694874901370e+01 1 0 0
5207 1 1.0716700725483292e+01 1.1467883348958745e+01 2.1224035388938702e+01 1 0 0
1458 1 4.9011236476245390e+00 2.2019088038423927e+01 1.9806094449303863e+01 0 0 1
1636 1 2.4920689342600384e+00 2.3960785201428735e+01 1.9549923688672418e+01 1 1 1
1451 1 8.6656378127895977e+00 2.1318729023810914e+01 2.0584557817055572e+01 0 0 1
3878 1 1.1614276876532415e+01 4.2708449237966803e+00 2.3486471077744895e+01 0 0 1
4859 1 3.0332132613280058e+00 1.5068130396471089e+01 2.1586379724951037e+01 0 1 1
3760 1 3.2282717769565367e-01 2.0473282898057882e+01 1.8663003407282861e+01 0 0 0
488 1 9.7433796147215279e+00 1.5987576166662958e+01 2.0056853972588026e+01 0 0 0
1855 1 6.3797620309833887e+00 2.3586546099027085e+01 1.2556008751576755e+01 0 0 0
3324 1 1.0675997821444241e+01 1.2520404506881013e+01 1.2601193393215929e+01 0 1 1
1687 1 1.2194341062852892e+01 1.5268809837410441e+01 2.0898226788834513e+01 0 1 1
487 1 4.0322218409295694e+00 2.2310261669937042e+00 2.3047765654784339e+01 -1 0 1
357 1 1.4318457565055069e+00 1.9300451944361342e+01 2.0908359904178550e+01 1 -1 0
1373 1 8.4452585744465445e+00 2.1280442705557132e+01 2.3141706930933907e+01 0 1 1
3701 1 1.1885014152545418e+01 1.8217223981609127e+01 1.5391850789882081e+01 1 0 0
5463 1 8.7087811141004199e+00 1.6855422916479025e+01 2.2820756959956789e+01 1 0 0
2088 1 1.1744962588130630e+01 7.7278276392239826e+00 1.2531478689572184e+01 1 1 0
5631 1 1.1956701036249333e+01 1.4477090361462041e+01 2.3784170643541223e+01 0 1 0
1347 1 1.9057932751488060e+00 1.7034064171788752e+00 1.7683265791778851e+01 1 0 1
2079 1 2.7981370651675741e+00 2.0391894729036387e+01 1.1763089000274830e+01 3 -1 0
3935 1 6.6663397528542134e+00 2.3464238115811067e+01 2.3388018045628680e+01 1 -1 1
1322 1 1.2350312830640672e+01 6.5386433199253147e-01 1.2241025291834987e+01 2 2 1
3879 1 3.6462480357496361e+00 1.0987378807326705e+01 2.3419963386552368e+01 1 1 1
542 1 2.7646847337829437e+00 5.4129952593811490e+00 2.3771637995114997e+01 1 0 0
5576 1 1.9897514226127087e+00 8.0936665126181566e+00 2.3703101499294764e+01 1 0 1
623 2 2.9441958833480797e-01 3.1009424485345147e+00 2.6751596689973859e+01 0 0 0
625 2 2.9441958833480797e-01 2.9322106929921077e-01 2.6751596689973859e+01 0 0 0
627 2 1.5101986089181101e+00 9.9515141410804298e-01 2.6751596689973859e+01 0 0 0
634 2 1.5101986089181101e+00 2.3990121037256409e+00 2.6751596689973859e+01 0 0 0
636 2 2.7259776295014122e+00 3.1009424485345147e+00 2.6751596689973859e+01 0 0 0
638 2 2.7259776295014122e+00 2.9322106929921077e-01 2.6751596689973859e+01 0 0 0
640 2 3.9417566500845704e+00 9.9515141410804298e-01 2.6751596689973859e+01 0 0 0
655 2 3.9417566500845704e+00 2.3990121037256409e+00 2.6751596689973859e+01 0 0 0
6479 1 7.6204772705419739e+00 1.8912440631949437e+01 2.4817665140736363e+01 0 2 1
283 1 1.5378179341260441e+00 1.2326428559220306e+01 2.4364257575707960e+01 -1 2 0
657 2 5.1575356706680164e+00 3.1009424485345147e+00 2.6751596689973859e+01 0 0 0
659 2 5.1575356706680164e+00 2.9322106929921077e-01 2.6751596689973859e+01 0 0 0
661 2 6.3733146912511369e+00 9.9515141410804298e-01 2.6751596689973859e+01 0 0 0
684 2 6.3733146912511369e+00 2.3990121037256409e+00 2.6751596689973859e+01 0 0 0
686 2 7.5890937118343329e+00 3.1009424485345147e+00 2.6751596689973859e+01 0 0 0
688 2 7.5890937118343329e+00 2.9322106929921077e-01 2.6751596689973859e+01 0 0 0
690 2 8.8048727324174223e+00 9.9515141410804298e-01 2.6751596689973859e+01 0 0 0
721 2 8.8048727324174223e+00 2.3990121037256409e+00 2.6751596689973859e+01 0 0 0
723 2 1.0020651753001225e+01 3.1009424485345147e+00 2.6751596689973859e+01 0 0 0
725 2 1.0020651753001225e+01 2.9322106929921077e-01 2.6751596689973859e+01 0 0 0
727 2 1.1236430773584544e+01 9.9515141410804298e-01 2.6751596689973859e+01 0 0 0
766 2 1.1236430773584544e+01 2.3990121037256409e+00 2.6751596689973859e+01 0 0 0
768 2 1.2452209794167466e+01 3.1009424485345147e+00 2.6751596689973859e+01 0 0 0
770 2 1.2452209794167466e+01 2.9322106929921077e-01 2.6751596689973859e+01 0 0 0
417 1 6.6116127267037195e+00 2.4086113491516805e+01 3.5920754335322712e+01 -1 0 -1
628 2 2.9441958833480797e-01 7.3125245173877760e+00 2.6751596689973859e+01 0 0 0
630 2 2.9441958833480797e-01 4.5048031381520710e+00 2.6751596689973859e+01 0 0 0
632 2 1.5101986089181101e+00 5.2067334829610417e+00 2.6751596689973859e+01 0 0 0
647 2 1.5101986089181101e+00 6.6105941725789057e+00 2.6751596689973859e+01 0 0 0
649 2 2.7259776295014122e+00 7.3125245173877760e+00 2.6751596689973859e+01 0 0 0
651 2 2.7259776295014122e+00 4.5048031381520710e+00 2.6751596689973859e+01 0 0 0
653 2 3.9417566500845704e+00 5.2067334829610417e+00 2.6751596689973859e+01 0 0 0
676 2 3.9417566500845704e+00 6.6105941725789057e+00 2.6751596689973859e+01 0 0 0
678 2 5.1575356706680164e+00 7.3125245173877760e+00 2.6751596689973859e+01 0 0 0
680 2 5.1575356706680164e+00 4.5048031381520710e+00 2.6751596689973859e+01 0 0 0
682 2 6.3733146912511369e+00 5.2067334829610417e+00 2.6751596689973859e+01 0 0 0
713 2 6.3733146912511369e+00 6.6105941725789057e+00 2.6751596689973859e+01 0 0 0
715 2 7.5890937118343329e+00 7.3125245173877760e+00 2.6751596689973859e+01 0 0 0
717 2 7.5890937118343329e+00 4.5048031381520710e+00 2.6751596689973859e+01 0 0 0
494 1 4.4023994887856560e-01 6.2620965011448382e+00 3.5954333275440590e+01 0 -1 -1
719 2 8.8048727324174223e+00 5.2067334829610417e+00 2.6751596689973859e+01 0 0 0
758 2 8.8048727324174223e+00 6.6105941725789057e+00 2.6751596689973859e+01 0 0 0
760 2 1.0020651753001225e+01 7.3125245173877760e+00 2.6751596689973859e+01 0 0 0
762 2 1.0020651753001225e+01 4.5048031381520710e+00 2.6751596689973859e+01 0 0 0
764 2 1.1236430773584544e+01 5.2067334829610417e+00 2.6751596689973859e+01 0 0 0
805 2 1.1236430773584544e+01 6.6105941725789057e+00 2.6751596689973859e+01 0 0 0
807 2 1.2452209794167466e+01 7.3125245173877760e+00 2.6751596689973859e+01 0 0 0
809 2 1.2452209794167466e+01 4.5048031381520710e+00 2.6751596689973859e+01 0 0 0
641 2 2.9441958833480797e-01 1.1524106586240427e+01 2.6751596689973859e+01 0 0 0
643 2 2.9441958833480797e-01 8.7163852070049312e+00 2.6751596689973859e+01 0 0 0
645 2 1.5101986089181101e+00 9.4183155518139756e+00 2.6751596689973859e+01 0 0 0
668 2 1.5101986089181101e+00 1.0822176241431540e+01 2.6751596689973859e+01 0 0 0
670 2 2.7259776295014122e+00 1.1524106586240427e+01 2.6751596689973859e+01 0 0 0
672 2 2.7259776295014122e+00 8.7163852070049312e+00 2.6751596689973859e+01 0 0 0
674 2 3.9417566500845704e+00 9.4183155518139756e+00 2.6751596689973859e+01 0 0 0
705 2 3.9417566500845704e+00 1.0822176241431540e+01 2.6751596689973859e+01 0 0 0
707 2 5.1575356706680164e+00 1.1524106586240427e+01 2.6751596689973859e+01 0 0 0
709 2 5.1575356706680164e+00 8.7163852070049312e+00 2.6751596689973859e+01 0 0 0
711 2 6.3733146912511369e+00 9.4183155518139756e+00 2.6751596689973859e+01 0 0 0
750 2 6.3733146912511369e+00 1.0822176241431540e+01 2.6751596689973859e+01 0 0 0
752 2 7.5890937118343329e+00 1.1524106586240427e+01 2.6751596689973859e+01 0 0 0
754 2 7.5890937118343329e+00 8.7163852070049312e+00 2.6751596689973859e+01 0 0 0
756 2 8.8048727324174223e+00 9.4183155518139756e+00 2.6751596689973859e+01 0 0 0
797 2 8.8048727324174223e+00 1.0822176241431540e+01 2.6751596689973859e+01 0 0 0
799 2 1.0020651753001225e+01 1.1524106586240427e+01 2.6751596689973859e+01 0 0 0
801 2 1.0020651753001225e+01 8.7163852070049312e+00 2.6751596689973859e+01 0 0 0
803 2 1.1236430773584544e+01 9.4183155518139756e+00 2.6751596689973859e+01 0 0 0
844 2 1.1236430773584544e+01 1.0822176241431540e+01 2.6751596689973859e+01 0 0 0
846 2 1.2452209794167466e+01 1.1524106586240427e+01 2.6751596689973859e+01 0 0 0
848 2 1.2452209794167466e+01 8.7163852070049312e+00 2.6751596689973859e+01 0 0 0
662 2 2.9441958833480797e-01 1.5735688655094149e+01 2.6751596689973859e+01 0 0 0
664 2 2.9441958833480797e-01 1.2927967275858601e+01 2.6751596689973859e+01 0 0 0
666 2 1.5101986089181101e+00 1.3629897620667995e+01 2.6751596689973859e+01 0 0 0
697 2 1.5101986089181101e+00 1.5033758310284881e+01 2.6751596689973859e+01 0 0 0
699 2 2.7259776295014122e+00 1.5735688655094149e+01 2.6751596689973859e+01 0 0 0
701 2 2.7259776295014122e+00 1.2927967275858601e+01 2.6751596689973859e+01 0 0 0
703 2 3.9417566500845704e+00 1.3629897620667995e+01 2.6751596689973859e+01 0 0 0
742 2 3.9417566500845704e+00 1.5033758310284881e+01 2.6751596689973859e+01 0 0 0
6526 1 2.6521846747071054e+00 2.2096258971475010e+01 3.5909999597241068e+01 1 1 0
5089 1 8.1495889742128735e-01 1.8870173366550588e+01 2.4208579826776042e+01 1 1 1
744 2 5.1575356706680164e+00 1.5735688655094149e+01 2.6751596689973859e+01 0 0 0
746 2 5.1575356706680164e+00 1.2927967275858601e+01 2.6751596689973859e+01 0 0 0
748 2 6.3733146912511369e+00 1.3629897620667995e+01 2.6751596689973859e+01 0 0 0
789 2 6.3733146912511369e+00 1.5033758310284881e+01 2.6751596689973859e+01 0 0 0
791 2 7.5890937118343329e+00 1.5735688655094149e+01 2.6751596689973859e+01 0 0 0
793 2 7.5890937118343329e+00 1.2927967275858601e+01 2.6751596689973859e+01 0 0 0
795 2 8.8048727324174223e+00 1.3629897620667995e+01 2.6751596689973859e+01 0 0 0
836 2 8.8048727324174223e+00 1.5033758310284881e+01 2.6751596689973859e+01 0 0 0
838 2 1.0020651753001225e+01 1.5735688655094149e+01 2.6751596689973859e+01 0 0 0
840 2 1.0020651753001225e+01 1.2927967275858601e+01 2.6751596689973859e+01 0 0 0
842 2 1.1236430773584544e+01 1.3629897620667995e+01 2.6751596689973859e+01 0 0 0
878 2 1.1236430773584544e+01 1.5033758310284881e+01 2.6751596689973859e+01 0 0 0
880 2 1.2452209794167466e+01 1.5735688655094149e+01 2.6751596689973859e+01 0 0 0
882 2 1.2452209794167466e+01 1.2927967275858601e+01 2.6751596689973859e+01 0 0 0
691 2 2.9441958833480797e-01 1.9947270723946534e+01 2.6751596689973859e+01 0 0 0
693 2 2.9441958833480797e-01 1.7139549344710652e+01 2.6751596689973859e+01 0 0 0
695 2 1.5101986089181101e+00 1.7841479689520085e+01 2.6751596689973859e+01 0 0 0
734 2 1.5101986089181101e+00 1.9245340379137172e+01 2.6751596689973859e+01 0 0 0
736 2 2.7259776295014122e+00 1.9947270723946534e+01 2.6751596689973859e+01 0 0 0
738 2 2.7259776295014122e+00 1.7139549344710652e+01 2.6751596689973859e+01 0 0 0
740 2 3.9417566500845704e+00 1.7841479689520085e+01 2.6751596689973859e+01 0 0 0
781 2 3.9417566500845704e+00 1.9245340379137172e+01 2.6751596689973859e+01 0 0 0
3836 1 1.1961123268624961e+01 7.5802535283906103e+00 3.6065612775288145e+01 0 0 -1
783 2 5.1575356706680164e+00 1.9947270723946534e+01 2.6751596689973859e+01 0 0 0
785 2 5.1575356706680164e+00 1.7139549344710652e+01 2.6751596689973859e+01 0 0 0
787 2 6.3733146912511369e+00 1.7841479689520085e+01 2.6751596689973859e+01 0 0 0
828 2 6.3733146912511369e+00 1.9245340379137172e+01 2.6751596689973859e+01 0 0 0
830 2 7.5890937118343329e+00 1.9947270723946534e+01 2.6751596689973859e+01 0 0 0
832 2 7.5890937118343329e+00 1.7139549344710652e+01 2.6751596689973859e+01 0 0 0
51 1 1.1159595767732792e+01 1.7211583400130131e+01 2.4221158024608393e+01 1 2 0
834 2 8.8048727324174223e+00 1.7841479689520085e+01 2.6751596689973859e+01 0 0 0
870 2 8.8048727324174223e+00 1.9245340379137172e+01 2.6751596689973859e+01 0 0 0
872 2 1.0020651753001225e+01 1.9947270723946534e+01 2.6751596689973859e+01 0 0 0
874 2 1.0020651753001225e+01 1.7139549344710652e+01 2.6751596689973859e+01 0 0 0
876 2 1.1236430773584544e+01 1.7841479689520085e+01 2.6751596689973859e+01 0 0 0
904 2 1.1236430773584544e+01 1.9245340379137172e+01 2.6751596689973859e+01 0 0 0
908 2 1.2452209794167466e+01 1.7139549344710652e+01 2.6751596689973859e+01 0 0 0
728 2 2.9441958833480797e-01 2.4158852792800065e+01 2.6751596689973859e+01 0 0 0
730 2 2.9441958833480797e-01 2.1351131413563870e+01 2.6751596689973859e+01 0 0 0
732 2 1.5101986089181101e+00 2.2053061758373470e+01 2.6751596689973859e+01 0 0 0
773 2 1.5101986089181101e+00 2.3456922447990969e+01 2.6751596689973859e+01 0 0 0
775 2 2.7259776295014122e+00 2.4158852792800065e+01 2.6751596689973859e+01 0 0 0
777 2 2.7259776295014122e+00 2.1351131413563870e+01 2.6751596689973859e+01 0 0 0
779 2 3.9417566500845704e+00 2.2053061758373470e+01 2.6751596689973859e+01 0 0 0