LAMMPS data file via write_data, version 16 Mar 2018, timestep = 6000000

6337 atoms
2 atom types

0.0000000000000000e+00 4.9219999999999999e+01 xlo xhi
0.0000000000000000e+00 4.9019635930410494e+01 ylo yhi
1.4022193088976245e+00 5.8659780691102270e+01 zlo zhi

Masses

1 18.015
2 12.01

Atoms # atomic

6171 1 1.9585997475898482e+00 4.1640519624042200e+00 3.5194596504661995e+00 2 0 1
2858 1 8.6872123714414133e+00 7.6732325625159454e+00 7.3201327371833402e+00 2 2 1
4990 1 6.6674781902134699e+00 1.1645819824128022e+01 4.2530488021355453e+00 0 0 0
6260 1 6.6129496774270926e+00 4.2883876861315624e+00 3.8071484633569912e+00 0 2 0
1322 1 2.1436528379212887e+00 7.4970904039355037e+00 2.1690480756840671e+00 0 0 1
1402 1 4.2392805971436074e+00 8.1086239105515343e+00 3.9067605878209331e+00 3 2 1
492 1 4.3768801827874793e+00 4.0538247041500391e-01 4.2969999018104819e+00 2 -1 1
1244 1 6.6257687362275099e+00 7.0322921731808554e+00 3.3598381146517564e+00 1 -1 0
1773 1 8.9807113487905372e+00 7.7137701929060496e+00 4.5306456345914778e+00 0 1 0
1510 1 4.2731897293721790e+00 1.0977242819050566e+01 3.5824984187409297e+00 -3 2 1
6085 1 8.7899264296553135e+00 7.4256570822702683e-01 3.6304520959637658e+00 3 1 1
326 1 8.9855806576409467e+00 1.0344979156299461e+01 3.5217545251849383e+00 2 0 1
3439 1 1.9360872804872022e+00 9.2007619573837349e+00 7.5239475533855629e+00 0 2 0
2949 1 4.1633959119793840e+00 3.1845788228601921e+00 5.0692195431990896e+00 1 1 1
3742 1 3.8644496536875179e+00 3.2257244506685319e+00 8.0408508831488508e+00 0 -1 1
5249 1 8.0794527929734716e+00 2.6317952545535830e+00 7.9409506030766703e+00 2 -3 0
1253 1 8.4387358227203020e+00 2.9933015287262537e+00 5.2072381764264453e+00 0 2 1
1651 1 4.2636911688120795e+00 8.2414256415709364e+00 6.6698063770915219e+00 -1 1 0
5046 1 6.7987953297939816e+00 9.4133636453293921e+00 7.8511206936667781e+00 -1 2 0
2880 1 6.4226514251781701e+00 1.1945168822245883e+01 6.9194125377784736e+00 3 2 1
5037 1 4.5379918976895445e-02 8.2852859088869977e+00 3.9767253824531719e+00 -1 3 0
4 1 1.9920208487862563e+00 1.2033782075694688e+01 6.6253228342316062e+00 3 0 1
4570 1 4.1336118900123342e+00 5.7903487021048479e+00 8.4207465906254821e+00 1 0 1
5108 1 3.9960746496641817e+00 6.3015429439592430e-02 1.8627792929415992e+00 2 -2 0
1899 1 8.3310638250934446e+00 1.0231970917464519e+01 1.4175650950376422e+01 4 2 1
3434 1 1.3741125335404012e+00 2.0568206497929671e+00 1.2016450441044391e+01 1 -3 1
2083 1 5.7987894210100288e+00 1.9264913574605558e+00 1.1558606273975782e+01 1 1 0
4935 1 6.4688666552249821e+00 1.1973147256550776e+01 1.4763257882097159e+01 2 2 1
2872 1 1.9396322065088896e+00 6.2688989406286657e+00 1.0200920826073508e+01 0 1 0
4530 1 6.4719864403992782e+00 6.2887303034600341e+00 1.0103069424682767e+01 0 0 1
226 1 8.7267482485997387e+00 5.3293308516061932e+00 8.9433930139539761e+00 -2 4 0
5077 1 4.3563701690698435e+00 1.0745241478598491e+01 1.1382764502786364e+01 -2 2 0
115 1 2.1514904108011712e+00 9.1156253329928507e+00 1.0543295654722211e+01 -3 0 1
6035 1 8.9238560325683753e+00 1.0134704702444777e+01 1.1596605730844205e+01 0 -3 1
3130 1 6.3333966614154118e+00 9.1034714566508406e+00 1.0547077774807590e+01 -4 1 1
1483 1 3.7074935561542777e+00 8.1013361386902560e-01 1.3178706914431116e+01 3 2 0
3383 1 8.0558364820206769e+00 4.7954306774933708e-01 1.2896603482950193e+01 -1 -2 0
2969 1 4.2509096013645991e+00 7.8616756775343202e+00 1.4803447091491297e+01 -1 -1 1
376 1 2.7367804266922304e+00 4.6970884025626436e+00 1.2298327482035504e+01 0 4 0
1550 1 2.0138195654883866e+00 6.4063199713699852e+00 1.4526519050985518e+01 3 2 0
6056 1 8.3349424037429571e+00 7.3761331429147585e+00 1.4647817900492401e+01 -2 -2 0
432 1 5.5006290633091499e+00 4.6810432751100093e+00 1.2159261022840445e+01 0 2 1
6032 1 5.9620848644724296e+00 5.6831072688977606e+00 1.4742428892796147e+01 -1 1 1
6142 1 4.1226752392204835e+00 1.0774652009475407e+01 1.4236062010133484e+01 -2 1 1
5978 1 5.8890594961563485e+00 1.6214448424593850e+00 8.9231526960449941e+00 0 1 1
23 1 1.6454549568869168e+00 1.5797860676834605e+00 9.2857018103381996e+00 0 1 1
324 1 4.8989680624337714e-02 1.0818745552297402e+01 1.1362634191974937e+01 1 2 0
5192 1 8.3570284706381273e+00 1.0445595774998622e+00 1.5618640346227544e+01 0 3 0
1769 1 1.9461658512906561e+00 2.1542470842779853e+00 1.7189471998590484e+01 1 1 1
41 1 5.9102679553250939e+00 1.0766538954638410e+01 2.1065036158218454e+01 2 0 1
3257 1 6.3950587615959202e+00 2.2094018965160651e+00 1.7353708546466194e+01 2 1 0
5059 1 3.9424223553678890e+00 4.4910920426850037e-01 2.1045459784527011e+01 -2 1 0
218 1 1.7840553356822644e+00 4.9066602802327610e+00 1.6842308200538717e+01 3 1 0
3413 1 3.8611060169929545e+00 6.0710367448020026e+00 1.8471125650689387e+01 0 0 0
4849 1 6.0179899609138277e+00 5.0477974326681867e+00 1.7545298922093291e+01 0 -1 0
2927 1 8.7133602519608218e+00 5.9910623290318084e+00 1.8263141391720676e+01 -1 0 1
243 1 4.2744579117622434e+00 8.6033029853310641e+00 1.7482345406356984e+01 3 -1 0
4495 1 1.9440725928589564e+00 9.8032826996240896e+00 1.8660679445215962e+01 1 2 0
1464 1 8.6702983819932928e+00 8.6311020525664919e+00 1.7344098839694553e+01 2 2 0
1368 1 6.4760487384201868e+00 9.9237100603440620e+00 1.8320338736569315e+01 -1 2 1
4874 1 3.6587236718299607e+00 9.2625759108544639e+00 2.1466982600420909e+01 3 2 0
474 1 1.4232666535584755e+00 1.0221506538424416e+00 1.9697819954657149e+01 0 1 0
5206 1 8.1901901577886935e+00 8.8546329359317930e+00 2.1063133575948029e+01 -1 4 0
5050 1 6.1291596755481343e+00 1.8732392035914416e+00 2.0056733778925253e+01 1 1 0
6180 1 8.7592287691637551e+00 9.1048180404174861e-01 2.0678519241013902e+01 0 -2 1
5020 1 1.0829811058501213e+00 5.2406603856446949e+00 2.1520230867186008e+01 3 -2 0
86 1 3.6567572103158628e+00 6.0913164633223973e+00 2.1074149422009533e+01 1 -3 0
4545 1 6.2863540500851833e+00 4.4788103647383144e+00 2.1073576277817846e+01 2 -3 1
3442 1 8.6712658264801092e+00 5.9608601885456824e+00 2.1176659763420879e+01 0 0 0
1807 1 1.1618516958536318e+00 1.0815765113970000e+01 2.1116147670134712e+01 0 0 0
1852 1 3.2820013384224928e-01 2.5323572717325824e+00 2.1651099814694927e+01 0 0 0
4636 1 4.3230024966467999e+00 8.7642426554966346e-01 1.6081508542069869e+01 3 -1 1
3484 1 1.2900578776144187e+00 1.9185427163619779e+00 2.4095905952364031e+01 3 1 0
1865 1 3.8543554866130267e+00 8.1317341570729385e-01 2.3815373579666421e+01 -3 0 0
4549 1 6.3094860070333993e+00 2.1708471440637065e+00 2.4549780109840874e+01 0 -1 1
4815 1 8.3986616600435600e+00 9.6633532124274213e-01 2.3705283727955422e+01 1 1 0
3724 1 3.8160742367069549e+00 6.5873314717239175e+00 2.4224270617831642e+01 2 2 1
2055 1 1.3425257211224075e+00 5.0510495190800402e+00 2.4326751407695618e+01 2 0 0
1271 1 8.3355987052861664e+00 6.5130024484612239e+00 2.3939091347513656e+01 -2 0 1
2088 1 6.1176845365962604e+00 5.0006433738737730e+00 2.3893361653002600e+01 1 -1 1
396 1 1.2805840448800230e+00 1.0972533468691791e+01 2.4051624346809007e+01 0 -2 0
1559 1 3.9064147988881981e+00 9.4409299690890016e+00 2.4296006546635905e+01 3 2 1
6015 1 6.2469822230808951e+00 1.0716066976942791e+01 2.3868939814780738e+01 -1 1 1
5004 1 8.3760831527438935e+00 9.3269311131076744e+00 2.4251662307650637e+01 1 -1 1
554 2 0.0000000000000000e+00 2.8417180249513345e+00 2.6733713899001096e+01 0 0 0
556 2 0.0000000000000000e+00 0.0000000000000000e+00 2.6733713899001096e+01 0 0 0
558 2 1.2305000000000001e+00 7.1042950623783474e-01 2.6733713899001096e+01 0 0 0
565 2 1.2305000000000001e+00 2.1312885187134998e+00 2.6733713899001096e+01 0 0 0
567 2 2.4610000000000003e+00 2.8417180249513345e+00 2.6733713899001096e+01 0 0 0
569 2 2.4610000000000003e+00 0.0000000000000000e+00 2.6733713899001096e+01 0 0 0
571 2 3.6915000000000004e+00 7.1042950623783474e-01 2.6733713899001096e+01 0 0 0
586 2 3.6914999999999996e+00 2.1312885187134998e+00 2.6733713899001096e+01 0 0 0
588 2 4.9220000000000006e+00 2.8417180249513332e+00 2.6733713899001096e+01 0 0 0
590 2 4.9220000000000006e+00 0.0000000000000000e+00 2.6733713899001096e+01 0 0 0
592 2 6.1524999999999999e+00 7.1042950623783407e-01 2.6733713899001096e+01 0 0 0
615 2 6.1524999999999999e+00 2.1312885187134989e+00 2.6733713899001096e+01 0 0 0
617 2 7.3829999999999991e+00 2.8417180249513345e+00 2.6733713899001096e+01 0 0 0
619 2 7.3829999999999991e+00 0.0000000000000000e+00 2.6733713899001096e+01 0 0 0
621 2 8.6134999999999984e+00 7.1042950623783407e-01 2.6733713899001096e+01 0 0 0
652 2 8.6134999999999984e+00 2.1312885187135002e+00 2.6733713899001096e+01 0 0 0
561 2 0.0000000000000000e+00 4.2625770374269996e+00 2.6733713899001096e+01 0 0 0
563 2 1.2305000000000001e+00 4.9730065436648339e+00 2.6733713899001096e+01 0 0 0
578 2 1.2305000000000001e+00 6.3938655561404980e+00 2.6733713899001096e+01 0 0 0
582 2 2.4610000000000003e+00 4.2625770374269996e+00 2.6733713899001096e+01 0 0 0
584 2 3.6914999999999996e+00 4.9730065436648339e+00 2.6733713899001096e+01 0 0 0
607 2 3.6914999999999996e+00 6.3938655561404980e+00 2.6733713899001096e+01 0 0 0
559 2 0.0000000000000000e+00 7.1042950623783341e+00 2.6733713899001096e+01 0 0 0
580 2 2.4610000000000003e+00 7.1042950623783341e+00 2.6733713899001096e+01 0 0 0
611 2 4.9220000000000006e+00 4.2625770374269978e+00 2.6733713899001096e+01 0 0 0
613 2 6.1524999999999999e+00 4.9730065436648339e+00 2.6733713899001096e+01 0 0 0
644 2 6.1524999999999999e+00 6.3938655561404980e+00 2.6733713899001096e+01 0 0 0
648 2 7.3829999999999991e+00 4.2625770374269996e+00 2.6733713899001096e+01 0 0 0
650 2 8.6135000000000002e+00 4.9730065436648339e+00 2.6733713899001096e+01 0 0 0
689 2 8.6135000000000002e+00 6.3938655561404980e+00 2.6733713899001096e+01 0 0 0
609 2 4.9220000000000006e+00 7.1042950623783341e+00 2.6733713899001096e+01 0 0 0
646 2 7.3830000000000009e+00 7.1042950623783341e+00 2.6733713899001096e+01 0 0 0
574 2 0.0000000000000000e+00 8.5251540748539991e+00 2.6733713899001096e+01 0 0 0
576 2 1.2305000000000001e+00 9.2355835810918343e+00 2.6733713899001096e+01 0 0 0
603 2 2.4610000000000003e+00 8.5251540748539991e+00 2.6733713899001096e+01 0 0 0
605 2 3.6915000000000004e+00 9.2355835810918343e+00 2.6733713899001096e+01 0 0 0
572 2 0.0000000000000000e+00 1.1366872099805333e+01 2.6733713899001096e+01 0 0 0
599 2 1.2305000000000001e+00 1.0656442593567498e+01 2.6733713899001096e+01 0 0 0
601 2 2.4610000000000003e+00 1.1366872099805333e+01 2.6733713899001096e+01 0 0 0
636 2 3.6914999999999996e+00 1.0656442593567499e+01 2.6733713899001096e+01 0 0 0
640 2 4.9220000000000006e+00 8.5251540748539991e+00 2.6733713899001096e+01 0 0 0
728 2 8.6134999999999984e+00 1.0656442593567498e+01 2.6733713899001096e+01 0 0 0
687 2 8.6134999999999984e+00 9.2355835810918343e+00 2.6733713899001096e+01 0 0 0
638 2 4.9220000000000006e+00 1.1366872099805333e+01 2.6733713899001096e+01 0 0 0
683 2 7.3829999999999991e+00 1.1366872099805333e+01 2.6733713899001096e+01 0 0 0
681 2 6.1524999999999999e+00 1.0656442593567499e+01 2.6733713899001096e+01 0 0 0
685 2 7.3830000000000009e+00 8.5251540748539991e+00 2.6733713899001096e+01 0 0 0
642 2 6.1524999999999999e+00 9.2355835810918343e+00 2.6733713899001096e+01 0 0 0
555 2 0.0000000000000000e+00 1.4208590124756650e+00 3.0030999999999992e+01 0 0 0
557 2 0.0000000000000000e+00 0.0000000000000000e+00 3.0030999999999992e+01 0 0 0
566 2 1.2305000000000001e+00 2.1312885187134998e+00 3.0030999999999992e+01 0 0 0
568 2 2.4610000000000003e+00 1.4208590124756650e+00 3.0030999999999992e+01 0 0 0
570 2 2.4610000000000003e+00 0.0000000000000000e+00 3.0030999999999992e+01 0 0 0
587 2 3.6914999999999996e+00 2.1312885187134998e+00 3.0030999999999992e+01 0 0 0
564 2 1.2305000000000001e+00 3.5521475311891644e+00 3.0030999999999992e+01 0 0 0
585 2 3.6914999999999996e+00 3.5521475311891644e+00 3.0030999999999992e+01 0 0 0
883 2 0.0000000000000000e+00 2.8417180249513345e+00 3.3328286100995406e+01 0 0 0
884 2 0.0000000000000000e+00 0.0000000000000000e+00 3.3328286100995406e+01 0 0 0
885 2 1.2305000000000001e+00 7.1042950623783474e-01 3.3328286100995406e+01 0 0 0
889 2 1.2305000000000001e+00 2.1312885187134998e+00 3.3328286100995406e+01 0 0 0
890 2 2.4610000000000003e+00 2.8417180249513345e+00 3.3328286100995406e+01 0 0 0
891 2 2.4610000000000003e+00 0.0000000000000000e+00 3.3328286100995406e+01 0 0 0
892 2 3.6915000000000004e+00 7.1042950623783474e-01 3.3328286100995406e+01 0 0 0
900 2 3.6914999999999996e+00 2.1312885187134998e+00 3.3328286100995406e+01 0 0 0
589 2 4.9220000000000006e+00 1.4208590124756650e+00 3.0030999999999992e+01 0 0 0
591 2 4.9220000000000006e+00 0.0000000000000000e+00 3.0030999999999992e+01 0 0 0
616 2 6.1524999999999999e+00 2.1312885187134989e+00 3.0030999999999992e+01 0 0 0
618 2 7.3829999999999991e+00 1.4208590124756659e+00 3.0030999999999992e+01 0 0 0
620 2 7.3829999999999991e+00 0.0000000000000000e+00 3.0030999999999992e+01 0 0 0
653 2 8.6134999999999984e+00 2.1312885187135002e+00 3.0030999999999992e+01 0 0 0
614 2 6.1524999999999999e+00 3.5521475311891644e+00 3.0030999999999992e+01 0 0 0
651 2 8.6134999999999984e+00 3.5521475311891657e+00 3.0030999999999992e+01 0 0 0
901 2 4.9220000000000006e+00 2.8417180249513332e+00 3.3328286100995406e+01 0 0 0
902 2 4.9220000000000006e+00 0.0000000000000000e+00 3.3328286100995406e+01 0 0 0
903 2 6.1524999999999999e+00 7.1042950623783407e-01 3.3328286100995406e+01 0 0 0
915 2 6.1524999999999999e+00 2.1312885187134989e+00 3.3328286100995406e+01 0 0 0
916 2 7.3829999999999991e+00 2.8417180249513345e+00 3.3328286100995406e+01 0 0 0
917 2 7.3829999999999991e+00 0.0000000000000000e+00 3.3328286100995406e+01 0 0 0
918 2 8.6134999999999984e+00 7.1042950623783407e-01 3.3328286100995406e+01 0 0 0
934 2 8.6134999999999984e+00 2.1312885187135002e+00 3.3328286100995406e+01 0 0 0
560 2 0.0000000000000000e+00 5.6834360499026637e+00 3.0030999999999992e+01 0 0 0
562 2 0.0000000000000000e+00 4.2625770374269996e+00 3.0030999999999992e+01 0 0 0
579 2 1.2305000000000001e+00 6.3938655561404980e+00 3.0030999999999992e+01 0 0 0
581 2 2.4610000000000003e+00 5.6834360499026637e+00 3.0030999999999992e+01 0 0 0
583 2 2.4610000000000003e+00 4.2625770374269996e+00 3.0030999999999992e+01 0 0 0
608 2 3.6914999999999996e+00 6.3938655561404980e+00 3.0030999999999992e+01 0 0 0
577 2 1.2305000000000001e+00 7.8147245686161639e+00 3.0030999999999992e+01 0 0 0
606 2 3.6914999999999996e+00 7.8147245686161639e+00 3.0030999999999992e+01 0 0 0
887 2 0.0000000000000000e+00 4.2625770374269996e+00 3.3328286100995406e+01 0 0 0
888 2 1.2305000000000001e+00 4.9730065436648339e+00 3.3328286100995406e+01 0 0 0
896 2 1.2305000000000001e+00 6.3938655561404980e+00 3.3328286100995406e+01 0 0 0
898 2 2.4610000000000003e+00 4.2625770374269996e+00 3.3328286100995406e+01 0 0 0
899 2 3.6914999999999996e+00 4.9730065436648339e+00 3.3328286100995406e+01 0 0 0
911 2 3.6914999999999996e+00 6.3938655561404980e+00 3.3328286100995406e+01 0 0 0
886 2 0.0000000000000000e+00 7.1042950623783341e+00 3.3328286100995406e+01 0 0 0
897 2 2.4610000000000003e+00 7.1042950623783341e+00 3.3328286100995406e+01 0 0 0
610 2 4.9220000000000006e+00 5.6834360499026637e+00 3.0030999999999992e+01 0 0 0
612 2 4.9220000000000006e+00 4.2625770374269978e+00 3.0030999999999992e+01 0 0 0
645 2 6.1524999999999999e+00 6.3938655561404980e+00 3.0030999999999992e+01 0 0 0
647 2 7.3829999999999991e+00 5.6834360499026637e+00 3.0030999999999992e+01 0 0 0
649 2 7.3829999999999991e+00 4.2625770374269996e+00 3.0030999999999992e+01 0 0 0
690 2 8.6135000000000002e+00 6.3938655561404980e+00 3.0030999999999992e+01 0 0 0
643 2 6.1524999999999999e+00 7.8147245686161639e+00 3.0030999999999992e+01 0 0 0
688 2 8.6135000000000002e+00 7.8147245686161639e+00 3.0030999999999992e+01 0 0 0
913 2 4.9220000000000006e+00 4.2625770374269978e+00 3.3328286100995406e+01 0 0 0
914 2 6.1524999999999999e+00 4.9730065436648339e+00 3.3328286100995406e+01 0 0 0
930 2 6.1524999999999999e+00 6.3938655561404980e+00 3.3328286100995406e+01 0 0 0
932 2 7.3829999999999991e+00 4.2625770374269996e+00 3.3328286100995406e+01 0 0 0
933 2 8.6135000000000002e+00 4.9730065436648339e+00 3.3328286100995406e+01 0 0 0
953 2 8.6135000000000002e+00 6.3938655561404980e+00 3.3328286100995406e+01 0 0 0
912 2 4.9220000000000006e+00 7.1042950623783341e+00 3.3328286100995406e+01 0 0 0
931 2 7.3830000000000009e+00 7.1042950623783341e+00 3.3328286100995406e+01 0 0 0
573 2 0.0000000000000000e+00 9.9460130873296642e+00 3.0030999999999992e+01 0 0 0
575 2 0.0000000000000000e+00 8.5251540748539991e+00 3.0030999999999992e+01 0 0 0
602 2 2.4610000000000003e+00 9.9460130873296642e+00 3.0030999999999992e+01 0 0 0
604 2 2.4610000000000003e+00 8.5251540748539991e+00 3.0030999999999992e+01 0 0 0
598 2 1.2305000000000001e+00 1.2077301606043163e+01 3.0030999999999992e+01 0 0 0
600 2 1.2305000000000001e+00 1.0656442593567498e+01 3.0030999999999992e+01 0 0 0
635 2 3.6914999999999996e+00 1.2077301606043163e+01 3.0030999999999992e+01 0 0 0
637 2 3.6914999999999996e+00 1.0656442593567499e+01 3.0030999999999992e+01 0 0 0
894 2 0.0000000000000000e+00 8.5251540748539991e+00 3.3328286100995406e+01 0 0 0
895 2 1.2305000000000001e+00 9.2355835810918343e+00 3.3328286100995406e+01 0 0 0
909 2 2.4610000000000003e+00 8.5251540748539991e+00 3.3328286100995406e+01 0 0 0
910 2 3.6915000000000004e+00 9.2355835810918343e+00 3.3328286100995406e+01 0 0 0
893 2 0.0000000000000000e+00 1.1366872099805333e+01 3.3328286100995406e+01 0 0 0
907 2 1.2305000000000001e+00 1.0656442593567498e+01 3.3328286100995406e+01 0 0 0
908 2 2.4610000000000003e+00 1.1366872099805333e+01 3.3328286100995406e+01 0 0 0
926 2 3.6914999999999996e+00 1.0656442593567499e+01 3.3328286100995406e+01 0 0 0
639 2 4.9220000000000006e+00 9.9460130873296642e+00 3.0030999999999992e+01 0 0 0
641 2 4.9220000000000006e+00 8.5251540748539991e+00 3.0030999999999992e+01 0 0 0
684 2 7.3830000000000009e+00 9.9460130873296642e+00 3.0030999999999992e+01 0 0 0
686 2 7.3830000000000009e+00 8.5251540748539991e+00 3.0030999999999992e+01 0 0 0
680 2 6.1524999999999999e+00 1.2077301606043163e+01 3.0030999999999992e+01 0 0 0
682 2 6.1524999999999999e+00 1.0656442593567499e+01 3.0030999999999992e+01 0 0 0
727 2 8.6135000000000002e+00 1.2077301606043163e+01 3.0030999999999992e+01 0 0 0
729 2 8.6134999999999984e+00 1.0656442593567498e+01 3.0030999999999992e+01 0 0 0
928 2 4.9220000000000006e+00 8.5251540748539991e+00 3.3328286100995406e+01 0 0 0
929 2 6.1524999999999999e+00 9.2355835810918343e+00 3.3328286100995406e+01 0 0 0
951 2 7.3830000000000009e+00 8.5251540748539991e+00 3.3328286100995406e+01 0 0 0
952 2 8.6134999999999984e+00 9.2355835810918343e+00 3.3328286100995406e+01 0 0 0
927 2 4.9220000000000006e+00 1.1366872099805333e+01 3.3328286100995406e+01 0 0 0
949 2 6.1524999999999999e+00 1.0656442593567499e+01 3.3328286100995406e+01 0 0 0
950 2 7.3829999999999991e+00 1.1366872099805333e+01 3.3328286100995406e+01 0 0 0
973 2 8.6134999999999984e+00 1.0656442593567498e+01 3.3328286100995406e+01 0 0 0
1441 1 1.9246913178891349e+00 3.4232921702372350e+00 3.5497557732119517e+01 1 2 -1
1404 1 2.5015902234317631e+00 1.0123281433575781e+00 3.6298933189083300e+01 1 1 0
1291 1 6.7428553888510381e+00 3.3259147777675535e+00 3.5587867915690765e+01 3 -1 -1
4955 1 6.7880875148816830e+00 5.9942659910179952e-01 3.6556131604553173e+01 -1 2 -1
214 1 4.4748057063291249e+00 7.2470978064006877e+00 3.6147148707524821e+01 -2 -3 -1
3314 1 4.2904734131786997e+00 4.5791529267373026e+00 3.6546733118739269e+01 2 2 0
3239 1 8.9469022994721676e+00 7.3778581173403239e+00 3.5791282693375635e+01 0 2 -1
333 1 8.8125379523134875e+00 4.6195785009052406e+00 3.6310717086235911e+01 1 -1 -1
63 1 2.0363537880160254e+00 8.6454371480989138e+00 3.6076945961802537e+01 2 0 0
6170 1 2.0366261351070691e+00 1.1267297876928003e+01 3.6003059460946062e+01 2 5 0
274 1 6.8738868328405998e+00 1.1298144532770564e+01 3.5634692022588482e+01 -1 2 -1
4739 1 6.7720526432185633e+00 8.8729315571318388e+00 3.6562627304171770e+01 -1 -1 0
6053 1 2.1797641071444747e+00 3.6311401412498907e+00 4.0075655342676725e+01 2 -1 0
1956 1 2.4216407551725943e+00 8.4295545457474774e-01 3.9226329513304265e+01 0 1 -1
3037 1 6.5692907693059182e+00 3.3408125365713000e+00 4.0028495109501478e+01 -1 2 -1
3427 1 6.5353171416254909e+00 6.6455422748387438e-01 3.9245309108434881e+01 -1 -2 -1
3387 1 4.3003467640887729e+00 4.7047851548561717e+00 3.9134561890486665e+01 -1 2 0
545 1 4.2373318820836134e+00 7.4491108648048208e+00 3.9485919251990524e+01 -1 1 0
3312 1 6.4961015775679876e+00 1.1487072808716428e+01 4.2551178813679428e+01 2 -3 -1
50 1 8.8730701241466221e+00 4.4625254778864765e+00 3.8988082653619784e+01 -2 1 0
439 1 8.9567653548967474e+00 7.2929307263047054e+00 3.9878765349016149e+01 2 2 -1
1245 1 2.1367829621587382e+00 8.8621081909667705e+00 3.8957298322915136e+01 -2 -3 0
2912 1 2.2178104469506437e+00 1.1591741685539450e+01 3.9799934285143721e+01 -1 2 0
5033 1 6.7147932722777064e+00 9.1330749291958355e+00 3.9219083048546139e+01 3 3 -1
2005 1 6.5434462056002474e+00 1.1874585293217455e+01 3.9983993915462293e+01 2 -3 -1
3310 1 2.0024995252959119e+00 3.3268564183117872e+00 4.3043222839768220e+01 1 3 -1
2002 1 2.1181494598033312e+00 7.9223707089196871e-01 4.3775853898219651e+01 1 -2 -1
6295 1 6.4811034560375349e+00 3.3106229050113418e+00 4.2761891302773705e+01 -1 2 0
189 1 6.5297687855336166e+00 7.7713119058078239e-01 4.4064137963850996e+01 1 0 -1
6111 1 4.4368231845932584e+00 4.7090482874380948e+00 4.3850331739710143e+01 1 4 0
383 1 4.0304420870621804e+00 7.5347515783555252e+00 4.2387258483855248e+01 1 -2 -1
5158 1 6.3860985898790785e+00 8.8784021157180391e+00 4.3353443485336300e+01 0 1 -1
6133 1 8.7183616849118106e+00 7.2915375126141173e+00 4.2546180042571933e+01 1 3 0
3337 1 8.5941105141851235e+00 4.7510484374256929e+00 4.3257689703856926e+01 0 1 -1
5245 1 2.2156960814963300e+00 1.1729820243630543e+01 4.2538105581671672e+01 0 0 0
4765 1 2.0004576955484588e+00 8.9629971915494888e+00 4.3114841164628871e+01 2 -1 -1
5186 1 1.9762782784813986e+00 5.6184480299076422e-01 4.6548311119757301e+01 -1 3 0
2086 1 4.0494908265505076e+00 2.3804832233460749e+00 4.7431626781933531e+01 -2 2 0
1995 1 8.4626357711035691e+00 1.0178070560624565e+01 4.9837455097031764e+01 1 -2 -1
211 1 6.5558597713438953e+00 1.2040928818053107e+00 4.6677300684414661e+01 1 -1 -1
3663 1 8.8390067878462819e+00 2.2290851495235944e+00 4.7421296126197589e+01 1 3 0
410 1 1.8352192695296619e+00 6.4605065929861167e+00 4.6702293072871186e+01 1 2 -1
409 1 4.2886429876188243e+00 5.0674545737511707e+00 4.6535011253063288e+01 2 1 0
2910 1 6.4071505918247720e+00 1.1805153026302634e+01 5.0767121850870112e+01 1 1 0
3109 1 8.9147813012979302e+00 4.9171963956162923e+00 4.5981998395466306e+01 0 2 0
3740 1 6.4021757413460492e+00 6.5380610286985705e+00 4.6927758221878307e+01 0 1 0
1901 1 1.8691054863170264e+00 9.2232112578793668e+00 4.5905301772072121e+01 1 2 -1
239 1 3.8566660080427244e+00 1.0573819396633501e+01 4.6953368581964114e+01 5 0 -1
1994 1 6.2287589212376036e+00 9.0880683223069560e+00 4.6174869892832646e+01 1 0 0
1802 1 8.5070683316180382e+00 1.0315853991281866e+01 4.6912169871379234e+01 2 3 -1
129 1 4.1797818945499481e+00 2.4419816005619879e+00 5.0168237610838901e+01 6 0 0
1647 1 1.8654327241191810e+00 3.9090806807369822e+00 5.0737927849956321e+01 1 -2 -1
5035 1 8.5016720074398577e+00 2.3502393092186296e+00 5.0324242878826198e+01 -1 1 -1
4890 1 6.3277268358147936e+00 3.9400743308123394e+00 5.0949873960716829e+01 -2 0 -1
248 1 1.6880966007663156e+00 6.6251168452163034e+00 4.9448596996787913e+01 -1 -2 -1
3695 1 4.0737382316259074e+00 7.6471568492418154e+00 5.0435648346789904e+01 3 2 0
6097 1 6.3571690555158336e+00 6.4483005571003025e+00 4.9753983100202873e+01 2 1 0
1628 1 8.5143789524674123e+00 7.6278773373230617e+00 5.0635711543080134e+01 1 -1 -1
341 1 4.1237584219180716e+00 1.0562842931953092e+01 4.9800606302036897e+01 -3 -2 -1
3563 1 1.9091359510605042e+00 1.2141302611381789e+01 5.0497380583715355e+01 6 1 0
1467 1 5.9160341087505230e-04 1.0692017317854921e+01 4.6932394785368373e+01 -1 2 0
3359 1 2.0325447291140972e+00 3.8997411884363449e+00 5.3629074493733569e+01 1 1 -1
1902 1 2.0526164393849808e+00 1.4970044671981828e+00 5.4844012338369822e+01 4 -2 -1
3212 1 6.6512218843425375e+00 1.4190506151211748e+00 5.5054272393614539e+01 0 -4 0
166 1 4.1444239953369992e+00 5.2590949685488857e+00 5.4572414616898186e+01 -1 -1 -1
3605 1 3.9807273309461775e+00 7.6135894446283885e+00 5.3227972308206930e+01 1 2 -1
4875 1 8.8235123006081491e+00 1.0382538035430102e+01 5.8034321540889394e+01 0 0 0
3514 1 6.3016013676962599e+00 3.9608622813148080e+00 5.3658612972768211e+01 2 1 -1
3747 1 8.6321933351961970e+00 5.2648652444990081e+00 5.3944148392083946e+01 1 0 0
3357 1 8.8703220604358552e+00 8.0216745593249037e+00 5.3347665853964301e+01 -1 1 -1
1913 1 1.9152902465990655e+00 9.1128091222755607e+00 5.4361439932502790e+01 3 0 -1
2962 1 6.5990504234968572e+00 1.1577557229044956e+01 5.3286491275920724e+01 0 3 0
391 1 6.2272798876350874e+00 9.2468266576989198e+00 5.4049308257030006e+01 1 -2 -1
1808 1 2.0009875450872996e+00 1.1858478286584232e+01 5.3221645967785392e+01 0 0 -1
3245 1 1.8857535816036295e+00 1.5288451407742634e+00 5.7708469299488414e+01 2 -1 -1
3555 1 6.4248850061952005e+00 9.6808701826503150e+00 5.6946849046264703e+01 2 -2 -1
1753 1 6.3290775719026779e+00 1.1156930708690154e+00 5.7641196394130588e+01 -1 1 0
3703 1 4.7693525809159087e+00 5.3649346131669002e+00 5.7258423541909039e+01 1 1 0
1339 1 7.0016363046593346e+00 7.2731992506517988e+00 5.8103332652177443e+01 0 -3 -1
2957 1 8.6868093844036522e+00 5.2946522070767754e+00 5.6868991626544343e+01 0 0 -1
3472 1 4.1966039740930619e+00 1.0544619978604029e+01 5.7961767270017987e+01 1 -2 -1
6179 1 1.9548357018046165e+00 9.1657757325894860e+00 5.7128843097910988e+01 0 -2 0
3217 1 6.8057072795302869e+00 3.7384769676195835e+00 5.8444842871965506e+01 2 0 -1
1638 1 1.9601236934118798e+00 4.8304545095231566e+00 5.8151430939364730e+01 3 3 -1
4924 1 8.6270598529411568e+00 2.6722948572656718e-01 5.8472771462341001e+01 0 -2 -1
4610 1 1.9314618818130354e+00 1.4976312909959194e+01 3.3205679296357404e+00 3 3 1
3679 1 4.4613120543636038e+00 1.5937176004200500e+01 4.4257948599922390e+00 -1 1 1
212 1 6.5020401372577821e+00 1.4335077200752661e+01 3.4690880110117130e+00 0 -1 0
1857 1 8.8191212704586111e+00 1.5253467318437078e+01 4.2128262155646850e+00 2 1 0
5142 1 4.7375167561001215e+00 1.8518511836968365e+01 3.3454551822434455e+00 -1 -1 0
1261 1 2.1708944865849875e+00 1.9634091218131811e+01 4.1145502353203085e+00 1 0 1
3607 1 9.4789297638640289e+00 2.2975176487754627e+01 7.5956149373943065e+00 0 0 0
3134 1 7.0731195171396886e+00 1.9971914278389281e+01 4.2654239660004567e+00 -1 2 1
1389 1 8.6497274978814698e+00 1.7942248355302091e+01 3.3192579015224846e+00 -4 -2 1
3213 1 2.1804841923096974e+00 2.2414240701994874e+01 3.4448536356869464e+00 0 1 0
4439 1 4.5701695335908505e+00 2.3763543839679002e+01 4.3788234217053521e+00 1 1 1
4907 1 8.9139601738914180e+00 2.3370543697308776e+01 4.8110278781475202e+00 -1 -1 0
4928 1 6.7870975215845588e+00 2.2471026213845910e+01 3.5720850219122990e+00 3 0 1
1923 1 4.1979905455859141e+00 1.3221065501453868e+01 7.8536603509493919e+00 -1 2 0
1777 1 4.5939354504914327e+00 1.5711766445505575e+01 7.2515858170173662e+00 3 -2 0
144 1 9.3332923302462820e+00 2.0295859293653105e+01 8.3101022809859941e+00 -2 1 1
13 1 8.8533189841001896e+00 1.5712937449332772e+01 7.0213229002728061e+00 -1 0 1
3405 1 4.5788798674876627e+00 2.0819430749290657e+01 7.6625933842886385e+00 1 0 1
1279 1 2.1631228565551019e+00 1.9800926901859818e+01 6.7210720157118740e+00 2 -1 1
2971 1 2.3161184531637966e+00 1.7222392359963571e+01 7.8522779990744072e+00 0 0 1
1670 1 7.0555517161932428e+00 1.9793360751427223e+01 7.0556940964612682e+00 -2 3 0
1963 1 6.8175979694006994e+00 1.7170185310814244e+01 8.2288045485094283e+00 2 0 0
3526 1 4.7645486894466025e+00 2.3477622249815106e+01 7.1952011195879519e+00 2 -1 1
6174 1 9.1523525543112179e+00 1.2928042064489926e+01 7.8089316723234257e+00 2 1 1
6001 1 4.1349644480249442e-02 1.6212498882563221e+01 6.8012115822439148e+00 -2 -1 1
34 1 7.1890824143302261e+00 2.4260221211283536e+01 8.4706366819329411e+00 0 2 0
2162 1 1.9540814687910351e+00 1.2349279177493084e+01 3.9706269870999225e+00 0 1 1
279 1 2.1871913791275488e+00 1.5187233899413657e+01 1.1633557285109005e+01 0 -2 0
1890 1 4.2352662960087697e+00 1.3358864427904624e+01 1.0643286654036967e+01 -1 0 1
3512 1 6.7034200719804513e+00 1.4346982113236601e+01 1.1719816497356126e+01 2 -3 0
1569 1 8.6649443533914283e+00 1.2792540046363122e+01 1.0487859162438371e+01 1 0 1
5125 1 2.1256967361851893e+00 1.7747830842149536e+01 1.0507130213331507e+01 -1 -1 0
4482 1 4.7918684334426835e+00 1.8814425307499921e+01 1.1623554153133473e+01 2 2 1
327 1 6.8423342027185363e+00 1.7128562691372480e+01 1.0935191270666856e+01 0 -4 0
6059 1 9.2286675126627991e+00 1.8149852465048983e+01 1.1910717215992356e+01 -1 3 0
3049 1 2.3134202036640801e+00 2.3093165567144379e+01 1.0975861336966311e+01 0 0 1
461 1 4.2920533027136631e+00 2.1192491809860265e+01 1.0334224277970611e+01 0 1 0
1868 1 2.2081150401885710e+00 1.9629447503457381e+01 1.5706482563697852e+01 -1 -1 0
4696 1 9.0615625811725504e+00 2.0898057811929689e+01 1.1079432159522145e+01 3 1 0
3487 1 6.5777681480916677e+00 2.2609396630701283e+01 1.1062574662780287e+01 1 1 0
1318 1 9.1349319213371736e+00 1.5777975118195137e+01 1.5379647124329230e+01 0 -1 0
1789 1 2.3599368661288431e+00 1.5104548615258867e+01 1.4399255991568079e+01 1 2 0
469 1 6.8076492957763115e+00 2.4196399516663714e+01 1.3336194216800692e+01 -1 -3 0
3574 1 4.5719571608836933e+00 1.8990307427857882e+01 1.4391679776038512e+01 0 0 0
1975 1 6.6584504697320872e+00 1.4652261988619232e+01 1.4399819579263010e+01 2 -2 0
1479 1 9.0767706618969477e+00 1.8250848811981168e+01 1.4416784512781438e+01 2 0 1
374 1 4.6470926185881503e+00 1.6522882783502528e+01 1.5185157121742249e+01 0 2 0
1620 1 1.8625009028685890e+00 1.2466965822967174e+01 1.5017550138832517e+01 -1 -1 0
1609 1 2.1447050708609554e+00 2.4390566594195221e+01 1.3428548599491982e+01 0 -1 1