LAMMPS data file via write_data, version 29 Oct 2020, timestep = 150000

5031 atoms
2 atom types

0.0 49.22 xlo xhi
0.0 49.019635930410494 ylo yhi
1.0486113036363243 38.95138869636537 zlo zhi

Masses

1 18.015
2 12.01

Atoms # atomic

140 2 0.0 2.8417180249513345 3.077434240081977 0 0 0
142 2 0.0 0.0 3.077434240081977 0 0 0
144 2 1.2305000000000001 0.7104295062378347 3.077434240081977 0 0 0
151 2 1.2305000000000001 2.1312885187135 3.077434240081977 0 0 0
153 2 2.4610000000000003 2.8417180249513345 3.077434240081977 0 0 0
155 2 2.4610000000000003 0.0 3.077434240081977 0 0 0
157 2 3.6915000000000004 0.7104295062378347 3.077434240081977 0 0 0
172 2 3.6914999999999996 2.1312885187135 3.077434240081977 0 0 0
174 2 4.922000000000001 2.841718024951333 3.077434240081977 0 0 0
176 2 4.922000000000001 0.0 3.077434240081977 0 0 0
178 2 6.1525 0.7104295062378341 3.077434240081977 0 0 0
201 2 6.1525 2.131288518713499 3.077434240081977 0 0 0
203 2 7.382999999999999 2.8417180249513345 3.077434240081977 0 0 0
205 2 7.382999999999999 0.0 3.077434240081977 0 0 0
207 2 8.613499999999998 0.7104295062378341 3.077434240081977 0 0 0
238 2 8.613499999999998 2.1312885187135002 3.077434240081977 0 0 0
240 2 9.844000000000001 2.841718024951333 3.077434240081977 0 0 0
242 2 9.844000000000001 0.0 3.077434240081977 0 0 0
244 2 11.074500000000002 0.7104295062378333 3.077434240081977 0 0 0
283 2 11.074500000000002 2.1312885187135002 3.077434240081977 0 0 0
285 2 12.305 2.841718024951333 3.077434240081977 0 0 0
287 2 12.305 0.0 3.077434240081977 0 0 0
289 2 13.5355 0.7104295062378352 3.077434240081977 0 0 0
330 2 13.5355 2.1312885187134984 3.077434240081977 0 0 0
332 2 14.765999999999998 2.841718024951335 3.077434240081977 0 0 0
334 2 14.765999999999998 0.0 3.077434240081977 0 0 0
336 2 15.996500000000003 0.7104295062378352 3.077434240081977 0 0 0
377 2 15.996500000000003 2.1312885187135002 3.077434240081977 0 0 0
147 2 0.0 4.262577037427 3.077434240081977 0 0 0
149 2 1.2305000000000001 4.973006543664834 3.077434240081977 0 0 0
164 2 1.2305000000000001 6.393865556140498 3.077434240081977 0 0 0
168 2 2.4610000000000003 4.262577037427 3.077434240081977 0 0 0
170 2 3.6914999999999996 4.973006543664834 3.077434240081977 0 0 0
193 2 3.6914999999999996 6.393865556140498 3.077434240081977 0 0 0
197 2 4.922000000000001 4.262577037426998 3.077434240081977 0 0 0
199 2 6.1525 4.973006543664834 3.077434240081977 0 0 0
230 2 6.1525 6.393865556140498 3.077434240081977 0 0 0
234 2 7.382999999999999 4.262577037427 3.077434240081977 0 0 0
236 2 8.6135 4.973006543664834 3.077434240081977 0 0 0
275 2 8.6135 6.393865556140498 3.077434240081977 0 0 0
279 2 9.844000000000001 4.2625770374270004 3.077434240081977 0 0 0
281 2 11.074500000000002 4.973006543664834 3.077434240081977 0 0 0
322 2 11.074500000000002 6.393865556140498 3.077434240081977 0 0 0
326 2 12.305 4.262577037426998 3.077434240081977 0 0 0
328 2 13.5355 4.973006543664834 3.077434240081977 0 0 0
369 2 13.5355 6.393865556140498 3.077434240081977 0 0 0
373 2 14.766000000000002 4.262577037426998 3.077434240081977 0 0 0
375 2 15.996499999999997 4.973006543664834 3.077434240081977 0 0 0
411 2 15.996500000000003 6.393865556140498 3.077434240081977 0 0 0
145 2 0.0 7.104295062378334 3.077434240081977 0 0 0
160 2 0.0 8.525154074854 3.077434240081977 0 0 0
162 2 1.2305000000000001 9.235583581091834 3.077434240081977 0 0 0
166 2 2.4610000000000003 7.104295062378334 3.077434240081977 0 0 0
189 2 2.4610000000000003 8.525154074854 3.077434240081977 0 0 0
191 2 3.6915000000000004 9.235583581091834 3.077434240081977 0 0 0
195 2 4.922000000000001 7.104295062378334 3.077434240081977 0 0 0
226 2 4.922000000000001 8.525154074854 3.077434240081977 0 0 0
228 2 6.1525 9.235583581091834 3.077434240081977 0 0 0
232 2 7.383000000000001 7.104295062378334 3.077434240081977 0 0 0
271 2 7.383000000000001 8.525154074854 3.077434240081977 0 0 0
273 2 8.613499999999998 9.235583581091834 3.077434240081977 0 0 0
277 2 9.844000000000001 7.104295062378334 3.077434240081977 0 0 0
318 2 9.844000000000001 8.525154074853996 3.077434240081977 0 0 0
320 2 11.074500000000002 9.235583581091834 3.077434240081977 0 0 0
324 2 12.305 7.104295062378334 3.077434240081977 0 0 0
365 2 12.305 8.525154074854 3.077434240081977 0 0 0
367 2 13.5355 9.235583581091829 3.077434240081977 0 0 0
371 2 14.765999999999998 7.104295062378331 3.077434240081977 0 0 0
407 2 14.765999999999998 8.525154074854 3.077434240081977 0 0 0
409 2 15.996500000000003 9.235583581091836 3.077434240081977 0 0 0
158 2 0.0 11.366872099805333 3.077434240081977 0 0 0
181 2 0.0 12.787731112280996 3.077434240081977 0 0 0
183 2 1.2305000000000001 13.49816061851883 3.077434240081977 0 0 0
185 2 1.2305000000000001 10.656442593567498 3.077434240081977 0 0 0
187 2 2.4610000000000003 11.366872099805333 3.077434240081977 0 0 0
218 2 2.4610000000000003 12.787731112280996 3.077434240081977 0 0 0
220 2 3.6915000000000004 13.49816061851883 3.077434240081977 0 0 0
222 2 3.6914999999999996 10.6564425935675 3.077434240081977 0 0 0
224 2 4.922000000000001 11.366872099805333 3.077434240081977 0 0 0
263 2 4.922000000000001 12.787731112280996 3.077434240081977 0 0 0
265 2 6.152499999999999 13.49816061851883 3.077434240081977 0 0 0
267 2 6.1525 10.6564425935675 3.077434240081977 0 0 0
269 2 7.382999999999999 11.366872099805333 3.077434240081977 0 0 0
310 2 7.382999999999999 12.787731112280996 3.077434240081977 0 0 0
312 2 8.6135 13.498160618518835 3.077434240081977 0 0 0
314 2 8.613499999999998 10.656442593567498 3.077434240081977 0 0 0
316 2 9.844000000000001 11.366872099805333 3.077434240081977 0 0 0
357 2 9.844000000000001 12.787731112280996 3.077434240081977 0 0 0
359 2 11.074500000000002 13.49816061851883 3.077434240081977 0 0 0
361 2 11.074500000000002 10.656442593567498 3.077434240081977 0 0 0
363 2 12.304999999999998 11.366872099805333 3.077434240081977 0 0 0
399 2 12.305 12.787731112280996 3.077434240081977 0 0 0
401 2 13.5355 13.498160618518835 3.077434240081977 0 0 0
403 2 13.5355 10.6564425935675 3.077434240081977 0 0 0
405 2 14.765999999999998 11.366872099805333 3.077434240081977 0 0 0
433 2 14.765999999999998 12.787731112280996 3.077434240081977 0 0 0
435 2 15.996500000000003 13.498160618518835 3.077434240081977 0 0 0
437 2 15.996499999999997 10.6564425935675 3.077434240081977 0 0 0
179 2 0.0 15.629449137232333 3.077434240081977 0 0 0
210 2 0.0 17.050308149708 3.077434240081977 0 0 0
214 2 1.2305000000000001 14.919019630994494 3.077434240081977 0 0 0
216 2 2.4610000000000003 15.629449137232328 3.077434240081977 0 0 0
255 2 2.4610000000000003 17.050308149708 3.077434240081977 0 0 0
259 2 3.6915000000000004 14.919019630994494 3.077434240081977 0 0 0
261 2 4.922000000000001 15.629449137232333 3.077434240081977 0 0 0
302 2 4.922000000000001 17.050308149708 3.077434240081977 0 0 0
306 2 6.152499999999999 14.919019630994494 3.077434240081977 0 0 0
308 2 7.382999999999999 15.629449137232333 3.077434240081977 0 0 0
349 2 7.383000000000001 17.050308149708 3.077434240081977 0 0 0
353 2 8.6135 14.919019630994494 3.077434240081977 0 0 0
355 2 9.844000000000001 15.629449137232328 3.077434240081977 0 0 0
391 2 9.844000000000001 17.050308149708 3.077434240081977 0 0 0
395 2 11.074500000000002 14.919019630994494 3.077434240081977 0 0 0
425 2 12.304999999999998 17.050308149708 3.077434240081977 0 0 0
397 2 12.305 15.629449137232333 3.077434240081977 0 0 0
429 2 13.5355 14.919019630994494 3.077434240081977 0 0 0
431 2 14.766000000000002 15.629449137232333 3.077434240081977 0 0 0
451 2 14.766000000000002 17.050308149708 3.077434240081977 0 0 0
455 2 15.996500000000003 14.9190196309945 3.077434240081977 0 0 0
208 2 0.0 19.89202617465933 3.077434240081977 0 0 0
212 2 1.2305000000000001 17.76073765594583 3.077434240081977 0 0 0
251 2 1.2305000000000001 19.181596668421495 3.077434240081977 0 0 0
253 2 2.4610000000000003 19.89202617465933 3.077434240081977 0 0 0
257 2 3.6914999999999996 17.76073765594583 3.077434240081977 0 0 0
298 2 3.6914999999999996 19.181596668421495 3.077434240081977 0 0 0
300 2 4.922000000000001 19.89202617465933 3.077434240081977 0 0 0
304 2 6.1525 17.76073765594583 3.077434240081977 0 0 0
345 2 6.1525 19.181596668421495 3.077434240081977 0 0 0
347 2 7.382999999999999 19.89202617465933 3.077434240081977 0 0 0
351 2 8.613499999999998 17.76073765594583 3.077434240081977 0 0 0
387 2 8.6135 19.181596668421495 3.077434240081977 0 0 0
389 2 9.844000000000001 19.892026174659335 3.077434240081977 0 0 0
393 2 11.074500000000002 17.760737655945835 3.077434240081977 0 0 0
421 2 11.074500000000002 19.181596668421495 3.077434240081977 0 0 0
423 2 12.305000000000005 19.892026174659335 3.077434240081977 0 0 0
427 2 13.5355 17.760737655945835 3.077434240081977 0 0 0
447 2 13.5355 19.181596668421495 3.077434240081977 0 0 0
449 2 14.766000000000002 19.89202617465933 3.077434240081977 0 0 0
453 2 15.996500000000003 17.76073765594583 3.077434240081977 0 0 0
465 2 15.996500000000003 19.181596668421495 3.077434240081977 0 0 0
245 2 0.0 24.154603212086325 3.077434240081977 0 0 0
247 2 0.0 21.312885187135 3.077434240081977 0 0 0
249 2 1.2304999999999993 22.023314693372832 3.077434240081977 0 0 0
290 2 1.2304999999999993 23.4441737058485 3.077434240081977 0 0 0
292 2 2.4610000000000003 24.154603212086325 3.077434240081977 0 0 0
294 2 2.4610000000000003 21.312885187134995 3.077434240081977 0 0 0
296 2 3.6914999999999996 22.023314693372832 3.077434240081977 0 0 0
337 2 3.6915000000000004 23.4441737058485 3.077434240081977 0 0 0
339 2 4.922000000000001 24.154603212086325 3.077434240081977 0 0 0
341 2 4.922000000000001 21.312885187134995 3.077434240081977 0 0 0
343 2 6.152499999999999 22.023314693372832 3.077434240081977 0 0 0
379 2 6.1525 23.4441737058485 3.077434240081977 0 0 0
381 2 7.383000000000001 24.154603212086336 3.077434240081977 0 0 0
383 2 7.382999999999999 21.312885187135 3.077434240081977 0 0 0
385 2 8.6135 22.023314693372832 3.077434240081977 0 0 0
413 2 8.613499999999998 23.4441737058485 3.077434240081977 0 0 0
415 2 9.844000000000001 24.154603212086336 3.077434240081977 0 0 0
417 2 9.844000000000001 21.312885187135 3.077434240081977 0 0 0
419 2 11.074500000000002 22.023314693372832 3.077434240081977 0 0 0
439 2 11.074500000000002 23.4441737058485 3.077434240081977 0 0 0
441 2 12.305 24.154603212086325 3.077434240081977 0 0 0
443 2 12.305 21.312885187135 3.077434240081977 0 0 0
445 2 13.5355 22.023314693372832 3.077434240081977 0 0 0
457 2 13.5355 23.4441737058485 3.077434240081977 0 0 0
459 2 14.766000000000002 24.154603212086325 3.077434240081977 0 0 0
461 2 14.765999999999998 21.312885187135 3.077434240081977 0 0 0
463 2 15.996500000000003 22.023314693372832 3.077434240081977 0 0 0
467 2 15.996499999999997 23.44417370584849 3.077434240081977 0 0 0
141 2 0.0 1.420859012475665 6.175086674659616 0 0 0
143 2 0.0 0.0 6.175086674659616 0 0 0
152 2 1.2305000000000001 2.1312885187135 6.175086674659616 0 0 0
154 2 2.4610000000000003 1.420859012475665 6.175086674659616 0 0 0
156 2 2.4610000000000003 0.0 6.175086674659616 0 0 0
173 2 3.6914999999999996 2.1312885187135 6.175086674659616 0 0 0
175 2 4.922000000000001 1.420859012475665 6.175086674659616 0 0 0
177 2 4.922000000000001 0.0 6.175086674659616 0 0 0
202 2 6.1525 2.131288518713499 6.175086674659616 0 0 0
204 2 7.382999999999999 1.420859012475666 6.175086674659616 0 0 0
206 2 7.382999999999999 0.0 6.175086674659616 0 0 0
239 2 8.613499999999998 2.1312885187135002 6.175086674659616 0 0 0
241 2 9.844000000000001 1.420859012475666 6.175086674659616 0 0 0
243 2 9.844000000000001 0.0 6.175086674659616 0 0 0
284 2 11.074500000000002 2.1312885187135002 6.175086674659616 0 0 0
286 2 12.305 1.420859012475665 6.175086674659616 0 0 0
288 2 12.305 0.0 6.175086674659616 0 0 0
331 2 13.5355 2.1312885187134984 6.175086674659616 0 0 0
333 2 14.765999999999998 1.420859012475665 6.175086674659616 0 0 0
335 2 14.765999999999998 0.0 6.175086674659616 0 0 0
378 2 15.996500000000003 2.1312885187135002 6.175086674659616 0 0 0
146 2 0.0 5.683436049902664 6.175086674659616 0 0 0
148 2 0.0 4.262577037427 6.175086674659616 0 0 0
150 2 1.2305000000000001 3.5521475311891644 6.175086674659616 0 0 0
165 2 1.2305000000000001 6.393865556140498 6.175086674659616 0 0 0
167 2 2.4610000000000003 5.683436049902664 6.175086674659616 0 0 0
169 2 2.4610000000000003 4.262577037427 6.175086674659616 0 0 0
171 2 3.6914999999999996 3.5521475311891644 6.175086674659616 0 0 0
194 2 3.6914999999999996 6.393865556140498 6.175086674659616 0 0 0
196 2 4.922000000000001 5.683436049902664 6.175086674659616 0 0 0
198 2 4.922000000000001 4.262577037426998 6.175086674659616 0 0 0
200 2 6.1525 3.5521475311891644 6.175086674659616 0 0 0
231 2 6.1525 6.393865556140498 6.175086674659616 0 0 0
233 2 7.382999999999999 5.683436049902664 6.175086674659616 0 0 0
235 2 7.382999999999999 4.262577037427 6.175086674659616 0 0 0
237 2 8.613499999999998 3.5521475311891657 6.175086674659616 0 0 0
276 2 8.6135 6.393865556140498 6.175086674659616 0 0 0
278 2 9.844000000000001 5.683436049902664 6.175086674659616 0 0 0
280 2 9.844000000000001 4.2625770374270004 6.175086674659616 0 0 0
282 2 11.074500000000002 3.5521475311891644 6.175086674659616 0 0 0
323 2 11.074500000000002 6.393865556140498 6.175086674659616 0 0 0
325 2 12.305 5.683436049902664 6.175086674659616 0 0 0
327 2 12.305 4.262577037426998 6.175086674659616 0 0 0
329 2 13.5355 3.5521475311891644 6.175086674659616 0 0 0
370 2 13.5355 6.393865556140498 6.175086674659616 0 0 0
372 2 14.765999999999998 5.683436049902664 6.175086674659616 0 0 0
374 2 14.766000000000002 4.262577037426998 6.175086674659616 0 0 0
376 2 15.996499999999997 3.5521475311891644 6.175086674659616 0 0 0
412 2 15.996500000000003 6.393865556140498 6.175086674659616 0 0 0
159 2 0.0 9.946013087329664 6.175086674659616 0 0 0
161 2 0.0 8.525154074854 6.175086674659616 0 0 0
163 2 1.2305000000000001 7.814724568616164 6.175086674659616 0 0 0
188 2 2.4610000000000003 9.946013087329664 6.175086674659616 0 0 0
190 2 2.4610000000000003 8.525154074854 6.175086674659616 0 0 0
192 2 3.6914999999999996 7.814724568616164 6.175086674659616 0 0 0
225 2 4.922000000000001 9.946013087329664 6.175086674659616 0 0 0
227 2 4.922000000000001 8.525154074854 6.175086674659616 0 0 0
229 2 6.1525 7.814724568616164 6.175086674659616 0 0 0
270 2 7.383000000000001 9.946013087329664 6.175086674659616 0 0 0
272 2 7.383000000000001 8.525154074854 6.175086674659616 0 0 0
274 2 8.6135 7.814724568616164 6.175086674659616 0 0 0
317 2 9.844000000000001 9.946013087329664 6.175086674659616 0 0 0
319 2 9.844000000000001 8.525154074853996 6.175086674659616 0 0 0
321 2 11.074500000000002 7.814724568616164 6.175086674659616 0 0 0
364 2 12.305 9.946013087329664 6.175086674659616 0 0 0
366 2 12.305 8.525154074854 6.175086674659616 0 0 0
368 2 13.5355 7.814724568616164 6.175086674659616 0 0 0
406 2 14.765999999999998 9.946013087329659 6.175086674659616 0 0 0
408 2 14.765999999999998 8.525154074854 6.175086674659616 0 0 0
410 2 15.996499999999997 7.814724568616161 6.175086674659616 0 0 0
182 2 0.0 12.787731112280996 6.175086674659616 0 0 0
184 2 1.2305000000000001 12.077301606043163 6.175086674659616 0 0 0
186 2 1.2305000000000001 10.656442593567498 6.175086674659616 0 0 0
219 2 2.4610000000000003 12.787731112280996 6.175086674659616 0 0 0
221 2 3.6914999999999996 12.077301606043163 6.175086674659616 0 0 0
223 2 3.6914999999999996 10.6564425935675 6.175086674659616 0 0 0
264 2 4.922000000000001 12.787731112280996 6.175086674659616 0 0 0
266 2 6.1525 12.077301606043163 6.175086674659616 0 0 0
268 2 6.1525 10.6564425935675 6.175086674659616 0 0 0
311 2 7.382999999999999 12.787731112280996 6.175086674659616 0 0 0
313 2 8.6135 12.077301606043163 6.175086674659616 0 0 0
315 2 8.613499999999998 10.656442593567498 6.175086674659616 0 0 0
358 2 9.844000000000001 12.787731112280996 6.175086674659616 0 0 0
360 2 11.074500000000002 12.077301606043163 6.175086674659616 0 0 0
362 2 11.074500000000002 10.656442593567498 6.175086674659616 0 0 0
400 2 12.305 12.787731112280996 6.175086674659616 0 0 0
402 2 13.5355 12.07730160604316 6.175086674659616 0 0 0
404 2 13.5355 10.6564425935675 6.175086674659616 0 0 0
434 2 14.765999999999998 12.787731112280996 6.175086674659616 0 0 0
436 2 15.996499999999997 12.07730160604316 6.175086674659616 0 0 0
438 2 15.996499999999997 10.6564425935675 6.175086674659616 0 0 0
180 2 0.0 14.208590124756663 6.175086674659616 0 0 0
211 2 0.0 17.050308149708 6.175086674659616 0 0 0
213 2 1.2305000000000001 16.339878643470165 6.175086674659616 0 0 0
215 2 1.2305000000000001 14.919019630994494 6.175086674659616 0 0 0
217 2 2.4610000000000003 14.208590124756663 6.175086674659616 0 0 0
256 2 2.4610000000000003 17.050308149708 6.175086674659616 0 0 0
258 2 3.6915000000000004 16.339878643470165 6.175086674659616 0 0 0
260 2 3.6915000000000004 14.919019630994494 6.175086674659616 0 0 0
262 2 4.922000000000001 14.208590124756663 6.175086674659616 0 0 0
303 2 4.922000000000001 17.050308149708 6.175086674659616 0 0 0
305 2 6.1525 16.339878643470165 6.175086674659616 0 0 0
307 2 6.152499999999999 14.919019630994494 6.175086674659616 0 0 0
309 2 7.383000000000001 14.208590124756663 6.175086674659616 0 0 0
350 2 7.383000000000001 17.050308149708 6.175086674659616 0 0 0
352 2 8.613499999999998 16.339878643470165 6.175086674659616 0 0 0
354 2 8.6135 14.919019630994494 6.175086674659616 0 0 0
356 2 9.844000000000001 14.208590124756663 6.175086674659616 0 0 0
392 2 9.844000000000001 17.050308149708 6.175086674659616 0 0 0
394 2 11.074500000000002 16.33987864347016 6.175086674659616 0 0 0
396 2 11.074500000000002 14.919019630994494 6.175086674659616 0 0 0
398 2 12.304999999999998 14.208590124756658 6.175086674659616 0 0 0
426 2 12.304999999999998 17.050308149708 6.175086674659616 0 0 0
428 2 13.535499999999997 16.33987864347016 6.175086674659616 0 0 0
430 2 13.5355 14.919019630994494 6.175086674659616 0 0 0
432 2 14.765999999999998 14.208590124756658 6.175086674659616 0 0 0
452 2 14.766000000000002 17.050308149708 6.175086674659616 0 0 0
454 2 15.996499999999997 16.33987864347016 6.175086674659616 0 0 0
456 2 15.996500000000003 14.9190196309945 6.175086674659616 0 0 0
209 2 0.0 18.471167162183658 6.175086674659616 0 0 0
250 2 1.2305000000000001 20.60245568089716 6.175086674659616 0 0 0
252 2 1.2305000000000001 19.181596668421495 6.175086674659616 0 0 0
254 2 2.4610000000000003 18.471167162183658 6.175086674659616 0 0 0
297 2 3.6915000000000004 20.60245568089716 6.175086674659616 0 0 0
299 2 3.6914999999999996 19.181596668421495 6.175086674659616 0 0 0
301 2 4.922000000000001 18.471167162183658 6.175086674659616 0 0 0
344 2 6.1525 20.60245568089716 6.175086674659616 0 0 0
346 2 6.1525 19.181596668421495 6.175086674659616 0 0 0
348 2 7.382999999999999 18.471167162183658 6.175086674659616 0 0 0
386 2 8.613499999999998 20.60245568089716 6.175086674659616 0 0 0
388 2 8.6135 19.181596668421495 6.175086674659616 0 0 0
390 2 9.844000000000001 18.471167162183658 6.175086674659616 0 0 0
420 2 11.074499999999997 20.60245568089716 6.175086674659616 0 0 0
422 2 11.074500000000002 19.181596668421495 6.175086674659616 0 0 0
424 2 12.304999999999998 18.471167162183658 6.175086674659616 0 0 0
446 2 13.5355 20.60245568089716 6.175086674659616 0 0 0
448 2 13.5355 19.181596668421495 6.175086674659616 0 0 0
450 2 14.765999999999998 18.471167162183658 6.175086674659616 0 0 0
464 2 15.996499999999997 20.60245568089716 6.175086674659616 0 0 0
466 2 15.996500000000003 19.181596668421495 6.175086674659616 0 0 0
246 2 0.0 22.733744199610655 6.175086674659616 0 0 0
248 2 0.0 21.312885187135 6.175086674659616 0 0 0
291 2 1.2304999999999993 23.4441737058485 6.175086674659616 0 0 0
293 2 2.4610000000000003 22.733744199610655 6.175086674659616 0 0 0
295 2 2.4610000000000003 21.312885187134995 6.175086674659616 0 0 0
338 2 3.6915000000000004 23.4441737058485 6.175086674659616 0 0 0
340 2 4.922000000000001 22.733744199610655 6.175086674659616 0 0 0
342 2 4.922000000000001 21.312885187134995 6.175086674659616 0 0 0
380 2 6.1525 23.4441737058485 6.175086674659616 0 0 0
382 2 7.382999999999999 22.733744199610655 6.175086674659616 0 0 0
384 2 7.382999999999999 21.312885187135 6.175086674659616 0 0 0
414 2 8.613499999999998 23.4441737058485 6.175086674659616 0 0 0
416 2 9.844000000000001 22.733744199610655 6.175086674659616 0 0 0
418 2 9.844000000000001 21.312885187135 6.175086674659616 0 0 0
440 2 11.074500000000002 23.4441737058485 6.175086674659616 0 0 0
442 2 12.304999999999998 22.733744199610655 6.175086674659616 0 0 0
444 2 12.305 21.312885187135 6.175086674659616 0 0 0
458 2 13.5355 23.4441737058485 6.175086674659616 0 0 0
460 2 14.765999999999998 22.733744199610655 6.175086674659616 0 0 0
462 2 14.765999999999998 21.312885187135 6.175086674659616 0 0 0
468 2 15.996499999999997 23.44417370584849 6.175086674659616 0 0 0
469 2 0.0 2.8417180249513345 9.272739109237163 0 0 0
470 2 0.0 0.0 9.272739109237163 0 0 0
471 2 1.2305000000000001 0.7104295062378347 9.272739109237163 0 0 0
475 2 1.2305000000000001 2.1312885187135 9.272739109237163 0 0 0
476 2 2.4610000000000003 2.8417180249513345 9.272739109237163 0 0 0
477 2 2.4610000000000003 0.0 9.272739109237163 0 0 0
478 2 3.6915000000000004 0.7104295062378347 9.272739109237163 0 0 0
486 2 3.6914999999999996 2.1312885187135 9.272739109237163 0 0 0
2325 1 2.7111643726612784 1.275896773924113 12.190048212260283 1 0 0
4187 1 1.088282089931059 3.390775541899693 11.5163510198412 0 0 0
487 2 4.922000000000001 2.841718024951333 9.272739109237163 0 0 0
488 2 4.922000000000001 0.0 9.272739109237163 0 0 0
489 2 6.1525 0.7104295062378341 9.272739109237163 0 0 0
501 2 6.1525 2.131288518713499 9.272739109237163 0 0 0
502 2 7.382999999999999 2.8417180249513345 9.272739109237163 0 0 0
503 2 7.382999999999999 0.0 9.272739109237163 0 0 0
4032 1 5.5223991427701495 1.2377170394411152 12.119596377776162 0 0 0
504 2 8.613499999999998 0.7104295062378341 9.272739109237163 0 0 0
520 2 8.613499999999998 2.1312885187135002 9.272739109237163 0 0 0
521 2 9.844000000000001 2.841718024951333 9.272739109237163 0 0 0
522 2 9.844000000000001 0.0 9.272739109237163 0 0 0
523 2 11.074500000000002 0.7104295062378333 9.272739109237163 0 0 0
543 2 11.074500000000002 2.1312885187135002 9.272739109237163 0 0 0
544 2 12.305 2.841718024951333 9.272739109237163 0 0 0
545 2 12.305 0.0 9.272739109237163 0 0 0
546 2 13.5355 0.7104295062378352 9.272739109237163 0 0 0
567 2 13.5355 2.1312885187134984 9.272739109237163 0 0 0
568 2 14.765999999999998 2.841718024951335 9.272739109237163 0 0 0
569 2 14.765999999999998 0.0 9.272739109237163 0 0 0
570 2 15.996500000000003 0.7104295062378352 9.272739109237163 0 0 0
591 2 15.996500000000003 2.1312885187135002 9.272739109237163 0 0 0
473 2 0.0 4.262577037427 9.272739109237163 0 0 0
474 2 1.2305000000000001 4.973006543664834 9.272739109237163 0 0 0
482 2 1.2305000000000001 6.393865556140498 9.272739109237163 0 0 0
484 2 2.4610000000000003 4.262577037427 9.272739109237163 0 0 0
485 2 3.6914999999999996 4.973006543664834 9.272739109237163 0 0 0
497 2 3.6914999999999996 6.393865556140498 9.272739109237163 0 0 0
705 1 1.3659552818777685 6.320309994519947 11.666623137546207 0 1 0
499 2 4.922000000000001 4.262577037426998 9.272739109237163 0 0 0
500 2 6.1525 4.973006543664834 9.272739109237163 0 0 0
516 2 6.1525 6.393865556140498 9.272739109237163 0 0 0
518 2 7.382999999999999 4.262577037427 9.272739109237163 0 0 0
2548 1 6.431455160885321 4.180063600008935 12.123922259748294 0 1 0
519 2 8.6135 4.973006543664834 9.272739109237163 0 0 0
539 2 8.6135 6.393865556140498 9.272739109237163 0 0 0
541 2 9.844000000000001 4.2625770374270004 9.272739109237163 0 0 0
542 2 11.074500000000002 4.973006543664834 9.272739109237163 0 0 0
563 2 11.074500000000002 6.393865556140498 9.272739109237163 0 0 0
4133 1 9.159154033437996 3.9114501568563336 12.074547937568289 0 1 0
4254 1 10.679321708399582 6.577846939569989 12.143359589621321 1 1 1
565 2 12.305 4.262577037426998 9.272739109237163 0 0 0
566 2 13.5355 4.973006543664834 9.272739109237163 0 0 0
587 2 13.5355 6.393865556140498 9.272739109237163 0 0 0
589 2 14.766000000000002 4.262577037426998 9.272739109237163 0 0 0
590 2 15.996499999999997 4.973006543664834 9.272739109237163 0 0 0
608 2 15.996500000000003 6.393865556140498 9.272739109237163 0 0 0
1548 1 15.11131811960461 4.723320408986405 11.994951885114343 0 1 0
472 2 0.0 7.104295062378334 9.272739109237163 0 0 0
480 2 0.0 8.525154074854 9.272739109237163 0 0 0
481 2 1.2305000000000001 9.235583581091834 9.272739109237163 0 0 0
483 2 2.4610000000000003 7.104295062378334 9.272739109237163 0 0 0
495 2 2.4610000000000003 8.525154074854 9.272739109237163 0 0 0
496 2 3.6915000000000004 9.235583581091834 9.272739109237163 0 0 0
1817 1 2.5498915014347188 9.207639001073996 11.736009877047628 0 1 0
498 2 4.922000000000001 7.104295062378334 9.272739109237163 0 0 0
514 2 4.922000000000001 8.525154074854 9.272739109237163 0 0 0
515 2 6.1525 9.235583581091834 9.272739109237163 0 0 0
517 2 7.383000000000001 7.104295062378334 9.272739109237163 0 0 0
537 2 7.383000000000001 8.525154074854 9.272739109237163 0 0 0
878 1 5.421330824249087 7.78090797489453 12.23891316022992 1 0 0
538 2 8.613499999999998 9.235583581091834 9.272739109237163 0 0 0
540 2 9.844000000000001 7.104295062378334 9.272739109237163 0 0 0
561 2 9.844000000000001 8.525154074853996 9.272739109237163 0 0 0
562 2 11.074500000000002 9.235583581091834 9.272739109237163 0 0 0
4876 1 9.970729066185463 9.426433312970588 12.209337527385115 0 0 0
4186 1 13.387222782569987 7.303253350329457 12.001271864623373 1 0 -1
564 2 12.305 7.104295062378334 9.272739109237163 0 0 0
585 2 12.305 8.525154074854 9.272739109237163 0 0 0
586 2 13.5355 9.235583581091829 9.272739109237163 0 0 0
588 2 14.765999999999998 7.104295062378331 9.272739109237163 0 0 0
606 2 14.765999999999998 8.525154074854 9.272739109237163 0 0 0
607 2 15.996500000000003 9.235583581091836 9.272739109237163 0 0 0
4799 1 14.296431037554141 9.64619743788024 12.413996880677919 1 0 1
479 2 0.0 11.366872099805333 9.272739109237163 0 0 0
491 2 0.0 12.787731112280996 9.272739109237163 0 0 0
492 2 1.2305000000000001 13.49816061851883 9.272739109237163 0 0 0
493 2 1.2305000000000001 10.656442593567498 9.272739109237163 0 0 0
494 2 2.4610000000000003 11.366872099805333 9.272739109237163 0 0 0
510 2 2.4610000000000003 12.787731112280996 9.272739109237163 0 0 0
511 2 3.6915000000000004 13.49816061851883 9.272739109237163 0 0 0
512 2 3.6914999999999996 10.6564425935675 9.272739109237163 0 0 0
4270 1 0.9071484760889148 13.858103464194944 11.914836724761964 0 0 0
2559 1 0.6900842576935196 11.156376221835302 11.336834513651391 0 1 -1
513 2 4.922000000000001 11.366872099805333 9.272739109237163 0 0 0
533 2 4.922000000000001 12.787731112280996 9.272739109237163 0 0 0
534 2 6.152499999999999 13.49816061851883 9.272739109237163 0 0 0
535 2 6.1525 10.6564425935675 9.272739109237163 0 0 0
536 2 7.382999999999999 11.366872099805333 9.272739109237163 0 0 0
557 2 7.382999999999999 12.787731112280996 9.272739109237163 0 0 0
4980 1 7.567711402643938 11.102316777930259 12.117014364633524 1 1 -1
3500 1 4.7437260180381395 11.115370129090875 12.20732755605088 1 0 -1
558 2 8.6135 13.498160618518835 9.272739109237163 0 0 0
559 2 8.613499999999998 10.656442593567498 9.272739109237163 0 0 0
560 2 9.844000000000001 11.366872099805333 9.272739109237163 0 0 0
581 2 9.844000000000001 12.787731112280996 9.272739109237163 0 0 0
582 2 11.074500000000002 13.49816061851883 9.272739109237163 0 0 0
583 2 11.074500000000002 10.656442593567498 9.272739109237163 0 0 0
584 2 12.304999999999998 11.366872099805333 9.272739109237163 0 0 0
2447 1 12.077293595202178 11.345927576987872 11.692542441723653 0 0 -1
10 1 16.03017865671522 13.875595339512268 11.897216134328103 0 0 0
121 2 15.996499999999997 10.6564425935675 9.272739109237163 0 0 0
127 2 15.996500000000003 13.498160618518835 9.272739109237163 0 0 0
128 2 14.765999999999998 12.787731112280996 9.272739109237163 0 0 0
602 2 12.305 12.787731112280996 9.272739109237163 0 0 0
603 2 13.5355 13.498160618518835 9.272739109237163 0 0 0
604 2 13.5355 10.6564425935675 9.272739109237163 0 0 0
605 2 14.765999999999998 11.366872099805333 9.272739109237163 0 0 0
490 2 0.0 15.629449137232333 9.272739109237163 0 0 0
506 2 0.0 17.050308149708 9.272739109237163 0 0 0
508 2 1.2305000000000001 14.919019630994494 9.272739109237163 0 0 0
509 2 2.4610000000000003 15.629449137232328 9.272739109237163 0 0 0
529 2 2.4610000000000003 17.050308149708 9.272739109237163 0 0 0
531 2 3.6915000000000004 14.919019630994494 9.272739109237163 0 0 0
1815 1 4.030331228280363 15.924532810661361 11.761661908071662 0 -1 0
532 2 4.922000000000001 15.629449137232333 9.272739109237163 0 0 0
553 2 4.922000000000001 17.050308149708 9.272739109237163 0 0 0
555 2 6.152499999999999 14.919019630994494 9.272739109237163 0 0 0
556 2 7.382999999999999 15.629449137232333 9.272739109237163 0 0 0
577 2 7.383000000000001 17.050308149708 9.272739109237163 0 0 0
4223 1 7.06344220543073 16.552228990727546 12.241870826772798 1 -1 1
3378 1 9.82984126484555 15.872760947956102 11.715217292593485 -1 1 -1
579 2 8.6135 14.919019630994494 9.272739109237163 0 0 0
580 2 9.844000000000001 15.629449137232328 9.272739109237163 0 0 0
598 2 9.844000000000001 17.050308149708 9.272739109237163 0 0 0
600 2 11.074500000000002 14.919019630994494 9.272739109237163 0 0 0
615 2 12.304999999999998 17.050308149708 9.272739109237163 0 0 0
14 2 15.996500000000003 14.9190196309945 9.272739109237163 0 0 0
48 2 14.766000000000002 17.050308149708 9.272739109237163 0 0 0
137 2 14.766000000000002 15.629449137232333 9.272739109237163 0 0 0
138 2 13.5355 14.919019630994494 9.272739109237163 0 0 0
601 2 12.305 15.629449137232333 9.272739109237163 0 0 0
1852 1 13.442687492929704 14.046346994168742 12.146761726962954 2 0 1
4796 1 12.418179650692386 16.906703667187223 12.024136404167601 1 0 1
5005 1 2.4555857866551367 18.292014100152272 12.318737836633387 1 0 0