LAMMPS data file via write_data, version 29 Oct 2020, timestep = 6000000

6750 atoms
2 atom types

0.20062582116735683 49.019374178828286 xlo xhi
0.19980911644639576 48.81982681397048 ylo yhi
-0.26917902792188286 60.33117902792033 zlo zhi

Masses

1 18.015
2 12.01

Atoms # atomic

6695 1 2.1024046481615586 4.283527715651637 3.1026386096905294 1 2 0
1818 1 3.998564731765387 2.627174886283402 1.5457968656581018 -1 3 0
6656 1 6.459704466065748 3.430542805305208 2.453777413407727 0 -1 1
1687 1 8.804373917183154 1.9920090123469165 1.8518945510244307 -5 -1 1
555 1 11.162929351904666 2.5127651117270027 2.526398044036461 1 -2 1
1309 1 13.041653026811453 1.1632446829050984 1.3626565752547901 -1 2 1
1417 1 15.374311575297014 1.9013108197654334 2.4670491329174644 0 -1 1
1453 1 19.822472399577965 1.2547051938713338 2.265978682091233 -1 1 1
4779 1 20.46143122590974 3.6152954184959496 1.1149648033762443 1 0 1
1581 1 0.31833010195896244 19.75376059871921 5.23954878848766 0 2 1
6405 1 12.325995959321265 24.395014388817362 13.25195263599152 0 3 1
5378 1 5.130682967805526 7.038457407575794 19.672577606347165 2 2 0
5388 1 2.7377464123096327 6.5144889641293995 1.6337797163311176 -1 0 0
3121 1 0.6814396539712975 7.969819647437043 2.499823566630965 -3 4 0
5209 1 5.043797624493375 7.465455417844583 2.5982839102444077 0 0 0
1306 1 7.0738888522182295 5.9467950727128365 1.7931417996418415 -2 1 1
2162 1 9.399428038594126 6.496791039332153 2.719478321695475 0 0 0
1345 1 11.696186059506099 4.88902960876415 1.0635416655553191 -2 0 1
1486 1 15.962200639029001 4.3197257245150755 1.542125619461002 -4 1 1
4948 1 13.859070201533408 6.06866426435408 2.4065756153416573 0 1 1
3358 1 18.680657559841503 4.8930069481767395 2.3283846289186343 -1 0 1
1886 1 18.776175039207157 7.464012898961899 1.2005137751600874 -4 -1 0
3445 1 22.69686578928575 4.4266476138137225 2.2186704468480936 0 0 1
213 1 23.312614667899222 7.038870522729215 1.3114342688302834 0 0 0
3984 1 3.5177250646494524 11.519688844192887 2.6536246606808334 2 0 0
4878 1 1.2836248105656582 10.549184502622774 1.6514152000522626 -1 3 1
3495 1 5.494763248560993 10.08400607393366 1.5692982025271305 -2 -1 0
1334 1 7.7358197035510585 10.666843930241168 2.450904476987202 -1 1 1
3951 1 9.77482528022641 8.978832183706695 1.8211915659807358 -1 0 1
4744 1 12.179910754380455 9.956986464862839 2.4821013040321867 -2 3 1
3981 1 13.733165342670256 8.479289127016903 0.9940989150563861 -1 0 1
5665 1 16.754856492794264 9.075733764126905 1.9524401915410219 3 1 1
4859 1 16.80580683464781 11.42519983588966 1.1703515120964922 2 2 1
5459 1 20.999193266592034 8.63773833838029 2.2944127033513193 -3 -1 0
2985 1 21.130486796326466 11.081618384618233 1.298294191294259 -6 0 1
121 1 23.717680149465117 12.126604128195579 2.4592699591399456 0 2 1
3283 1 1.9912418157954168 15.271181797320816 2.5313104840340626 2 2 0
5055 1 3.9402713121148167 13.95203275561106 1.7438296493942036 1 -4 0
375 1 6.413817207891294 14.87598663767565 2.1427550798325914 1 0 0
2993 1 8.377332540657402 12.879416229747 1.7360633805270504 0 3 1
3507 1 10.953168072481997 13.842654831377775 2.3696040580297675 1 0 0
6683 1 11.031270997794124 16.399660887025163 1.3785166109146438 -1 3 0
3764 1 12.572500883362729 12.228217748892451 1.3454716945521663 3 -2 0
356 1 14.863670003350132 13.45199162554515 2.0005600068211713 0 -1 0
3791 1 15.180251751914458 16.246000127837007 1.3287203515353971 3 2 0
181 1 19.011288374073935 12.535678008831683 2.3020144707467445 -1 1 1
5536 1 19.29509490461226 15.190191956886967 1.5249576534276672 2 -2 1
1908 1 23.586828128974798 14.41928694509531 1.334438149058275 -2 0 1
3653 1 21.652977910136606 15.91052551105766 2.3182383481565645 3 -6 0
1800 1 2.2141178392108567 17.911723901903105 1.6451369455261715 2 3 0
3442 1 4.7770681242305795 18.690158101276847 1.9487844610882625 2 1 0
5238 1 6.466849145989727 17.130523481119127 1.0544921481622551 5 0 0
3836 1 8.879711339998545 17.926833338992065 2.3306737425368773 1 1 0
1663 1 13.472698477086146 17.6737824305857 2.3090831427960983 2 1 1
4835 1 13.478097822463583 20.12291013984139 1.1881436196584192 3 -2 1
281 1 17.378953661670256 17.02991384538132 2.465010843612949 1 2 0
5014 1 17.73156581710644 19.20532996719794 1.3540612812217891 2 2 1
5006 1 20.32035159108987 19.80793101242425 2.353950016750804 2 1 1
5441 1 22.150669892321694 18.29972056730173 1.1912762769565497 1 2 0
2018 1 3.045182705733591 23.000192755783004 2.084381474060787 0 -2 0
6421 1 12.368894541430294 24.011143452578292 8.427984569335123 -3 -1 1
1576 1 4.981924020229668 21.290264179114182 1.2951241767473556 1 1 1
6624 1 7.320325524452819 22.12038917526054 1.79548346766085 0 2 1
1318 1 9.187021929238375 20.2041298967866 1.0348588091390087 -1 0 1
6741 1 11.310355960895954 21.5204872625169 1.9011741733632133 4 -2 0
2311 1 11.69874292348151 24.008090111266466 1.0893218487214995 2 -1 1
1815 1 15.885280638376802 20.972061028573368 2.3168660562853582 0 2 0
4702 1 16.17739643328916 23.610571973404138 1.3122224773877114 -1 0 1
586 1 20.35507641367483 22.11215579753694 1.3222598798713143 0 -2 1
1700 1 18.559941014040863 24.12185730929265 2.586900794503031 4 0 1
5558 1 22.668701137409197 22.93169087550618 2.0433122555629804 -3 -1 1
6671 1 3.7538729250953837 2.067879306777354 6.028967524160543 1 1 1
5047 1 1.9298398189931485 3.8861517766273046 5.400381448805793 0 0 1
1861 1 6.2536527086701 3.083698463921771 5.1973757995912475 0 -1 0
3236 1 8.599840193503955 1.4360484171725256 6.433609867267448 -4 0 0
5108 1 10.721481027990583 2.450392696022803 5.392709516377568 3 -1 1
3331 1 12.7837195112529 0.7095603103790542 6.051461291550315 1 -4 1
5065 1 14.920834713295566 2.1212467069561534 5.27204674014376 -1 -1 1
1955 1 19.87060347298691 1.493873443386374 5.032845478481661 1 0 0
528 1 20.258534354328066 3.7059995827410046 6.200760269806567 -3 3 1
6551 1 0.6727775858586845 22.653525469513777 8.868381733081536 1 0 1
381 1 6.409661415248305 15.139528760057967 19.7221248663461 -1 1 0
2250 1 22.18680834970521 4.409556910790836 19.783755716169136 2 -2 1
3876 1 2.7070609877777936 6.456245611244077 6.167474309152687 -3 0 0
34 1 0.7061836759171335 8.18532647386556 5.1293634400006445 0 2 0
544 1 5.159477856022402 7.420509776067973 5.27558627461666 1 -3 1
1482 1 6.656841367895835 5.340821588145203 6.364191180902576 -2 -1 1
368 1 9.13051077834025 6.468160128853518 5.596614269277199 0 0 0
1374 1 11.309224908371018 4.842939806197112 6.103872419844071 0 0 1
2098 1 15.636603628807801 4.658089833779076 6.329631200067501 1 -1 0
2089 1 13.656426009071419 5.6405711182967595 4.947589996239901 0 2 0
6467 1 14.11959420639538 8.10986695397412 6.062676441061259 -3 1 0
5107 1 18.02519313758016 4.982939195313172 5.0712582297937825 1 1 1
6594 1 18.28367389458802 7.782956561564046 5.580636431579533 0 2 1
1674 1 22.501293104384413 4.752662870516642 5.035345952224525 3 1 1
6609 1 22.72914900677176 7.373173307343156 6.008001322400552 2 -1 0
478 1 3.482393369691864 11.486889980087 5.4433631919131695 0 1 0
1954 1 1.1036971194212928 10.542628261912656 6.204099519238222 1 6 0
1923 1 5.339513219607433 9.974986120077068 6.534864452763168 -1 0 0
5311 1 7.893847536184904 10.6501937421005 5.17387728381971 1 2 0
2202 1 9.846636379250555 8.912296235442632 6.17162768903233 0 2 0
2225 1 12.110980275630567 9.751350672193503 5.136502540373956 4 2 0
525 1 12.528517048537894 12.262671640883436 6.032305979281794 5 -2 1
5153 1 16.200943442952813 9.117160798492126 4.433784666130391 0 3 0
6640 1 16.535026137255077 11.449445573864804 5.94136534434313 -1 2 1
1431 1 20.54952394278255 8.791189932202009 4.904982687415687 0 -1 1
3957 1 21.356528640455746 11.277696756039681 6.003809065451405 -1 1 1
448 1 23.44819236482278 11.922036403046668 4.978484626197717 -2 3 0
1350 1 2.0565053790538768 15.491175318985444 5.023219135364776 -2 0 1
3577 1 4.183305772219387 13.97214815521995 6.179203404295214 2 2 0
338 1 6.444940265755636 14.486227386077553 4.800541771220225 -2 1 0
3328 1 8.303289180152717 13.138155647319861 5.92230584600809 2 -2 0
4796 1 10.858505211852675 13.88954216115827 5.097756135791551 -2 4 0
1454 1 10.691701455350307 16.41305467642586 6.129770190970521 0 1 1
1310 1 14.870153923967122 13.218558878091786 4.851156976812463 -1 2 1
5439 1 15.02693882681663 15.682741152398288 5.897953134971501 -5 1 0
6579 1 18.763124409650697 12.688134468030341 5.104789865725271 3 -1 1
6444 1 19.469509918866102 14.98880673855552 5.987098043078683 2 1 1
173 1 23.94222178482441 14.627489311064656 5.946833972140356 1 -3 0
3539 1 21.789300969372952 16.226439570790685 5.060711085918702 0 0 1
2183 1 2.341878006727602 18.12427853124526 6.0023465824915325 -1 1 0
3149 1 5.369918968412955 24.330569542137628 12.149937483761255 2 0 1
9 1 4.611046694897027 18.92215094914089 4.894963309644303 -1 0 0
71 1 6.557238246202281 17.20857334303246 5.779459383852372 -3 0 1
3716 1 8.652082851934622 18.16597556577697 4.953003556784029 0 -3 1
5570 1 9.059631130575397 20.904508762392926 5.651774690639712 -1 3 1
6449 1 13.140805892953448 17.376959562282696 4.905135938138142 1 2 1
1332 1 13.306389130856967 19.64854168164963 5.836963854324524 -1 1 1
5371 1 17.42769439331593 16.785151253705457 5.16566909435693 0 1 0
5552 1 17.67521907937118 19.271348136954472 6.072714347879091 1 -3 1
1625 1 22.11543847356664 18.764572571705756 5.978417818385244 -1 -1 1
247 1 2.7976495545162443 23.075437024497187 4.751124770588191 1 0 0
3192 1 11.938306958300021 22.24986569590178 19.616647356026238 -1 2 1
410 1 4.918270950494349 21.415982366895935 5.474871129338867 2 -3 1
5663 1 7.276831985205683 22.39921402576913 4.430190915577976 -1 1 1
1488 1 11.427594398508095 21.356805868726852 4.679848076102866 1 1 1
6336 1 12.219480588547631 23.82203759659642 5.823514744041611 -2 2 1
4824 1 15.67672899150607 20.4319633818787 4.897218058820865 3 0 1
4909 1 16.47431212941665 23.220876825542607 5.629834433154382 3 -1 1
3085 1 18.927263617149713 24.133038081192222 4.997433201384482 -3 -3 1
6649 1 19.97473904104276 20.22062969833799 4.992683326897887 1 -5 1
1449 1 20.90112732875534 22.41330978546993 6.043816402697352 2 -4 1
2181 1 23.252982512862594 23.198427026348295 4.641012949353594 4 -2 0
3355 1 1.6810930863729887 1.0627552808723275 9.61872330380293 -1 0 1
3775 1 4.047086924912538 1.8748685754769905 8.714948097466205 3 4 0
4800 1 24.57594541195553 5.159251147497073 12.215249779200299 -3 0 1
127 1 8.665397773220429 1.329500075636306 8.97482739527449 0 3 0
468 1 8.556969004926064 3.644083462893909 9.954623824419553 4 1 1
3725 1 16.17087589249762 21.313476428087007 19.598066064666902 1 -3 0
6638 1 12.91758268970168 0.5526026581181269 8.743687701251874 2 -3 1
4830 1 13.538859165583213 3.1116012145734055 9.510302241801632 0 2 0
2038 1 15.581194589813792 4.406740958124784 8.925184520415204 2 2 0
3888 1 17.691145699548404 2.7512857779559625 9.575501540741838 -1 1 0
6346 1 19.973761106843202 3.8409329440392908 8.888908484365544 0 1 1
6556 1 24.15343969945192 17.020807754546976 10.108381139480223 -3 2 1
440 1 21.7540040839287 2.1531482674205904 9.544695528103112 0 1 1
604 1 2.642340686845703 6.531054841011896 8.758335635944736 1 2 1
3432 1 4.3125584486067785 4.474396828387649 9.427302727684467 -3 -1 0
3926 1 6.918543952774176 5.392435363384893 8.853688945781826 -2 2 1
418 1 7.447873144154904 7.839036458315648 9.77229419179912 0 0 0
3447 1 11.054408188802311 4.3806565181644075 8.839873747853739 0 0 0
408 1 11.560463424825333 6.967095400236035 9.69093759310892 0 1 0
5090 1 15.830548478966174 6.698947304315406 9.623437149772544 1 0 0
1598 1 13.803784485835743 8.093131600178907 8.526214276904465 0 -2 1
6374 1 18.100790567880498 7.796670479129882 8.443878498757394 3 -1 1
3483 1 20.006875217386362 6.475166908590248 9.550970065436065 5 -1 0
6737 1 22.697960391132266 7.000739268710996 8.615272151542575 -1 0 0
2323 1 0.6930394611594994 22.08712445185584 1.317198438220666 2 0 1
39 1 2.7990317508905913 8.82293536756303 10.234509096857057 0 0 0
177 1 0.9745926249617264 10.567902207994127 8.843055593756752 -1 0 0
2000 1 5.486565968778509 9.63863262069697 9.311055785427614 -3 -1 0
3701 1 6.111046665072404 12.342245325164033 9.365183119176042 -1 -1 0
6354 1 9.633254963552135 8.951672281372156 9.14418467814227 0 3 1
3880 1 10.320128992816791 11.449482083259236 9.695937021672762 2 1 0
1746 1 14.442492966420847 10.748273312719169 9.591342717766096 1 -2 0
1311 1 16.734440102404196 11.921413197887425 8.8392724240512 -1 2 1
1387 1 18.899632875830335 10.333593405600986 9.505949919581827 0 2 1
6644 1 21.217759208871062 11.251827144302899 8.657042894795822 1 -1 1
3639 1 23.05851244022974 9.713827952631235 9.548286662790423 -6 -2 0
3636 1 1.8486458091413396 13.049869709035475 9.474405270920627 0 -4 1
3404 1 4.289508352984301 13.961639899137413 8.610915165530512 1 3 1
6501 1 8.497849291910475 13.250385383368643 8.70154559039665 -2 -2 0
6487 1 8.448839277484165 15.937928632262402 9.807815165569457 -1 0 1
6698 1 12.628338520615422 12.496150306210511 8.798643026128792 3 1 1
3224 1 12.881003534387965 14.946428462207814 9.75057470678923 1 -2 1
5350 1 15.223020471160496 15.880786641205866 8.639011548465408 0 2 0
3630 1 17.181939074462715 14.289760850044924 9.932662399227858 -1 -3 0
5537 1 19.491125305469033 15.01727535865435 8.432811505113968 2 1 0
3634 1 21.550961147936253 13.810476306928273 9.752519072034593 1 2 0
1475 1 24.58378343082212 19.30783152560058 5.028414274037437 -1 2 1
1565 1 2.1473366728311145 18.09849387825406 8.922407485625069 2 -2 1
3366 1 4.337113222427041 16.41284009121562 9.538424273794732 1 0 1
2304 1 6.632877840889077 17.231038665394475 8.577914187551997 -2 1 1
1656 1 7.024646492109371 19.859580296897494 9.461924579799243 4 2 1
5310 1 10.807831387353636 16.570190213663317 8.854435068593931 -1 -4 0
4771 1 11.208087709966458 19.16566946821804 9.317875746939292 -1 -2 1
5540 1 15.813040494072421 18.265213118658238 9.796294743390616 1 2 0
5344 1 13.67899488418636 19.621560612211677 8.415603938503375 0 2 0
2264 1 18.29612130361049 19.170206649666355 8.728830175408016 -2 -1 1
2998 1 19.933037599264395 17.417494771492674 9.844740606282944 1 2 0
5070 1 20.78613144909195 22.99567009811842 16.165505412282464 1 -4 0
3482 1 22.112362122040942 18.627361482548995 8.657028175627444 2 -3 1
467 1 2.614369924277502 20.867850759474482 9.37526776233901 0 -1 0
426 1 23.262865118287362 24.27938982796133 19.652194991746814 2 1 0
1551 1 5.9244650094645745 24.01585908979732 9.283641084750185 0 -1 0
3296 1 5.23546943367506 21.470527182295687 8.372270880606218 1 1 1
1894 1 9.191206443118388 20.936605287621553 8.319896111792678 -1 0 0
1603 1 9.622307916129705 23.413021934353672 9.269096584891566 1 2 1
5640 1 14.962918899616433 13.453681534483593 19.731694177817886 -3 -2 1
3081 1 14.1318887175185 22.21269607296744 9.466690717598729 -2 2 1
5129 1 16.51382300639381 23.177753941761008 8.502523507472828 0 1 1
3520 1 18.356761192085848 21.78279945686157 9.7958159275807 0 0 1
140 1 20.740913742346322 22.473604248376464 8.609401696498901 -2 -2 0
3759 1 22.92451863681901 21.137589616973194 9.666894391585469 1 0 0
5457 1 1.9550270594980128 1.1028177545225293 12.386864896607426 -1 -3 0
3816 1 4.1618059215247225 1.9494334507198274 13.557701506894077 1 1 0
3198 1 8.469618819925845 1.1560612685611629 13.441352106881455 0 1 1
4809 1 8.472675959819686 0.9874094312018938 16.283156188801954 2 3 1
1863 1 9.221075016590417 18.50964481686991 19.696994223969096 2 2 1
1459 1 9.050485522992238 3.865073592660324 12.711477966710312 0 -1 0
188 1 24.06579164517902 2.701051712316182 16.130262683378444 2 -1 1
5202 1 2.238343529721612 3.724775110108533 19.60146257343432 0 1 0
6636 1 13.341537269748244 2.863992220313601 12.255582377982746 3 5 1
3392 1 15.51360490393374 4.076440481495792 13.299027633252209 1 2 1
3096 1 17.468929459206628 2.738730940862982 12.23334529535795 4 0 1
3098 1 19.801610133299935 3.5729513765936742 13.0372129942112 0 -1 1
3579 1 21.866213575145494 1.8653036713145217 12.357770687069795 -2 1 0
5491 1 9.26816297515447 6.172308375782569 19.528486301682758 0 2 0
6546 1 17.526609946639617 0.5278256162773867 1.419743106181753 0 3 1
5447 1 2.37439403107837 6.250907459587463 12.914627292057789 -2 -3 0
1865 1 4.352084908061139 4.761371013773283 12.227257008020318 1 2 0
3410 1 6.922485157567946 5.333638972858404 13.316270990593473 5 0 1
3729 1 7.381520016363274 7.828398653558067 12.457596478774853 0 1 0
3116 1 6.7534306241097015 5.286857890269648 16.16050873783371 -1 -3 1
501 1 11.499377790772833 4.660381249395603 13.05341454592208 -3 0 0
5353 1 11.664176861004655 7.290158613123471 12.412594549483837 2 1 0
1793 1 16.016561476247343 6.628600256741901 12.515570818158464 -3 0 1
1404 1 14.216153017387649 8.416769148224438 13.212349193063588 -3 2 1
5450 1 18.425064650193836 7.602374019109993 13.408960008777177 2 1 0
4987 1 20.166719442435312 6.280790065216486 12.213146271687908 1 -1 1
174 1 22.495004262196378 6.871956149467308 12.872155093597561 0 0 0
3051 1 1.062957118169276 7.75163271801056 19.73530284535733 2 -1 0
3340 1 2.7632510740537164 8.904476700970234 12.875070384109614 -1 2 1
3253 1 0.8155520965291619 10.368057349058244 13.5316449184253 1 -1 1
1432 1 5.335391801758664 9.616722759400227 12.912629072693328 3 0 1
1718 1 6.0161106714258015 12.135541334225483 12.13578677929898 -3 -2 0
2170 1 10.100536475305663 11.826055845325346 12.323215998778826 0 -2 0
2055 1 9.825633389193937 9.075793214166325 13.020194349230833 0 2 0
5261 1 14.49939642556153 10.80349983651329 12.303043252926459 3 0 1
6731 1 18.76603579333368 10.47836552150885 12.468547703841034 1 0 1
5502 1 16.734427378198518 11.870012746411943 13.395771431116435 -2 0 0
6700 1 22.889226058242375 9.363330242852129 12.046581510560822 0 0 1
5468 1 21.391021175979397 11.336841677938523 13.16085906901321 -1 -2 0
5179 1 1.704767670260671 12.660186834216915 12.151901347013634 1 1 0
2231 1 4.178999225273159 14.016997999766195 12.839171881341093 -2 0 0
5382 1 8.170990866447285 13.424703906228391 13.051164518801013 -1 1 0
3733 1 8.393219693513434 16.173805930306237 12.449364611328942 -1 1 1
6423 1 12.534274712396213 12.486431237907091 13.315975488702474 3 -4 1
3721 1 12.942349966681148 15.120617870669486 12.501172276719878 2 2 0
237 1 15.263271186040686 15.841533941311534 13.479830780159853 0 1 0
5405 1 15.20877022850052 16.458445772553212 16.14300204788627 3 4 0
288 1 17.154038331510403 14.261902063279514 12.571840910252785 0 1 0
4784 1 19.481615793334296 15.166289681730962 13.523741649668512 0 -1 1
2052 1 21.549549663161383 13.705490461682729 12.359738358082613 -2 3 0
3204 1 23.86790237732037 14.522532896630597 13.499263608989626 -1 1 1
4929 1 23.897677558971704 14.767931061882736 16.46632248300887 1 -1 1
6673 1 2.264838593480031 18.529812065677135 13.098011036229568 4 2 1
515 1 4.239776484441468 16.616813701600318 12.174381737751471 4 2 1
3215 1 2.4699410745024597 18.5795199693756 15.969377348009822 2 -2 1
1948 1 6.462263840829629 17.741057633567447 13.222021620615303 1 0 0
324 1 6.9477754162573335 20.21675278812861 12.11503350047109 -3 1 0
1716 1 10.598800913741366 17.020894551048613 13.592227753621831 -1 1 0
2049 1 11.168557074799736 19.533433711950483 12.299553038189286 3 0 0
6592 1 15.240867670210607 18.246334136380522 12.531389637858469 3 0 1
3086 1 13.565145232383568 20.136488698355056 13.144491214001842 2 2 0
1553 1 17.902394075634742 19.198055690161272 13.438452786848554 0 3 1
1673 1 19.863442524966224 17.703985194954942 12.555514557861182 1 -3 0
6749 1 18.200568829900927 19.4123638187643 16.089545804020617 4 -1 1
161 1 22.072597357512237 18.75473205202272 13.516792580670472 2 -2 0
1792 1 22.630117496763265 18.753655451766697 16.16296198647659 0 -3 0
409 1 13.765752293017021 5.902151480531614 19.52972937828903 1 1 1
3126 1 0.885547937308354 22.432836882606182 13.462567710505459 2 1 1
510 1 2.7792012773215835 20.953195483532078 12.312330172030082 4 -3 0
6637 1 6.1423360244085305 0.3336558601981966 9.793556304100637 1 2 0
2283 1 5.134111857687023 21.888363904376607 13.24523461885057 0 0 0
1725 1 5.434369223034949 21.825699908360825 16.0454567973572 1 -1 0
5654 1 9.28158229447508 21.10935644382989 13.055540681028644 -2 3 1
2015 1 9.76006579113626 23.51023970045833 12.279049815502916 -1 0 0
455 1 14.091407847085849 22.60680070714719 12.297639346275728 -1 1 0
5607 1 16.353231338071843 23.587572257111223 13.260358990630284 3 1 1
2075 1 18.212334135410433 21.851325305525076 12.216538309476546 3 2 0
6448 1 20.738327112969248 22.590856040302235 13.349712969531971 2 0 1
3753 1 22.46684079255349 21.295373444219475 12.395424971980374 2 2 0
3487 1 12.958154579596712 0.49298062772010576 13.033757740674085 4 -1 0
1807 1 4.277943654677606 1.9565599409030126 16.471493037635096 1 0 0
5635 1 2.467102570571971 3.6043922688606456 16.96923249573637 1 1 1
198 1 6.619058419699624 2.70967797110682 17.30936435573982 3 0 0
6360 1 20.845264411890703 8.822199110085824 19.43234480833255 -2 1 1
6661 1 10.98277449430029 2.3432362559913886 17.027785743670016 3 3 0
4752 1 17.36289942094171 0.5860378652556163 5.930227418768081 3 2 1
3087 1 15.614327998573087 3.8755688284451586 15.914791235991299 -1 0 0
3216 1 15.354191035074324 1.371430689223305 16.910693161893825 2 -2 1
3476 1 7.914166507630662 10.519880199078626 19.27858857672402 -1 0 1
5444 1 20.287416790271383 3.290771664423589 15.802520194282582 2 4 0
249 1 24.201822745895296 17.180012995154076 12.911316332916915 -3 -3 0
5381 1 7.522832742030363 22.919018671957602 19.502766809133426 -3 1 0
3191 1 24.583500873142373 5.190256508209725 9.567105248149183 0 2 1
3034 1 2.975282757974536 5.900608550097914 15.585222323707908 -2 -3 1
6380 1 16.194283228640423 21.431614499020487 16.765357383234402 2 2 1
233 1 5.123361681242774 7.2261810459550215 16.844645849236787 -2 2 0
3356 1 11.328552326467774 4.735381360997395 15.934371646883314 2 0 0
5036 1 9.165080715793264 6.321317071169183 16.9112662088778 0 -1 1
5329 1 11.890361941945171 22.442441441084355 16.887048070023027 0 0 0
1584 1 23.388448627493844 12.218079605087102 19.771678068173646 0 0 0
3427 1 14.025342392586188 5.81620485620043 17.044277943902234 2 -2 0
1538 1 13.975329082886974 8.418604097898891 16.04372080916413 0 1 1
4795 1 18.36158842359831 7.64917590366576 16.19735417635395 -4 -3 1
97 1 18.045319209494867 4.730550757716676 16.750020331858792 -1 -2 1
3982 1 22.621505367749307 6.827781676304582 15.821479875052383 2 -1 1
3948 1 22.124565689009312 4.428219101055219 16.985619046145526 0 0 1
6558 1 19.297133907128973 12.872797722913196 19.71372146306281 1 2 1
2045 1 1.276743297791207 10.274271129503713 16.173831583788893 3 0 1
3631 1 3.7249623901618105 11.361550740798572 16.971817262366997 2 0 1
137 1 19.928176166314312 0.6211449309756837 16.601679226116072 3 0 0
3974 1 0.9385012363243188 7.699459942741808 16.897053970088905 4 2 1
3414 1 5.547200646299629 9.937340800072256 15.710818482909913 0 4 0
4820 1 8.071662501164482 10.931344721627525 16.587042816049088 -3 -2 1
3553 1 17.76757160801701 17.272451605545626 19.798888937202225 1 -2 0
5679 1 9.838045646214088 8.761047179363981 15.841461471423543 -1 -1 1
3784 1 12.064686551883481 9.820187593349274 16.8346948181925 -1 -4 1
1419 1 16.28488521138998 9.362189321732288 17.05577465923791 3 1 1
1393 1 10.661672781331234 13.935870455514005 19.613920815682228 0 1 1
3008 1 16.615909230450683 11.956058046706474 16.042057624823595 -1 1 1
3588 1 16.552637014835103 23.980230991579514 16.082518156829096 3 -1 0
1664 1 1.953669463084749 15.455693609193222 19.69124209955681 -2 -1 1
3370 1 20.971941325849667 8.828655287267818 16.800294563901964 0 -1 0
3931 1 21.174826592970298 11.298848887763606 15.836573642093203 2 -1 1
3667 1 23.540049739504948 12.077646230011919 17.133841077316507 4 1 0
3412 1 4.307084435373709 14.020004679030858 15.665307450425566 3 -2 0
3020 1 2.282054532556293 15.709305558363194 16.806441022932972 -2 0 1
80 1 24.087298328215756 0.5574311637290994 5.2053772437181225 -2 2 1
2159 1 23.22116506519751 24.126751423360197 16.937536899692002 1 1 0
5401 1 6.4660430718856245 15.140256604697257 17.152074026277337 -1 2 0
4704 1 8.286622845663636 13.46536115030177 15.856117262467443 2 0 1
1912 1 10.567220869809917 14.28994896501761 17.006226660561108 3 4 0
493 1 20.483636628954923 20.517725657928167 17.10497286018232 -1 1 0
1686 1 12.444032765424518 12.720347249716793 16.04673183258903 -2 -4 1
4865 1 14.754434608892968 13.727306204700353 16.857113480890973 4 0 1
5054 1 23.87263164874273 14.628526300823795 8.957112578395705 -1 1 1
3064 1 19.36792453978006 15.591317572421044 16.117773277563547 -1 -1 1
333 1 19.40355900917869 12.883145136408295 16.888158480373477 -2 -2 0
5507 1 21.94239030528219 16.29010493164796 17.002990629528814 -1 -1 0
1976 1 24.212471337497306 2.74722114005177 13.407477643639275 -3 1 0
4733 1 3.338186174578319 23.647946868479423 19.731266976544436 1 -1 1
3801 1 6.652648914196016 17.736244138150248 16.313210365812452 -1 0 0
3829 1 4.795692247973481 19.378554342401404 17.349617731003757 1 0 0
4814 1 10.9235548027323 16.883545504826067 16.306615326988826 2 5 1
2062 1 9.043543965678552 18.794510439816314 17.099237833702222 -1 -2 0
5619 1 13.846180908493734 20.243787544832074 15.776084516230224 1 1 1
5638 1 13.349859145998167 18.126678392857876 17.308540062261223 1 1 1
2194 1 9.185797383212803 21.477057810050237 15.932041721084058 1 0 0
3942 1 12.87165686949515 0.6534369343352877 15.84602324778514 0 0 1
1422 1 17.457497337450825 16.946500317973005 17.192090112036475 -3 5 1
1778 1 0.47301279530951895 22.16230080681441 6.151615785450078 -2 0 0
3658 1 24.48361978428189 3.1108675822629674 6.004167758970294 -3 3 1
3278 1 0.8096618242227597 22.632205155176948 16.403806172204078 2 1 0
315 1 3.4239739452724747 23.585446439513024 16.79060195609672 -1 -1 0
2270 1 24.1758140045568 3.0292741340155103 8.631274733729546 -1 -1 1
2037 1 7.637476716235266 23.232605310356806 16.86866529687065 -1 -1 0
3251 1 0.23450510232136937 19.696503548611 2.5175455406665717 2 0 1
89 1 24.15143967506713 0.240018531409981 2.46819415654472 2 -1 0
1643 1 15.262366505778903 1.6952345848333814 19.41792232361745 0 0 1
1701 1 12.083000068257132 10.004251839655032 19.756351312516077 0 0 0
3411 1 19.65553194853902 0.6224359579891139 19.560164732942663 0 1 0
3347 1 16.40982917189396 9.20267438844709 19.689846311733312 0 0 0
2115 1 0.48796796642824297 19.832500546529822 17.331820837480674 1 -2 0
4853 1 17.923946356888887 4.892168856731013 19.14403161315561 -2 0 0
2104 1 5.9949539494901405 0.2259435678243401 12.470266775690853 0 0 0
2292 1 22.139875960676534 16.280115201951205 19.842608175308246 2 -1 1
1717 1 0.20312797787975256 5.29211895394789 9.816248931194528 0 0 0
6674 1 3.6169198827216316 11.377090284546735 19.924206148152834 -1 0 1
5001 1 2.0397050496002542 0.7251270045296329 23.3681224420182 4 1 1
4799 1 1.8103949815414537 1.1770520848694366 20.605512293407084 0 1 1
575 1 6.742201893057646 2.5484997828737357 23.837766739373993 0 0 1
322 1 9.039377061798435 3.822208833508921 23.574917421495453 1 -2 0
6464 1 9.114385151756098 3.9294329150077743 20.970535445396546 -1 -1 1
303 1 13.463849636338958 2.7819924337956454 22.79574206165025 1 3 0
422 1 3.3670551577341383 8.6693121098016 20.59733557903561 4 -2 0
1973 1 15.16879339679561 1.1792562964685356 23.89955636699345 0 0 0
1451 1 17.534780722242175 2.1964868246530234 23.047019526314642 -2 0 1
2140 1 17.66798990321843 2.2352007100615228 20.438178859883603 -2 -1 0
3418 1 19.725171793213953 0.7359236381120734 24.130074418713917 0 2 0
1445 1 5.938310453469803 1.2236792605025626 36.45647625824864 -2 1 0
5506 1 22.14444649569475 1.9265273138900507 23.329680713536774 2 1 0
4699 1 21.735947873389744 1.7399874357978211 20.60050276683679 0 1 1
4866 1 4.138117570726809 16.798852205011862 20.633404917213948 2 1 1
4892 1 17.358551087835938 16.757747984542053 39.50091369410124 0 -1 0
3882 1 4.73284400768971 4.22074755054806 22.984319323848474 2 -1 1
3707 1 4.737641380120036 4.526022851097115 20.377215610262855 -2 1 0
1873 1 7.605828137866313 7.924506254984388 23.460011526255755 -1 2 0
1719 1 7.47627892979026 8.083956217045603 20.71197433319146 2 -1 0
603 1 5.057078885046363 6.715490311067207 24.017038663847185 2 -5 1
4966 1 6.090034420731647 0.20823089590951316 20.57224906059964 0 2 1
6407 1 12.07380311549023 7.418399523004487 22.902606730546367 -1 2 1
20 1 11.58940122933646 7.564052031901205 20.19192088761153 0 -1 0
3568 1 16.10128866377479 6.857142362035791 23.15090293955003 -1 0 0
5354 1 16.062485757686684 6.26538120989363 20.464702372306363 3 2 1
6520 1 23.049081645920833 22.780584233837608 36.9548210341478 2 1 0
5481 1 19.995685884044317 5.832635337704731 22.90632723480814 0 1 0
5676 1 20.255223294100684 6.006150793770732 20.212945811253448 3 -1 1
2028 1 3.2235048692244614 8.498169499253407 23.563423167996238 -2 2 0
3603 1 14.225077905634555 23.932892475908798 36.9740923494566 0 1 0
362 1 3.750710992404786 11.351095017609408 23.803003768655035 -1 3 0
6519 1 6.258727655160327 12.234532533440523 20.551504391050848 1 2 0
1497 1 6.172077762919726 12.266591632755341 23.259496249385784 0 1 1
6422 1 9.889342499381982 11.699279617182718 20.395595649387076 2 -3 1
3281 1 10.178971230439235 12.017598979220427 23.33048237053387 2 1 1
432 1 14.41951899448303 11.040125854083824 23.355615623694927 2 0 1
3870 1 0.8328011722566306 7.69165386923708 23.912822218913423 2 -4 1
1913 1 18.867644270724867 9.791013306380558 23.150679159825522 1 0 0
1864 1 18.835462020867382 10.415875811491773 20.435778358407273 -2 1 0
3188 1 22.920898565113323 9.398820767052474 23.271199138111538 1 0 0
3405 1 23.182203461529646 9.506878736073533 20.533810887298557 0 0 1
344 1 1.4172815632819442 13.123360905012083 23.715431559429717 2 -3 0
533 1 1.8429394526957958 12.863419991660681 20.933164715251063 -1 3 0
4692 1 6.315400543776276 14.855628359431114 22.973768291294018 0 -5 0
2111 1 9.114079829340993 15.964283539649582 20.69119703312504 0 -2 0
6582 1 8.668073383770894 16.01369649186787 23.395580077642688 4 1 1
274 1 10.829581777946654 14.370584596680436 24.342338363342492 6 -1 0
1844 1 22.946156687231177 22.949223506258022 39.81482715080634 1 -5 -1
1670 1 12.764623768533529 15.337496682530505 22.91539642479057 0 -1 1