
# Create simulation box and atoms

read_data data.graphite_substrate_500
Reading data file ...
  orthogonal box = (0.0000000 0.0000000 -0.51822262) to (49.220000 49.019636 60.580223)
  2 by 2 by 3 MPI processor grid
  reading atoms ...
  6750 atoms
  reading velocities ...
  6750 velocities
  read_data CPU = 0.015 seconds
group water type 1
3990 atoms in group water
group graphite type 2
2760 atoms in group graphite

# Define potential

pair_style sw
pair_coeff * * mWC.sw mW C
Reading sw potential file mWC.sw with DATE: 2019-02-27


# Fix graphite atoms in place

fix 5 graphite setforce 0.0 0.0 0.0
velocity graphite set 0.0 0.0 0.0


# Equilibration of molecular water

# Add velocity/set timestep

velocity	    water create ${TEMP} ${SEED} rot yes dist gaussian
velocity	    water create 225 ${SEED} rot yes dist gaussian
velocity	    water create 225 26993 rot yes dist gaussian
timestep	    5.0

# Define output

compute			1 water msd
compute			3 water temp
thermo	    	50
thermo_style	custom step temp press vol etotal ke pe c_1[4] c_3

# Neighbor lists

neigh_modify    delay 0 every 1 check yes

# Set fixes

fix             1 water momentum 10 linear 1 1 1 rescale
fix             2 water nve
fix             3 water temp/csvr ${TEMP} ${TEMP} 500.0 ${SEED}
fix             3 water temp/csvr 225 ${TEMP} 500.0 ${SEED}
fix             3 water temp/csvr 225 225 500.0 ${SEED}
fix             3 water temp/csvr 225 225 500.0 26993
fix             4 water press/berendsen iso ${PRES} ${PRES} 1000.0 modulus 20000
fix             4 water press/berendsen iso -500 ${PRES} 1000.0 modulus 20000
fix             4 water press/berendsen iso -500 -500 1000.0 modulus 20000

# Run 0.5 ns equilibration

dump		    1 all atom 2000 ${DIR}/eq.${NAME}-${TEMP}.dump
dump		    1 all atom 2000 run_2/eq.${NAME}-${TEMP}.dump
dump		    1 all atom 2000 run_2/eq.het_freeze_2-${TEMP}.dump
dump		    1 all atom 2000 run_2/eq.het_freeze_2-225.dump

reset_timestep  0

run	            100000
Neighbor list info ...
  update every 1 steps, delay 0 steps, check yes
  max neighbors/atom: 2000, page size: 100000
  master list distance cutoff = 7.76
  ghost atom cutoff = 7.76
  binsize = 3.88, bins = 13 13 16
  1 neighbor lists, perpetual/occasional/extra = 1 0 0
  (1) pair sw, perpetual
      attributes: full, newton on
      pair build: full/bin/atomonly
      stencil: full/bin/3d
      bin: standard
Per MPI rank memory allocation (min/avg/max) = 4.562 | 4.694 | 4.959 Mbytes
Step Temp Press Volume TotEng KinEng PotEng c_1[4] c_3 
       0    132.98637   -1273.0418    147415.06    -35990.25    2675.3515   -38665.602            0          225 
      50    175.56836   -1018.2299    146009.03   -36421.726    3531.9942    -39953.72   0.86079425    297.04458 
     100    168.79213   -1000.4916    145288.37    -36785.06    3395.6735   -40180.734    1.9131067    285.57986 
     150    164.00577   -836.96534    144699.81   -37098.275    3299.3839   -40397.659    2.7782739    277.48181 
     200    157.76346   -912.85544    143977.99   -37452.691    3173.8043   -40626.495     3.637414    266.92042 
     250    153.99624   -767.03021    143308.91   -37760.368    3098.0174   -40858.386    4.3447925    260.54667 
     300    151.76743   -707.78028    142638.79   -37913.009    3053.1793   -40966.189    5.0846624    256.77573 
     350    148.51855   -552.19864    142418.45   -38082.436    2987.8199   -41070.256    5.7304237    251.27893 
     400    143.99051   -655.95649    142045.69   -38264.737    2896.7271   -41161.464     6.188895    243.61793 
     450    144.05256   -431.06381    141908.46   -38361.183    2897.9756   -41259.159    6.6559053    243.72293 
     500    143.43977   -463.64368    141805.73   -38503.511    2885.6477   -41389.159    7.1550106    242.68614 
     550    144.37147   -405.71151    141775.49    -38589.29    2904.3911   -41493.681    7.5637621    244.26248 
     600    143.68517   -546.05472     141872.9   -38616.292    2890.5846   -41506.877    8.0065412    243.10133 
     650    142.22335   -628.09731    141817.88   -38670.155    2861.1764   -41531.332    8.4566815    240.62807 
     700    139.81645    -646.5627    141445.89   -38779.318    2812.7555   -41592.073    8.9042905    236.55583 
     750    137.92777   -544.72962    141230.94    -38889.46    2774.7602   -41664.221    9.3765967    233.36037 
     800    138.19456    -553.7295    140931.68   -38911.421    2780.1272   -41691.548    9.7534914    233.81175 
     850    139.16205   -520.82035    140873.69   -38979.881    2799.5907   -41779.471    10.094054    235.44865 
     900    138.55706   -576.01341    141017.53   -38979.929    2787.4199   -41767.349    10.429317    234.42507 
     950    138.18491   -359.80629    141072.48   -39051.401    2779.9332   -41831.334    10.769416    233.79543 
    1000    135.89206   -466.79014    141114.23   -39134.892    2733.8067   -41868.698    11.037321    229.91614 
    1050    134.93706   -400.02818    141224.09   -39176.428    2714.5945   -41891.022     11.41428    228.30038 
    1100    134.74835   -548.41688    141180.03   -39196.513    2710.7981   -41907.311    11.761591     227.9811 
    1150    137.98709   -585.68355     140903.1   -39211.275    2775.9536   -41987.229    12.092856    233.46074 
    1200    134.96047   -440.71543     141056.2   -39255.407    2715.0655   -41970.472    12.320237    228.33999 
    1250    134.86107   -409.37998    141180.79   -39281.608    2713.0658   -41994.673    12.532631    228.17181 
    1300    133.76574   -553.82293     141234.3   -39283.898    2691.0306   -41974.929    12.757531    226.31863 
    1350    134.30574   -476.61582     141189.7   -39335.936    2701.8939    -42037.83    13.067057    227.23224 
    1400    134.42603   -409.75952    141136.24   -39363.438    2704.3139   -42067.751    13.347266    227.43577 
    1450    130.78883   -559.82663    141184.41   -39365.881    2631.1427   -41997.024    13.655609    221.28199 
    1500    134.32109   -464.85471    141193.94   -39360.615    2702.2028   -42062.817    13.951321    227.25822 
    1550    132.19703   -485.06614     141206.7    -39339.06     2659.472   -41998.532    14.242982    223.66452 
    1600    138.22287   -436.44176    141350.27   -39319.434    2780.6968   -42100.131    14.425791    233.85966 
    1650    133.27945    -467.2699     141211.2   -39372.322    2681.2477    -42053.57    14.773485    225.49587 
    1700    134.64144   -318.60171    141381.76   -39353.793    2708.6474    -42062.44    14.985191    227.80021 
    1750    134.21361   -484.30601    141426.26   -39394.989    2700.0405    -42095.03    15.249994    227.07637 
    1800    131.39575   -343.12836    141410.63   -39442.198    2643.3522   -42085.551    15.411748    222.30882 
    1850    133.37031   -358.94015    141506.33   -39410.859    2683.0755   -42093.934      15.5806    225.64959 
    1900    134.36987   -564.61807    141659.42   -39468.949    2703.1842   -42172.134     15.79214    227.34076 
    1950    132.81765   -655.66697    141468.95   -39485.962    2671.9574   -42157.919    15.991577    224.71455 
    2000    132.18328   -458.05067     141481.6   -39459.228    2659.1953   -42118.423    16.297384    223.64125 
    2050    131.97439   -596.31463    141386.53   -39511.664    2654.9932   -42166.658    16.548746    223.28784 
    2100    131.29847   -495.17083    141441.96   -39533.026    2641.3952   -42174.421    16.768729    222.14424 
    2150    130.26433   -540.57198    141247.58    -39562.04    2620.5909    -42182.63    17.036997    220.39457 
    2200    131.19242   -539.25378    141335.95   -39559.529    2639.2618   -42198.791       17.288    221.96482 
    2250    133.62744   -378.11989    141362.48   -39500.438    2688.2482   -42188.686    17.442791    226.08462 
    2300    134.96827   -382.98966    141579.48   -39529.431    2715.2224   -42244.654    17.605124    228.35318 
    2350    131.07113   -640.99823    141569.05   -39496.128    2636.8217   -42132.949    17.894979     221.7596 
    2400    133.46575   -488.19731    141354.82   -39473.078    2684.9955   -42158.073    18.080319    225.81107 
    2450    131.58328   -479.45498    141357.96   -39519.616    2647.1248   -42166.741    18.231429     222.6261 
    2500     134.2237   -625.53751     141322.9   -39511.444    2700.2435   -42211.688    18.478009    227.09344 
    2550    131.16109   -454.14516    141330.64   -39547.226    2638.6314   -42185.858    18.754744     221.9118 
    2600    133.45011   -388.87596    141402.01   -39519.456    2684.6808   -42204.137    18.925519     225.7846 
    2650    134.70916   -651.00225    141479.59   -39495.812    2710.0098   -42205.822    19.065141     227.9148 
    2700    135.15046   -410.68322    141490.76   -39405.681    2718.8876   -42124.569    19.145927    228.66143 
    2750    136.94001   -480.15054    141611.82   -39447.609    2754.8889   -42202.498    19.358471    231.68918 
    2800    133.37331   -509.12816    141624.11   -39454.084    2683.1358   -42137.219     19.59814    225.65467 
    2850    131.86222   -565.44742    141618.92   -39480.415    2652.7364   -42133.152    19.814724    223.09805 
    2900    132.98712   -492.04088    141656.38   -39490.391    2675.3666   -42165.758    20.161619    225.00127 
    2950     132.2847   -377.11678    141778.55   -39471.564    2661.2357     -42132.8    20.554487    223.81284 
    3000    131.86744   -600.75201    141691.96   -39497.043    2652.8415   -42149.884    20.794699    223.10688 
    3050    135.76938   -343.72864    141728.66   -39479.643    2731.3388   -42210.982    21.146633    229.70859 
    3100    132.81458   -455.29814    141691.47   -39484.345    2671.8956   -42156.241    21.390254    224.70936 
    3150    132.49487   -462.87318    141658.79   -39498.061    2665.4639   -42163.525    21.595798    224.16844 
    3200    134.42587   -540.68008    141636.96   -39531.022    2704.3107   -42235.333    21.864399    227.43549 
    3250    132.61256   -496.14108    141617.75   -39504.754    2667.8315   -42172.586    22.162504    224.36755 
    3300    133.71312   -513.10261     141755.1   -39466.798    2689.9719   -42156.769    22.389625    226.22959 
    3350    135.34709   -475.07042    141826.53   -39425.012    2722.8432   -42147.856    22.574763     228.9941 
    3400    134.84272   -355.16052     141844.7   -39433.928    2712.6966   -42146.625    22.700583    228.14076 
    3450    134.31519   -505.49562    141865.83   -39409.546    2702.0841    -42111.63    22.870023    227.24824 
    3500    133.12021   -475.77481    141770.71   -39393.228    2678.0441   -42071.273    23.193917    225.22644 
    3550    134.94849   -500.49605    141745.47   -39396.349    2714.8246   -42111.173    23.456161    228.31973 
    3600    135.10328    -516.0385    141703.62   -39423.472    2717.9386   -42141.411    23.693729    228.58162 
    3650    134.62537   -527.32973     141764.1   -39461.688    2708.3241   -42170.012    23.898702    227.77303 
    3700    135.85171   -472.94391    141811.46    -39410.46    2732.9951   -42143.455    24.143184    229.84789 
    3750    131.03413   -486.13012    141898.73   -39427.184    2636.0774   -42063.261    24.362851      221.697 
    3800     133.0715    -435.4639    141871.14   -39438.833    2677.0641   -42115.898    24.474659    225.14403 
    3850    134.07791   -498.62069     141962.3   -39474.404    2697.3105   -42171.715    24.524765    226.84678 
    3900    132.74702   -611.44391    141967.23   -39489.068    2670.5364   -42159.605    24.833644    224.59504 
    3950    132.75158   -499.87822    141993.74   -39490.768    2670.6281   -42161.397    25.080305    224.60275 
    4000    134.29313   -563.89587    141870.64   -39496.796    2701.6402   -42198.436    25.345516    227.21091 
    4050    134.20376    -541.4473    141918.19   -39499.329    2699.8425   -42199.171    25.592035    227.05972 
    4100     133.9675   -535.45109     141785.3   -39507.201    2695.0894    -42202.29    25.861062    226.65998 
    4150    132.61426   -411.38195    141690.62   -39469.309    2667.8656   -42137.174    25.929819    224.37042 
    4200    134.73871   -353.10527     141877.6   -39443.674    2710.6042   -42154.278     26.05426    227.96478 
    4250    136.37302   -710.03762    141777.87   -39457.169    2743.4825   -42200.651    26.225294    230.72988 
    4300    133.47431   -480.70744    141715.13   -39475.068    2685.1677   -42160.235    26.497684    225.82555 
    4350    132.50006   -401.01833    141852.99    -39518.03    2665.5683   -42183.599    26.661205    224.17722 
    4400    131.84972   -492.73191    142003.16       -39555     2652.485   -42207.485    26.850398     223.0769 
    4450    133.35936   -529.12345     142041.1   -39523.339    2682.8552   -42206.194    26.995587    225.63107 
    4500    135.24237   -453.20338    142058.28   -39497.747    2720.7366   -42218.484    27.165286    228.81694 
    4550    134.82524   -550.30378    142196.69   -39501.755    2712.3451     -42214.1     27.25559     228.1112 
    4600     135.7445   -468.56963    142120.33   -39449.532    2730.8382    -42180.37    27.473372    229.66649 
    4650    134.95576   -543.08101    142144.78   -39515.977    2714.9707   -42230.948    27.653276    228.33201 
    4700    131.73641    -397.4387    142276.75   -39536.332    2650.2056   -42186.538    27.941374     222.8852 
    4750    134.23583   -487.55053    142254.49   -39499.747    2700.4877   -42200.235    28.052273    227.11397 
    4800    133.93638   -446.93753     142102.4    -39520.52    2694.4634   -42214.983    28.166572    226.60733 
    4850    132.65412   -529.63347    142124.92   -39563.068    2668.6675   -42231.736    28.436515    224.43786 
    4900    131.79457   -468.92763    142285.66   -39567.735    2651.3755    -42219.11    28.567918    222.98359 
    4950    133.08227   -574.27386    142222.94   -39545.175    2677.2809   -42222.456    28.750913    225.16226 
    5000    134.92778   -730.95074    142146.54   -39532.278    2714.4079   -42246.686    28.967865    228.28469 
    5050    134.73452   -278.94545    142054.76   -39592.374      2710.52   -42302.894    29.130686     227.9577 
    5100    132.32897   -381.79524    142240.66   -39608.143    2662.1264    -42270.27     29.28178    223.88775 
    5150    133.87994    -524.9405    142302.52   -39622.448     2693.328   -42315.776    29.468557    226.51184 
    5200    130.94119   -550.27908    142302.02   -39637.632    2634.2076   -42271.839    29.738244    221.53975 
    5250    132.12304   -386.24185    142291.66   -39618.863    2657.9835   -42276.847     29.90949    223.53932 
    5300    130.43649   -403.28967    142260.67   -39654.338    2624.0544   -42278.392    29.970692    220.68586 
    5350     130.8159   -551.48971    142275.54   -39677.052    2631.6873   -42308.739     30.07374    221.32779 
    5400    133.25064   -374.80269    142333.37   -39693.529    2680.6681   -42374.197    30.245252    225.44713 
    5450    133.93326   -557.93324    142505.09   -39685.356    2694.4006   -42379.757    30.300813    226.60205 
    5500    131.60314   -557.07651     142571.5   -39677.915    2647.5245    -42325.44    30.536074    222.65972 
    5550    132.28011   -460.69934     142497.2   -39655.986    2661.1434   -42317.129     30.74161    223.80508 
    5600     133.8411   -361.03376    142506.26   -39629.896    2692.5466   -42322.442    30.939754    226.44612 
    5650    134.62594   -604.31826    142458.35   -39692.756    2708.3356   -42401.091    31.209122    227.77399 
    5700    135.87943   -495.23322    142516.93   -39679.148    2733.5526   -42412.701    31.401406    229.89477 
    5750     134.3837    -488.3768    142517.73   -39720.912    2703.4624   -42424.374    31.540969    227.36415 
    5800     133.0707   -610.56805    142665.44   -39743.533     2677.048   -42420.581    31.820868    225.14268 
    5850    131.89561   -441.29291     142679.2   -39730.908    2653.4082   -42384.316    32.052995    223.15454 
    5900     133.1565   -549.58465    142598.63    -39759.86    2678.7742   -42438.634    32.242601    225.28785 
    5950    132.57269   -608.43648    142637.76   -39755.929    2667.0294   -42422.958    32.315972     224.3001 
    6000    132.74514   -679.10672    142579.42   -39746.582    2670.4986    -42417.08    32.452353    224.59186 
    6050     134.1994   -534.82453    142520.95   -39708.046    2699.7547     -42407.8    32.605071    227.05233 
    6100    134.04808   -473.25999    142545.46   -39662.815    2696.7106   -42359.526      32.8308    226.79632 
    6150    133.90942   -420.99424    142721.34   -39668.885     2693.921   -42362.806    32.896741    226.56171 
    6200    131.13417   -603.72257    142781.93   -39622.836    2638.0899   -42260.926    33.099486    221.86626 
    6250    132.46538   -562.40821    142797.74   -39624.244    2664.8706   -42289.114     33.26546    224.11855 
    6300    134.93356    -544.2133    142788.78   -39626.404    2714.5241   -42340.928     33.28977    228.29446 
    6350    135.75981   -527.13025    142755.61   -39573.882    2731.1462   -42305.029    33.547818    229.69239 
    6400    135.11976   -609.13673    142725.46   -39523.096    2718.2699   -42241.366    33.818229    228.60948 
    6450    133.63204   -587.44854    142666.46   -39594.305    2688.3408   -42282.646    34.035092    226.09241 
    6500    135.91484   -452.25483    142656.11   -39539.926     2734.265   -42274.191    34.205384    229.95469 
    6550    135.48159   -365.12647    142690.34   -39555.826    2725.5491   -42281.375    34.464624    229.22167 
    6600    136.70828   -546.50183    142561.48   -39578.637    2750.2271   -42328.864    34.589747    231.29712 
    6650    135.78443   -533.86576    142542.88   -39579.466    2731.6415   -42311.107     34.66834    229.73405 
    6700    134.01189   -639.72915    142563.07   -39595.831    2695.9825   -42291.814    35.014165    226.73509 
    6750    134.48326   -448.54384    142539.83   -39580.079    2705.4652   -42285.544    35.306749    227.53259 
    6800    133.40542   -579.13096    142542.88   -39575.333    2683.7817   -42259.115    35.474055    225.70899 
    6850    135.05244   -556.09659    142521.48   -39562.055    2716.9157   -42278.971    35.690288    228.49559 
    6900     133.1567   -523.74438    142451.78   -39610.458    2678.7782   -42289.237    35.887823    225.28818 
    6950    133.93738   -629.49409    142452.16   -39642.626    2694.4835   -42337.109    36.108378    226.60902 
    7000    131.36335   -436.58844    142395.45   -39631.673    2642.7005   -42274.374    36.357941    222.25401 
    7050    130.53374   -604.67431    142435.69   -39593.592    2626.0107   -42219.603    36.675572    220.85038 
    7100    134.40468   -458.31451     142388.1   -39557.753    2703.8844   -42261.638     36.92142    227.39964 
    7150    135.15467   -585.40072    142447.18   -39544.484    2718.9724   -42263.456    36.988218    228.66856 
    7200    134.84673   -355.61631    142431.73   -39588.952    2712.7773   -42301.729    37.090168    228.14755 
    7250    134.23314    -630.5796    142448.07   -39568.929    2700.4335   -42269.362    37.294926    227.10942 
    7300    132.77352   -524.80684    142331.69   -39585.408    2671.0695   -42256.478    37.393465    224.63988 
    7350    134.22682   -554.85144    142379.15   -39574.193    2700.3063   -42274.499    37.697994    227.09872 
    7400    131.02265   -572.28542    142335.73    -39563.23    2635.8465   -42199.077     37.96104    221.67759 
    7450     135.6764   -445.00874    142341.71   -39503.666    2729.4682   -42233.134    38.093791    229.55127 
    7500    131.20778   -514.79852    142318.37   -39625.574    2639.5708   -42265.145    38.128962     221.9908 
    7550    132.63973   -655.38733    142356.32   -39596.787    2668.3781   -42265.165    38.194277    224.41353 
    7600    133.11502   -749.28415    142159.69   -39561.928    2677.9398   -42239.867    38.384192    225.21767 
    7650    132.94417    -446.5678    142129.32   -39562.679    2674.5027   -42237.182    38.670705    224.92861 
    7700    135.07226   -491.78862    142139.28   -39522.259    2717.3145   -42239.573    38.896206    228.52913 
    7750    132.34678   -673.28779    142164.86   -39590.215    2662.4846     -42252.7    39.160768    223.91788 
    7800    132.03897   -385.04651    142150.34   -39585.116    2656.2922   -42241.408    39.456604    223.39709 
    7850    133.03051   -504.40245    142327.83   -39570.014    2676.2396   -42246.254    39.537906    225.07468 
    7900    134.44363    -620.1293    142359.77   -39588.909     2704.668   -42293.577    39.583764    227.46554 
    7950    132.64109   -486.41553    142249.53   -39632.564    2668.4054   -42300.969    39.737998    224.41583 
    8000    134.08143   -480.44638    142247.04   -39595.728    2697.3814   -42293.109    39.763255    226.85273 
    8050    131.52795   -587.79801    142216.58   -39623.391    2646.0118   -42269.403    40.150788     222.5325 
    8100    131.08826   -506.08491    142140.99   -39614.013    2637.1664   -42251.179    40.352324    221.78859 
    8150    134.22814   -556.15331    142142.93   -39598.743    2700.3329   -42299.075    40.620851    227.10096 
    8200    131.37277   -619.16512    142053.86   -39597.197      2642.89   -42240.087    40.887095    222.26995 
    8250    133.23044   -294.51772    142098.57    -39579.78    2680.2617   -42260.042     40.91683    225.41295 
    8300    135.27126   -385.95447    142265.83   -39530.073    2721.3178    -42251.39    40.889035    228.86581 
    8350    136.07699   -477.68638    142339.14   -39515.117     2737.527   -42252.644    41.121731    230.22903 
    8400    133.32403   -623.62538    142133.19   -39557.535    2682.1444   -42239.679    41.311935    225.57129 
    8450    136.57894   -509.72679    142242.21   -39547.025     2747.625    -42294.65    41.362811    231.07828 
    8500    132.92241   -573.00841    142157.62   -39567.612    2674.0649   -42241.677     41.52453    224.89179 
    8550    135.33851   -534.29067    142068.41   -39593.954    2722.6706   -42316.624    41.622337    228.97959 
    8600    132.19051   -469.76002    142094.84   -39593.596    2659.3408   -42252.937    41.915038    223.65348 
    8650    131.46484    -410.2477     142071.3   -39639.419    2644.7421   -42284.161    42.142794    222.42572 
    8700    129.12246   -534.85463    142082.26   -39620.639    2597.6194   -42218.259    42.243037    218.46264 
    8750    127.68705   -496.08907    142093.12    -39630.69    2568.7426   -42199.433    42.469121    216.03407 
    8800     131.4371   -499.21256    141979.41   -39607.898    2644.1841   -42252.082    42.673075    222.37879 
    8850    133.11227   -441.03819    142037.45     -39583.8    2677.8844   -42261.684    42.800151    225.21301 
    8900    128.76729   -523.02786     141984.1   -39605.179    2590.4743   -42195.653    42.992797    217.86173 
    8950    129.76833   -583.54443    141843.15   -39628.165    2610.6127   -42238.777    43.154777    219.55539 
    9000    131.79409   -453.01082    141620.29   -39646.509    2651.3659   -42297.875    43.229394    222.98278 
    9050    131.21813   -404.63276    141768.94   -39651.549    2639.7791   -42291.328    43.254822    222.00832 
    9100      129.906   -477.30254    141792.18   -39660.087    2613.3823    -42273.47    43.461832    219.78832 
    9150    133.00297    -514.1227    141753.93   -39635.061    2675.6855   -42310.747    43.946438    225.02808 
    9200    129.96892   -507.15667    141866.13   -39627.426    2614.6481   -42242.074    44.183208    219.89478 
    9250    131.72661   -547.94795    141961.73   -39608.268    2650.0084   -42258.276    44.484754    222.86862 
    9300    134.69868   -418.48409    141864.45   -39572.818     2709.799   -42282.617    44.624892    227.89707 
    9350    132.51093   -479.63945    141910.05   -39519.693     2665.787   -42185.479    44.820136    224.19561 
    9400    131.62671   -450.11824    142040.02   -39565.399    2647.9986   -42213.398    44.892144    222.69959 
    9450    130.90183   -533.42217    142104.53   -39578.417    2633.4158   -42211.833    44.882752    221.47316 
    9500    128.65124    -459.6414    142207.65    -39577.41    2588.1397    -42165.55    45.136656    217.66539 
    9550    132.32394   -538.05498    142176.37   -39577.347    2662.0251   -42239.372    45.160693    223.87923 
    9600    134.94591   -581.12791    142086.17   -39607.097    2714.7726   -42321.869    45.249611    228.31535 
    9650    133.19224   -567.08077     141955.3   -39568.904    2679.4931   -42248.397    45.291405    225.34831 
    9700    133.98728   -467.32964    141974.57   -39549.383    2695.4873    -42244.87    45.510948    226.69344 
    9750    134.02849   -385.45906    142164.18   -39595.104    2696.3163    -42291.42    45.835834    226.76316 
    9800    131.55919   -512.33589    142162.62   -39593.073    2646.6403   -42239.713     45.98634    222.58536 
    9850    130.60487   -515.27091     142170.7   -39585.121    2627.4417   -42212.563    46.092901    220.97073 
    9900    131.38812    -485.6207    142098.95   -39583.927    2643.1987   -42227.126    46.328485    222.29591 
    9950    130.51555   -294.29799    142088.27   -39567.216    2625.6449   -42192.861    46.553727    220.81962 
   10000    132.55879   -415.29678    142369.13   -39581.037    2666.7497   -42247.787    46.773856    224.27657 
   10050    130.60399   -547.71919    142343.13   -39573.977    2627.4241   -42201.401    46.999513    220.96925 
   10100    134.02132   -545.02067    142249.14   -39584.437    2696.1723   -42280.609    47.097777    226.75105 
   10150    131.33106   -533.28346    142293.71   -39663.505     2642.051   -42305.556    47.357755    222.19939 
   10200     131.4927   -531.16389    142223.28   -39646.531    2645.3027   -42291.834    47.766583    222.47286 
   10250    131.25826   -614.76922    142055.83   -39643.393    2640.5864   -42283.979    48.205836    222.07621 
   10300    132.26034    -357.4759    142086.78   -39607.291    2660.7457   -42268.037    48.286661    223.77164 
   10350    130.31191   -414.56629    142300.35   -39570.944    2621.5481   -42192.492    48.472668    220.47507 
   10400    132.93357   -521.08611    142269.24   -39565.799    2674.2893   -42240.089    48.648126    224.91067 
   10450    135.04218   -364.78194    142304.74   -39564.668    2716.7092   -42281.377    48.717643    228.47823 
   10500     134.3408   -437.85014    142429.12   -39563.176    2702.5993   -42265.775    48.934151    227.29156 
   10550     132.2804   -468.65532    142410.54    -39586.95    2661.1493     -42248.1    49.361596    223.80557 
   10600    135.36501   -601.18224    142421.68    -39594.04    2723.2037   -42317.243    49.621149    229.02442 
   10650    133.15629   -528.19339    142352.86   -39593.799      2678.77   -42272.569    49.721593    225.28749 
   10700    134.70193   -627.51457    142301.23    -39549.65    2709.8644   -42259.514    49.950527    227.90257 
   10750    132.89072   -472.33585    142289.46   -39558.865    2673.4274   -42232.292    50.028082    224.83818 
   10800    132.52642   -494.34859    142345.38   -39545.154    2666.0986   -42211.253    50.023918    224.22181 
   10850    133.63035   -591.52159     142225.8   -39574.001    2688.3067   -42262.308    50.387343    226.08955 
   10900    133.91252   -544.65949    142183.65   -39562.131    2693.9833   -42256.114    50.546391    226.56695 
   10950    132.98712   -449.57372    142322.68   -39556.782    2675.3666   -42232.149    50.697426    225.00126 
   11000    133.62487   -594.37689     142233.2   -39559.681    2688.1966   -42247.877    50.876189    226.08028 
   11050    134.77286    -628.9589    142127.93   -39600.432    2711.2912   -42311.723    51.141138    228.02256 
   11100    134.37889    -425.3219    142092.29   -39573.313    2703.3656   -42276.678    51.416369    227.35602 
   11150    136.63636   -479.31896    142093.21   -39566.767    2748.7801   -42315.547    51.642938    231.17542 
   11200     135.3459   -501.98131    142158.49   -39562.943    2722.8194   -42285.763    51.789413     228.9921 
   11250    133.93968   -483.54018     142180.8   -39527.058    2694.5298   -42221.588    51.966292    226.61291 
   11300     134.5031   -489.96198     141992.7   -39495.658    2705.8644   -42201.523     52.28947    227.56617 
   11350    132.40849   -443.08476    141807.27    -39576.08     2663.726   -42239.806    52.489929    224.02228 
   11400    132.16633   -336.72999    141799.99   -39572.521    2658.8545   -42231.375    52.680816    223.61258 
   11450    133.34599   -472.34583    141895.66   -39516.363    2682.5863   -42198.949     52.94725    225.60845 
   11500    135.82826   -500.68899    141864.81    -39579.25    2732.5233   -42311.773    53.339012    229.80821 
   11550    134.00353   -440.40984    141888.32   -39551.335    2695.8143    -42247.15    53.497232    226.72094 
   11600    133.15681   -572.81051    141735.53   -39579.298    2678.7804   -42258.079    53.750547    225.28837 
   11650    135.04402   -573.87111    141762.71   -39592.249    2716.7464   -42308.996    53.940668    228.48135 
   11700    135.05161   -275.22973       141859   -39557.907     2716.899   -42274.806    54.176205    228.49419 
   11750    134.54606    -569.3372     141896.1   -39569.099    2706.7286   -42275.827    54.468179    227.63885 
   11800    131.01402   -581.25005    141854.99   -39583.309    2635.6728   -42218.982    54.611236    221.66297 
   11850    133.39653   -566.77118    141640.08   -39571.396    2683.6029   -42254.998    54.867476    225.69395 
   11900    131.91232    -564.0276    141598.59   -39561.368    2653.7445   -42215.113    55.006904    223.18282 
   11950    132.19108   -402.46488    141756.61   -39582.657    2659.3524    -42242.01    55.117949    223.65446 
   12000    132.82837   -487.70977    141673.88   -39564.672    2672.1731   -42236.845    55.447603    224.73269 
   12050    132.74143   -409.94995    141798.43   -39580.885     2670.424   -42251.309    55.591249    224.58559 
   12100      133.286   -486.10773    141779.65   -39605.497    2681.3795   -42286.877    55.760313    225.50696 
   12150    134.37392   -384.81544    141894.54   -39622.572    2703.2656   -42325.838      55.8305    227.34761 
   12200    132.79936    -593.2486    141926.25   -39658.124    2671.5895   -42329.713    56.243104    224.68361 
   12250    131.69755   -530.29804     141824.4   -39631.225    2649.4237   -42280.649    56.400146    222.81944 
   12300    131.78167   -426.49003    141826.37   -39609.064     2651.116   -42260.181    56.619803    222.96177 
   12350    134.11078   -544.86552    141942.87   -39623.227    2697.9718   -42321.199    56.888063    226.90239 
   12400    134.46768   -532.95301    141787.04   -39569.816    2705.1517   -42274.968      56.8806    227.50623 
   12450    132.79907   -508.00931     141882.2   -39576.988    2671.5835   -42248.571    57.071813     224.6831 
   12500    133.74473   -541.68927    141960.56   -39584.226     2690.608   -42274.834    57.279062    226.28308 
   12550    134.31574   -505.36901    141998.77   -39554.825    2702.0952    -42256.92    57.393058    227.24917 
   12600    131.23063   -573.72758    142015.14   -39637.206    2640.0305   -42277.237     57.55034    222.02947 
   12650    132.38427   -455.88165    142005.43   -39614.705    2663.2388   -42277.944    57.839266    223.98131 
   12700    133.05341   -478.39833    142101.38   -39593.341    2676.7002   -42270.041    57.950174    225.11342 
   12750    129.95381   -318.02526    142078.98   -39577.084     2614.344   -42191.428    58.058389     219.8692 
   12800    133.34135   -591.28862    142090.25   -39569.567    2682.4928    -42252.06    58.266304    225.60059 
   12850    132.54188    -451.6511    142051.02   -39588.552    2666.4095   -42254.961    58.652931    224.24796 
   12900    134.14024   -427.54224    141954.16   -39575.577    2698.5646   -42274.141    58.993573    226.95224 
   12950    130.48091   -708.03722    141824.56   -39591.079     2624.948   -42216.027    59.113866    220.76101 
   13000    132.32782   -383.85388    141690.99   -39581.468    2662.1032   -42243.571    59.450697     223.8858 
   13050    133.76009   -686.10562    141678.56   -39578.185    2690.9169   -42269.102    59.656799    226.30907 
   13100    129.87764   -366.25551    141601.99   -39576.208    2612.8117    -42189.02    60.053044    219.74033 
   13150    135.03285   -432.81518     141579.4   -39542.949    2716.5216    -42259.47     60.41257    228.46244 
   13200    132.55004    -580.2396    141474.61   -39576.515    2666.5737   -42243.088    60.655335    224.26178 
   13250     131.2644    -613.1268    141456.94   -39553.324    2640.7099   -42194.034    60.809644     222.0866 
   13300    131.47118   -408.18863    141298.49   -39529.732    2644.8697   -42174.602    61.094768    222.43645 
   13350    132.14495   -419.71186    141295.29   -39527.294    2658.4243   -42185.719    61.454806     223.5764 
   13400    134.20015   -476.78215    141397.42   -39504.999    2699.7698   -42204.769    61.770399    227.05361 
   13450    133.10579   -411.59021    141492.13   -39561.872     2677.754   -42239.626    62.131801    225.20205 
   13500    134.30979    -622.8573    141584.04    -39525.35    2701.9755   -42227.325    62.495227     227.2391 
   13550    134.35397   -373.49193    141593.62   -39541.498    2702.8642   -42244.362    62.680749    227.31384 
   13600    131.88737   -347.48324    141680.39   -39520.675    2653.2425   -42173.918    63.055894    223.14061 
   13650    135.26879   -648.39778    141727.96   -39486.965    2721.2681   -42208.233    63.304055    228.86163 
   13700    132.70969   -443.82807    141727.91   -39546.338    2669.7854   -42216.123    63.406627    224.53188 
   13750    133.02856   -459.65969    141669.95   -39535.624    2676.2003   -42211.824    63.640836    225.07138 
   13800    131.39844   -414.04794    141764.48   -39526.031    2643.4065   -42169.437    63.839366    222.31338 
   13850    136.17501    -428.8731    141847.51   -39509.401     2739.499     -42248.9    64.128418    230.39487 
   13900    133.69653   -561.94615    141880.92    -39535.77    2689.6383   -42225.409    64.595416    226.20153 
   13950    132.03871   -619.55293    141891.76   -39566.861    2656.2871   -42223.148    64.832407    223.39666 
   14000    130.69087   -626.39806    141754.91   -39572.963    2629.1718   -42202.135    65.057575    221.11624 
   14050    133.79411   -382.26015    141771.72   -39528.603    2691.6013   -42220.205    65.295547    226.36662 
   14100    132.75563    -487.7222    141738.87   -39591.735    2670.7097   -42262.444    65.633269    224.60961 
   14150    132.60201   -462.04222    141884.57   -39608.458    2667.6193   -42276.077     65.84299    224.34971 
   14200    132.47307   -612.31734    141939.39    -39616.92    2665.0253   -42281.945    65.977536    224.13155 
   14250    132.24118   -562.86837    141973.84   -39641.899    2660.3602    -42302.26    66.075131    223.73921 
   14300    132.30464   -591.03794    141995.82   -39610.698     2661.637   -42272.335    66.306976    223.84659 
   14350     130.4451   -503.38556    141900.83   -39630.677    2624.2276   -42254.904    66.401082    220.70042 
   14400    130.27424   -517.31977     141836.1   -39650.009    2620.7904   -42270.799    66.588688    220.41135 
   14450     132.4386   -438.47297     141951.6   -39608.188    2664.3318    -42272.52    66.736059    224.07323 
   14500    132.71975   -366.51015    142131.78   -39606.715    2669.9879   -42276.703    67.006381    224.54891 
   14550    132.15802   -454.84777    142185.33    -39554.47    2658.6872   -42213.158    67.114549    223.59851 
   14600    133.17998     -361.903    142252.49    -39511.22    2679.2464   -42190.466    67.379305    225.32756 
   14650    132.04854   -582.55342    142383.64   -39509.551    2656.4848   -42166.036    67.635428    223.41328 
   14700    134.20592   -599.74789    142273.35       -39512    2699.8859   -42211.886    67.763271    227.06336 
   14750    133.93598   -589.77762    142097.82   -39537.887    2694.4554   -42232.343    68.116981    226.60666 
   14800    131.93944   -470.26576    141955.82   -39595.516      2654.29   -42249.806    68.208234     223.2287 
   14850    132.99335   -598.32897    141971.31   -39629.087     2675.492   -42304.579    68.236461    225.01181 
   14900    131.46514    -476.1862    141901.26   -39631.272    2644.7482    -42276.02    68.219916    222.42623 
   14950    130.66867   -556.87509    141840.77   -39632.616    2628.7253   -42261.341      68.2994    221.07868 
   15000    133.55258   -470.36751    141943.69   -39606.231    2686.7423   -42292.974     68.63116    225.95798 
   15050    131.15033   -498.35838    141901.14   -39637.424    2638.4151   -42275.839    69.046783    221.89361 
   15100    128.43685   -576.61529    141887.29   -39672.279    2583.8266   -42256.106    69.159438    217.30265 
   15150    127.77396   -438.94886    141765.27   -39653.534    2570.4909   -42224.025    69.524952    216.18111 
   15200    128.04932   -412.13639    141787.88   -39680.313    2576.0305   -42256.344    69.580341    216.64699 
   15250    130.40878   -602.87595     141811.3   -39696.249     2623.497   -42319.747    69.790856    220.63898 
   15300    130.85193   -369.43743    141865.31   -39682.809     2632.412   -42315.221    70.050397    221.38874 
   15350    131.19556   -467.89038    141914.57   -39656.311     2639.325   -42295.636    70.581094    221.97013 
   15400    129.45801   -581.84468    141836.64   -39625.468    2604.3699   -42229.838    70.743369    219.03037 
   15450    130.28986   -432.52756    141694.38   -39605.303    2621.1046   -42226.408    70.721186    220.43778 
   15500    131.84144   -467.05358    141870.68   -39548.944    2652.3184   -42201.262    70.972391    223.06289 
   15550    132.60424   -567.73316     141876.7   -39562.867    2667.6641   -42230.531    71.330609    224.35348 
   15600    132.42219   -393.00754     141868.9   -39550.256    2664.0017   -42214.257    71.788705    224.04547 
   15650    133.27315   -380.71716    141940.89   -39471.469    2681.1209    -42152.59     72.13731    225.48521 
   15700    134.52237   -386.89879    142000.92   -39500.327    2706.2521   -42206.579    72.515492    227.59877 
   15750    135.19449   -660.84296    141920.72    -39493.66    2719.7733   -42213.433    72.861448    228.73592 
   15800    135.08619   -467.40771    141884.23   -39507.567    2717.5946   -42225.161    72.961711    228.55269 
   15850     131.7636   -672.70191    141842.05    -39534.62    2650.7525   -42185.372    73.225832    222.93119 
   15900    133.27858   -481.96486    141627.24   -39530.217    2681.2301   -42211.447    73.568022    225.49439 
   15950    133.27793    -557.1663    141682.99   -39526.924     2681.217   -42208.141    73.810248    225.49329 
   16000     134.1327   -518.88205    141698.75   -39553.265    2698.4129   -42251.678    74.114766    226.93949 
   16050    134.97159    -614.8946    141530.57   -39610.683    2715.2892   -42325.972    74.425778     228.3588 
   16100    133.35246   -455.06871    141481.34   -39623.631    2682.7164   -42306.347    74.563675    225.61939 
   16150    129.85487   -445.85869    141648.29   -39668.822    2612.3536   -42281.176    74.675679    219.70181 
   16200    131.70691   -540.27783    141547.66   -39666.597     2649.612   -42316.209    74.819517    222.83527 
   16250    130.11335   -498.09222    141436.25   -39718.798    2617.5537   -42336.352    74.883472    220.13914 
   16300    131.15095   -522.65569    141491.24   -39730.145    2638.4276   -42368.573    75.044977    221.89466 
   16350    130.93578   -509.50898    141437.32   -39666.624    2634.0988   -42300.723    75.313602     221.5306 
   16400    130.80478   -364.03289    141573.01   -39645.973    2631.4635   -42277.436      75.6859    221.30896 
   16450    131.63702   -583.40435    141637.81   -39643.968     2648.206   -42292.174    75.967314    222.71703 
   16500    131.87436   -468.09842    141587.16   -39572.032    2652.9806   -42225.013    76.158713    223.11858 
   16550    135.22934   -480.73854    141577.25   -39506.134    2720.4744   -42226.608     76.48602    228.79488 
   16600     130.9217   -445.33598    141613.43   -39553.055    2633.8156   -42186.871    76.527597    221.50678 
   16650    133.88387   -295.76133    141623.99   -39497.522    2693.4069   -42190.929     76.96315    226.51848 
   16700    130.71187   -413.19176    141783.21   -39528.593    2629.5943   -42158.187    77.304503    221.15177 
   16750     132.1243   -443.58908     141798.4   -39549.991    2658.0088   -42207.999     77.58673    223.54146 
   16800    133.89943   -544.67753       141660   -39566.985    2693.7201   -42260.706    77.706919    226.54482 
   16850    131.06148   -384.78574    141575.76   -39545.641    2636.6277   -42182.268    78.057744    221.74328 
   16900    134.34155   -353.55423    141584.44   -39572.336    2702.6143   -42274.951    78.265867    227.29283 
   16950    134.59997   -551.68435    141743.25   -39555.837    2707.8131    -42263.65    78.467989    227.73005 
   17000    133.59762   -437.07477    141857.03   -39570.846    2687.6485   -42258.495    78.778759    226.03418 
   17050    132.70354   -512.70063    141872.73   -39529.508    2669.6617   -42199.169    79.037577    224.52148 
   17100    134.45649   -412.05503    141809.92   -39494.842    2704.9268   -42199.769    79.185642    227.48731 
   17150     134.0934   -496.53214    141889.98   -39491.418    2697.6222    -42189.04    79.439945    226.87299 
   17200    134.06558   -497.75114    141890.11   -39506.876    2697.0627   -42203.938    79.746931    226.82593 
   17250    132.27915    -427.0742    141969.02   -39507.361     2661.124   -42168.485    79.924267    223.80345 
   17300    132.93275   -545.19624    142024.04   -39482.902    2674.2728   -42157.174    79.893769    224.90928 
   17350    134.26396    -556.7827    141949.47    -39469.07    2701.0536   -42170.124    80.136629    227.16157 
   17400    130.87543   -648.22149    141750.94   -39512.408    2632.8847   -42145.292     80.26789    221.42849 
   17450    131.02717   -365.04501     141692.1   -39537.145    2635.9374   -42173.082    80.327891    221.68523 
   17500    135.03516   -453.50796    141760.09   -39522.122    2716.5682    -42238.69    80.365789    228.46636 
   17550    134.72254   -461.71239    141775.41   -39480.881    2710.2789    -42191.16     80.28803    227.93743 
   17600    134.97823   -521.57847    141801.11   -39479.975    2715.4227   -42195.398     80.59554    228.37003 
   17650    134.58867   -503.75026    141581.82   -39480.589    2707.5857   -42188.174    80.692977    227.71093 
   17700    130.25931   -595.19923    141464.32   -39520.178    2620.4899   -42140.668    80.635124    220.38608 
   17750    131.43092   -360.32091    141546.15   -39546.633    2644.0598   -42190.693    80.776087    222.36833 
   17800    133.20826    -574.5979    141693.57   -39491.874    2679.8154   -42171.689    81.182196    225.37541 
   17850     133.6161   -366.47057    141670.52   -39541.936    2688.0202   -42229.956    81.512081    226.06545 
   17900    132.14196    -713.7249    141663.18   -39580.793    2658.3642   -42239.157    81.988732    223.57135 
   17950    131.60817   -525.77475    141563.04   -39597.664    2647.6257   -42245.289    82.260428    222.66823 
   18000    133.00019   -607.87474    141621.53   -39578.362    2675.6297   -42253.991    82.445941    225.02339 
   18050    128.79108   -527.83638    141476.73   -39621.515    2590.9529   -42212.468    82.802937    217.90198 
   18100    132.23118   -572.36613    141487.95   -39642.935     2660.159   -42303.094    83.254183    223.72229 
   18150    132.22124   -496.24275    141635.15   -39567.567     2659.959   -42227.526    83.565122    223.70547 
   18200    133.18461   -627.88898    141385.84   -39611.153    2679.3396   -42290.492    83.454195     225.3354 
   18250    133.70672   -477.94241    141383.88   -39600.975    2689.8432   -42290.818    83.563895    226.21876 
   18300     134.7991   -479.22126    141446.88   -39576.066    2711.8191   -42287.885    83.735524    228.06696 
   18350    133.75083   -519.70412    141476.02   -39591.851    2690.7307   -42282.582    83.740059     226.2934 
   18400    132.77416    -561.6405    141551.68   -39582.456    2671.0825   -42253.538    83.917827    224.64097 
   18450    132.60196   -450.44481    141828.16   -39580.244    2667.6182   -42247.862    84.217145    224.34962 
   18500    131.77331   -434.84303    141892.08   -39620.829    2650.9479   -42271.777    84.277382    222.94763 
   18550    131.30927   -470.16886    141839.85   -39607.074    2641.6126   -42248.687    84.444832    222.16252 
   18600    130.79149   -466.37867    141872.61   -39612.156    2631.1961   -42243.353    84.758133    221.28648 
   18650    132.16199    -454.2804    141936.59   -39565.676    2658.7671   -42224.443    84.739297    223.60523 
   18700    131.99364    -597.9639    141832.61   -39562.184    2655.3803   -42217.565    85.006106     223.3204 
   18750    135.51372   -531.48781    141840.58    -39533.52    2726.1956   -42259.715    85.186754    229.27604 
   18800    131.02511   -444.66264    141809.79   -39539.274    2635.8959    -42175.17    85.345301    221.68174 
   18850    134.22783   -572.01368    141702.01   -39508.228    2700.3266   -42208.554    85.649745    227.10043 
   18900    132.30222   -496.81554    141657.28   -39515.838    2661.5882   -42177.426    85.881034    223.84249 
   18950    133.70496    -298.9469    141752.74   -39487.268    2689.8079   -42177.076    86.222189    226.21579 
   19000    131.75196   -579.02585     141841.2   -39518.698    2650.5184   -42169.216    86.231777     222.9115 
   19050    134.78632   -566.99599    141725.94    -39509.96     2711.562   -42221.522    86.210546    228.04534 
   19100    130.99764   -504.37191    141742.13   -39551.451    2635.3433   -42186.795    86.520344    221.63526 
   19150    131.90498   -583.66833    141641.09   -39498.829    2653.5967   -42152.426    86.688122     223.1704 
   19200    133.55752   -512.06481    141525.83    -39500.56    2686.8416   -42187.401    87.005722    225.96633 
   19250    133.41767   -315.26886    141715.68   -39469.673    2684.0282   -42153.701    87.098987    225.72972 
   19300    134.37389    -499.2952     141758.7   -39465.518    2703.2651   -42168.783    87.384241    227.34756 
   19350    135.13587   -235.29952    141936.82   -39406.913     2718.594   -42125.507    87.806328    228.63674 
   19400    134.43455    -467.5715    142007.54   -39430.289    2704.4854   -42134.775    88.176068    227.45019 
   19450    135.52139   -670.95168    141918.07   -39429.895    2726.3498   -42156.245    88.765066    229.28901 
   19500    134.66757   -584.76041    141635.15   -39434.677    2709.1731   -42143.851    89.021699    227.84443 
   19550    135.04436   -554.60899    141619.79    -39428.72    2716.7531   -42145.473    89.111188    228.48192 
   19600    134.82718   -487.80577    141743.32   -39382.051    2712.3841   -42094.435    89.349592    228.11448 
   19650    134.59533   -356.07346    141772.68   -39393.526    2707.7199   -42101.246    89.406921    227.72221 
   19700    137.09969   -433.49458    141918.76   -39359.917    2758.1013   -42118.018    89.672068    231.95935 
   19750    133.81471   -472.49771    141937.36   -39365.556    2692.0157   -42057.571    89.833673    226.40147 
   19800    135.07591   -536.96145    142030.03   -39406.659    2717.3879   -42124.047    90.063599     228.5353 
   19850    135.70582   -538.89007    141841.98   -39419.592    2730.0601   -42149.652    90.155716    229.60105 
   19900    136.04274   -599.12172    141843.94   -39468.819    2736.8381   -42205.657    90.631902    230.17109 
   19950    134.28612   -665.20889    141795.57    -39512.22    2701.4994   -42213.719    90.808396    227.19906 
   20000    132.76419    -419.0058    141812.52   -39524.672    2670.8819   -42195.553    90.858986     224.6241 
   20050    133.34812   -304.12789    141917.84   -39509.201     2682.629    -42191.83    90.834448    225.61204 
   20100    134.37168   -429.33702    142145.22   -39529.608    2703.2205   -42232.829    90.997246    227.34381 
   20150    132.13759   -532.03629    142097.52   -39574.771    2658.2763   -42233.047    90.991052    223.56395 
   20200    133.88111   -505.96117    142091.17   -39548.845    2693.3515   -42242.197    90.968832    226.51382 
   20250    133.35358   -609.56862    142158.42   -39558.516     2682.739   -42241.255    91.160694    225.62129 
   20300    132.08838   -468.65629    142141.28   -39554.309    2657.2862   -42211.595    91.200548    223.48069 
   20350    132.47846    -513.4541    142025.73   -39596.504    2665.1338   -42261.638    91.271854    224.14067 
   20400    134.69297   -638.74418    141938.49   -39605.542    2709.6841   -42315.226    91.504027    227.88741 
   20450    129.98923   -311.68443     141890.4   -39581.294    2615.0567   -42196.351    91.758319    219.92914 
   20500    134.92753   -489.68819    142061.05   -39530.155    2714.4029   -42244.558    92.240304    228.28426 
   20550    133.86944   -473.72226    142061.11   -39492.584    2693.1167     -42185.7    92.644044    226.49407 
   20600    136.23829   -242.35455    142337.55   -39506.175    2740.7721   -42246.948    92.746658    230.50194 
   20650    133.92211    -592.6572    142262.01   -39475.212    2694.1763   -42169.388    92.971508    226.58318 
   20700    135.59096   -534.18934    142294.76   -39435.565    2727.7493   -42163.315    93.237728    229.40671 
   20750    135.24098   -480.32515    142269.65   -39498.922    2720.7086    -42219.63    93.689483    228.81458 
   20800    134.18296   -459.41314    142284.11   -39473.829    2699.4239   -42173.253    93.962693    227.02451 
   20850    134.63833   -414.37848    142231.19   -39468.237    2708.5849   -42176.822    94.239133    227.79497 
   20900    136.59826   -625.59229    142260.51   -39450.699    2748.0138   -42198.713    94.418676    231.11098 
   20950    134.62376   -558.28556    142190.03   -39466.627    2708.2917   -42174.919    94.588243     227.7703 
   21000     134.6051   -449.10222    142138.77   -39464.381    2707.9163   -42172.297     94.66877    227.73873 
   21050    134.50066   -431.05213    142286.28   -39511.527    2705.8154   -42217.342    95.146384    227.56204 
   21100     133.9965   -368.76476    142380.67   -39500.733    2695.6728   -42196.406    95.302999    226.70904 
   21150    133.20243   -453.75229    142394.93   -39508.798    2679.6982   -42188.497    95.484722    225.36556 
   21200    132.83006   -407.93933    142525.47   -39521.693    2672.2069     -42193.9     95.85352    224.73554 
   21250    132.09244   -633.77998    142414.13   -39549.046    2657.3679   -42206.414    96.150823    223.48756 
   21300    130.63923   -514.54083    142371.98   -39568.137    2628.1331    -42196.27    96.752881    221.02888 
   21350    130.54513   -673.59669    142185.71   -39612.046      2626.24   -42238.286    97.031168    220.86966 
   21400    132.68038   -466.74936    142097.74    -39586.19    2669.1957   -42255.386    97.350006    224.48229 
   21450    132.77785   -437.50239    142208.95   -39568.356    2671.1567   -42239.513    97.783024    224.64721 
   21500    132.95796   -450.03189    142295.48   -39589.715    2674.7801   -42264.495    98.128246    224.95194 
   21550    134.35448   -496.24398    142340.37   -39574.254    2702.8745   -42277.128    98.403766    227.31471 
   21600    130.17885   -480.10987    142282.34   -39615.174    2618.8712   -42234.045    98.540338    220.24994 
   21650    131.30501   -429.52379    142327.46   -39603.194    2641.5268   -42244.721    98.895803     222.1553 
   21700    130.80693   -652.20615    142313.28   -39646.839    2631.5066   -42278.346    99.228171     221.3126 
   21750    131.62089   -618.47849    142157.69   -39677.112    2647.8816   -42324.993    99.355351    222.68975 
   21800    131.96789   -407.21959    142263.34   -39701.024    2654.8623   -42355.886    99.484317    223.27683 
   21850    130.56008   -528.69402    142225.05   -39636.099    2626.5407    -42262.64    99.711223    220.89495 
   21900    132.53078   -491.86664    142294.97   -39641.018    2666.1863   -42307.204    99.598094    224.22919 
   21950     132.4291   -457.10836    142286.09   -39654.243    2664.1407   -42318.383    99.753198    224.05716 
   22000    127.39519   -405.40106    142216.99   -39693.415     2562.871   -42256.286    99.722619    215.54027 
   22050    134.62939   -612.40533    142174.23   -39639.166     2708.405   -42347.571    99.749546    227.77983 
   22100    131.69628   -550.16966    142119.74   -39643.255    2649.3982   -42292.653    100.07108    222.81729 
   22150    134.01804   -594.20698       142149   -39621.289    2696.1062   -42317.395    100.32953    226.74549 
   22200    130.79108   -449.64058    142184.78   -39598.795    2631.1878   -42229.983    100.26587    221.28579 
   22250     131.9556   -591.59148    142191.48   -39635.217    2654.6151   -42289.832    100.56381    223.25604 
   22300     131.0313   -479.22302       142419   -39621.097    2636.0204   -42257.118    100.89709    221.69221 
   22350    134.82174   -560.86795    142321.81   -39558.807    2712.2746   -42271.081    101.11488    228.10527 
   22400    132.38786   -641.19278    142205.43   -39621.885    2663.3111   -42285.196    101.32713    223.98738 
   22450     133.6521   -525.32822    142190.95   -39608.696    2688.7445    -42297.44    101.53122    226.12636 
   22500    132.35568   -441.84512    142258.21   -39603.287    2662.6636   -42265.951    102.00802    223.93293 
   22550    132.47767   -449.34186    142289.67   -39564.307    2665.1179   -42229.425    102.39008    224.13934 
   22600    133.04444   -474.40047    142250.45   -39574.042    2676.5198   -42250.562     102.8349    225.09825 
   22650    134.28924   -580.15525     142253.4   -39572.911     2701.562   -42274.473    103.14167    227.20433 
   22700    129.54763   -394.22417    142134.78   -39609.746    2606.1728   -42215.919    103.54463    219.18199 
   22750    131.45448   -488.87112    142209.19   -39643.639    2644.5337   -42288.173    104.00472    222.40819 
   22800    131.26823   -376.06932    142332.98   -39608.523    2640.7869    -42249.31    104.38205    222.09307 
   22850    132.37352    -519.6313    142233.75   -39627.171    2663.0226   -42290.193     104.5623    223.96312 
   22900    130.38402   -560.37524    142246.42   -39656.721    2622.9988   -42279.719    104.62109    220.59707 
   22950    132.66078   -438.66092    142250.27   -39620.046    2668.8015   -42288.847    104.68868    224.44914 
   23000    134.33826   -607.45314    142252.31   -39634.772    2702.5482    -42337.32    104.94858    227.28727 
   23050    133.86245   -413.47976    142312.03   -39588.107    2692.9762   -42281.083     105.1129    226.48225 
   23100    132.40346   -585.07804    142313.37   -39602.412     2663.625   -42266.037    105.26982    224.01378 
   23150    132.50326   -646.71249    142192.33   -39605.853    2665.6327   -42271.486    105.27513    224.18263 
   23200     134.2781   -375.31152    142165.39   -39621.487    2701.3379   -42322.825    105.46019    227.18548 
   23250     131.6729   -507.82375    142224.09   -39618.256    2648.9278   -42267.184    105.82858    222.77774 
   23300    131.41372   -512.52947    142126.16   -39577.084    2643.7138   -42220.797    105.80438    222.33923 
   23350    132.37121    -429.9553    142283.65   -39561.908    2662.9762   -42224.884    106.09041    223.95922 
   23400     134.1227   -305.08727    142377.33    -39554.56    2698.2118   -42252.772    106.23595    226.92257 
   23450     133.4402     -636.909    142292.53   -39600.871    2684.4815   -42285.353    106.54341    225.76784 
   23500    134.10904   -502.16651     142301.6   -39603.972    2697.9369   -42301.909    106.62875    226.89945 
   23550    131.09708   -672.01615    142266.98   -39620.421    2637.3439   -42257.765    106.56613    221.80351 
   23600    131.21684   -406.88761    142077.78    -39588.93     2639.753   -42228.683     106.5893    222.00612 
   23650    132.41023   -391.80591    142112.57   -39583.071     2663.761   -42246.832    106.63422    224.02522 
   23700    130.63464   -415.58614    142106.01   -39590.653    2628.0406   -42218.694    106.92142     221.0211 
   23750    134.43534   -393.53232     142183.8   -39513.525    2704.5012   -42218.027    106.95651    227.45152 
   23800    133.44522   -437.71804    142301.57   -39518.075    2684.5824   -42202.658    107.03915    225.77633 
   23850    133.16142   -540.48653    142267.01   -39554.483    2678.8732   -42233.356    107.42044    225.29618 
   23900    133.55725   -730.93601    142235.54   -39587.957    2686.8362   -42274.794    107.63196    225.96587 
   23950    132.86162    -505.5739    142134.62   -39608.767    2672.8418   -42281.609    107.92277    224.78893 
   24000    131.60944   -651.45735    142188.89   -39588.606    2647.6513   -42236.257    108.00651    222.67038 
   24050    132.33525   -364.74835     142179.5   -39628.007    2662.2527    -42290.26    108.33562    223.89837 
   24100    132.14839   -414.32462    142164.41   -39572.158    2658.4935   -42230.651    108.44889    223.58222 
   24150    132.27339   -623.89051    142300.22   -39586.636    2661.0083   -42247.645    108.61739    223.79372 
   24200    134.01765   -523.51843    142170.75   -39546.711    2696.0983    -42242.81    108.80578    226.74483 
   24250    134.79692   -402.83584    142191.54   -39539.159    2711.7753   -42250.934    109.04347    228.06328 
   24300     134.4501   -591.92135    142196.26   -39581.043    2704.7982   -42285.842    109.21595     227.4765 
   24350    132.96944   -325.70905    142217.31   -39566.377    2675.0109   -42241.388    109.54014    224.97135 
   24400    133.87406   -497.12368    142343.49   -39540.026    2693.2097   -42233.236    109.51513    226.50189 
   24450    133.61988    -550.6131    142141.82   -39570.865    2688.0963   -42258.961     109.6334    226.07185 
   24500    132.52952   -671.56982    142133.95   -39584.254     2666.161   -42250.415     110.3018    224.22706 
   24550    135.21145   -259.31988    142201.87   -39564.441    2720.1146   -42284.555    110.24225    228.76462 
   24600    134.72106   -483.36979     142292.2   -39500.001    2710.2491    -42210.25    110.41304    227.93492 
   24650    133.51205   -406.27081    142394.72   -39520.605    2685.9268   -42206.532    110.63168    225.88939 
   24700    133.92892   -675.98677    142313.86   -39576.162    2694.3133   -42270.475    110.91708     226.5947 
   24750    133.80481   -531.30548    142131.39   -39587.029    2691.8166   -42278.845    111.32709    226.38473 
   24800    130.90746   -492.63017    142318.88   -39616.739    2633.5292   -42250.268    111.63764    221.48269 
   24850    131.45032   -679.26588    142102.17   -39627.773    2644.4502   -42272.223    111.96319    222.40116 
   24900    133.36721    -272.8055    142077.48   -39645.944    2683.0131   -42328.957     111.9116    225.64435 
   24950    131.86428   -363.77079    142358.12    -39587.17    2652.7779   -42239.948    112.01957    223.10154 
   25000    135.43853   -576.92265    142281.11   -39601.005     2724.683   -42325.688    112.20837    229.14883 
   25050    133.40842   -502.20083    142472.11   -39629.693    2683.8423   -42313.536    112.53732    225.71408 
   25100    131.72108   -609.38283    142313.31    -39655.97    2649.8972   -42305.867    112.70039    222.85926 
   25150    130.92479   -540.45845    142157.04   -39609.176    2633.8777   -42243.054    112.87603    221.51201 
   25200    133.66497   -559.60623    141924.89   -39592.986    2689.0033    -42281.99     113.2944    226.14813 
   25250     130.2536   -435.91084    141808.17   -39626.249    2620.3752   -42246.624    113.37133    220.37643 
   25300    130.45213   -550.43573    141750.53   -39574.849    2624.3689   -42199.218    113.67515    220.71231 
   25350    133.95769   -481.90336    141714.51    -39590.33    2694.8922   -42285.222    113.69569    226.64339 
   25400    132.01024   -300.02875    141836.06   -39669.416    2655.7144    -42325.13    113.75707    223.34849 
   25450    130.71386    -433.6423    141918.06   -39661.045    2629.6343   -42290.679     114.1954    221.15513 
   25500    131.92941   -409.90872     141940.8    -39668.06    2654.0882   -42322.149     114.5717    223.21173 
   25550    131.05551   -395.82283    141879.15   -39668.811    2636.5075   -42305.319    115.13493    221.73318 
   25600    133.06732   -538.29075    141868.99   -39619.485      2676.98   -42296.465     115.1702    225.13696 
   25650    132.12613   -466.60118    141725.33   -39602.729    2658.0457   -42260.774    115.48961    223.54456 
   25700    132.41952   -645.48533    141810.51   -39637.091     2663.948   -42301.039    115.70726    224.04095 
   25750    133.68491   -502.65834    141778.01   -39623.196    2689.4045   -42312.601    115.80905    226.18187 
   25800    135.61101   -524.94902    141855.49   -39616.963    2728.1528   -42345.115    115.83078    229.44065 
   25850    133.88647   -527.56863    141817.66   -39614.025    2693.4594   -42307.484    115.91981    226.52289 
   25900    134.30955   -496.05124    141742.69   -39631.006    2701.9706   -42332.977    115.92588    227.23869 
   25950    130.47714   -474.30403    141701.33   -39669.649    2624.8722   -42294.521    115.92407    220.75463 
   26000    131.09161   -499.75614    141604.35   -39640.305    2637.2337   -42277.539    116.02153    221.79425 
   26050    130.19119   -354.05947    141817.32   -39637.962    2619.1196   -42257.082    116.26422    220.27083 
   26100    134.93084   -360.83753    142021.22   -39576.134    2714.4695   -42290.604    116.33885    228.28986 
   26150    134.28508    -401.7724    142006.31    -39514.63    2701.4783   -42216.108    116.54677    227.19729 
   26200    131.95817   -345.85804    142162.93   -39598.456    2654.6667   -42253.122    116.69499    223.26039 
   26250    128.71833   -652.62748    142102.82   -39603.753    2589.4893   -42193.242     116.9177    217.77889 
   26300    134.01484   -746.81843    141933.34   -39584.333    2696.0419   -42280.374     117.4608    226.74008 
   26350    133.41623   -444.13288    141889.69   -39579.331    2683.9993    -42263.33    117.74462    225.72729 
   26400    132.50046   -404.68437    142017.85   -39596.004    2665.5762    -42261.58    118.06348    224.17789 
   26450    133.82922   -375.01288     142121.2   -39591.262    2692.3076    -42283.57    118.31982    226.42603 
   26500     133.4152   -565.81618    142137.87   -39568.326    2683.9786   -42252.305    118.90069    225.72555 
   26550    133.76419   -420.44898    142171.63    -39589.13    2690.9994   -42280.129    119.26471      226.316 
   26600    129.24084   -641.55648    142107.93   -39656.997    2600.0009   -42256.998    119.47114    218.66293 
   26650    132.53292   -577.64172       142075    -39655.15    2666.2292    -42321.38    119.65445     224.2328 
   26700    130.62651   -444.24438     141954.8   -39663.819    2627.8771   -42291.696    120.03635    221.00734 
   26750    131.40086   -461.68532    141987.29   -39626.105     2643.455    -42269.56    120.42462    222.31747 
   26800    132.60885   -544.53412    141998.72   -39629.301    2667.7567   -42297.058    120.89077    224.36127 
   26850    131.64018   -519.15323    141989.43   -39672.954    2648.2696   -42321.223     121.1346    222.72238 
   26900    134.10746   -489.13303     142042.8   -39622.016    2697.9052   -42319.921    121.23756    226.89678 
   26950    131.20609   -497.38186    142142.84   -39646.861    2639.5369   -42286.398    121.58783    221.98795 
   27000    129.07612   -363.95977    142272.26   -39635.308    2596.6871   -42231.995    121.85767    218.38423 
   27050    133.62332   -557.82998    142327.67   -39667.586    2688.1654   -42355.751     122.0263    226.07766 
   27100    132.42202   -470.69261    142334.75   -39695.849    2663.9982   -42359.847    122.27373    224.04517 
   27150    130.01698   -567.65604    142215.79    -39694.46    2615.6149   -42310.074    122.55899    219.97608 
   27200    136.46303   -635.72367    142217.85   -39692.904    2745.2932   -42438.197     122.4389    230.88217 
   27250    132.50607   -520.27549    142241.04   -39619.452    2665.6891   -42285.141     122.5884    224.18738 
   27300    132.85605   -561.14861    142063.08    -39618.34    2672.7299    -42291.07    122.56935    224.77952 
   27350    135.47699   -340.12538    142160.47   -39559.284    2725.4565    -42284.74    122.83784    229.21389 
   27400    136.12629   -283.60875    142351.38   -39530.066     2738.519   -42268.585    123.17906    230.31245 
   27450    135.73892   -410.54803    142485.73   -39507.234     2730.726    -42237.96    123.48159    229.65706 
   27500    134.35145   -522.93514    142473.24   -39540.298    2702.8135   -42243.112    123.78879    227.30958 
   27550    133.97456   -541.22151    142455.54   -39555.281    2695.2315   -42250.512    123.77743    226.67192 
   27600    132.67195   -599.17659     142330.4   -39602.791    2669.0262   -42271.817    123.82596    224.46803 
   27650    135.59509   -502.63078    142249.59   -39574.111    2727.8325   -42301.943    124.07413    229.41371 
   27700    132.47844   -510.07756     142288.8    -39572.31    2665.1332   -42237.443    124.26806    224.14063 
   27750     137.0234   -268.27451    142416.63   -39530.606    2756.5665   -42287.173    124.29056    231.83027 
   27800    132.58465   -541.32427    142628.06   -39546.359    2667.2699   -42213.629    124.61555    224.32033 
   27850    134.75694   -634.05949     142569.9   -39587.968     2710.971   -42298.939    124.63179    227.99564 
   27900    131.15331   -410.66699     142448.8   -39646.308     2638.475   -42284.783    125.13745    221.89864 
   27950    135.90132   -688.28141    142421.49   -39586.434     2733.993   -42320.427    125.36097    229.93181 
   28000    133.95197   -727.94141     142295.4   -39610.345    2694.7771   -42305.122    125.68194    226.63371 
   28050    133.11717   -533.93732    142295.78   -39627.838    2677.9829   -42305.821    125.93058     225.2213 
   28100    136.20259   -373.74586    142413.67   -39552.458    2740.0538   -42292.512    126.19444    230.44153 
   28150    137.17503   -434.47004    142422.07   -39550.617    2759.6168   -42310.234    126.42965     232.0868 
   28200    136.34577   -534.35715    142500.92   -39569.065    2742.9343   -42311.999    126.63704    230.68378 
   28250    132.71302   -479.86302    142414.07   -39576.542    2669.8526   -42246.395    126.87969    224.53753 
   28300    132.71007   -602.76659    142128.89    -39570.37     2669.793   -42240.163    126.96837    224.53252 
   28350    135.15589   -408.36041    142082.87   -39621.405    2718.9969   -42340.402    127.14284    228.67063 
   28400    132.17946   -501.13987    142039.11   -39633.943    2659.1185   -42293.062    127.33756    223.63478 
   28450    132.12782   -445.49099       142194   -39625.399    2658.0798   -42283.478    127.55466    223.54743 
   28500    133.74493   -340.52768     142187.3   -39610.975    2690.6119   -42301.586    127.68038    226.28341 
   28550    131.08768   -466.95905    142229.73   -39635.767    2637.1548   -42272.922     127.9692    221.78761 
   28600    133.46297   -462.64502    142337.05   -39627.252    2684.9395   -42312.191    128.07022    225.80636 
   28650    133.69984   -518.57361    142346.33   -39615.574    2689.7047   -42305.279    127.80287    226.20712 
   28700    133.75096   -495.57479    142379.23   -39600.778    2690.7333   -42291.511    128.10331    226.29362 
   28750    131.81587   -624.01302    142285.98   -39592.213     2651.804   -42244.017    128.44371    223.01962 
   28800    133.41152   -500.47252    142253.85   -39620.428    2683.9045   -42304.332    128.60194    225.71931 
   28850    132.59189   -589.09794     141995.7   -39641.167    2667.4156   -42308.582     128.8853    224.33258 
   28900    131.97436   -504.52665    142016.34    -39624.01    2654.9924   -42279.002    129.13282    223.28777 
   28950    132.58948   -589.20169    142019.53   -39624.996    2667.3671   -42292.363     129.3037     224.3285 
   29000    133.82073    -394.8418    142003.31   -39645.409    2692.1369   -42337.546    129.72245    226.41167 
   29050    131.07231   -584.89514    141916.97   -39649.779    2636.8455   -42286.624    129.85378     221.7616 
   29100     131.2405   -443.88861    141891.91   -39661.785    2640.2291   -42302.014    129.90772    222.04617 
   29150    130.29548   -425.53356    141951.56   -39585.533    2621.2177   -42206.751    129.94295    220.44729 
   29200    136.12326   -439.94834    141987.19   -39503.928    2738.4579   -42242.386    130.51194    230.30732 
   29250    135.44486   -477.02629    142048.44   -39504.761    2724.8102   -42229.571    130.82824    229.15953 
   29300    134.02379   -576.94836    142124.64    -39489.84    2696.2218   -42186.062    130.97878    226.75521 
   29350    131.77652   -421.61456    142220.92   -39539.237    2651.0125   -42190.249    131.19085    222.95306 
   29400    131.52165   -592.96441    142141.95    -39597.81    2645.8851   -42243.695    131.15353    222.52184 
   29450     131.6012   -498.19028    142115.91   -39661.574    2647.4855   -42309.059    131.20813    222.65643 
   29500    133.35569   -519.78343    142282.82   -39586.685    2682.7813   -42269.467    131.38475    225.62485 
   29550    132.74485   -523.41423    142343.88   -39577.784    2670.4927   -42248.277    131.52596    224.59137 
   29600    131.93466   -349.26112    142434.08   -39566.447    2654.1939   -42220.641    131.74355    223.22062 
   29650    133.36036   -613.48392    142268.27   -39588.622    2682.8753   -42271.497    131.84851    225.63276 
   29700    132.54494   -437.23347    142349.17   -39647.904    2666.4711   -42314.375     131.8623    224.25315 
   29750    132.64972   -480.15137    142317.32    -39643.92    2668.5789   -42312.499    132.33932    224.43042 
   29800    131.71205   -615.89341    142256.64   -39645.161    2649.7154   -42294.876    132.29963    222.84397 
   29850    132.36718   -397.57551    142224.25   -39642.417     2662.895   -42305.312    132.72423    223.95239 
   29900    131.87099   -513.96038     142204.1    -39680.83    2652.9128   -42333.743    132.97761    223.11288 
   29950    131.07698   -579.08399    142197.36   -39649.213    2636.9393   -42286.152    133.15684    221.76949 
   30000    133.51087   -392.35685    142209.51   -39590.283    2685.9031   -42276.186    132.86762     225.8874 
   30050     131.3376   -435.22651    142261.63   -39609.693    2642.1824   -42251.876    132.85368    222.21044 
   30100    131.81281   -632.65338    142115.75   -39632.593    2651.7424   -42284.335    132.93579    223.01445 
   30150    134.01451   -591.37766    141879.48   -39631.792    2696.0351   -42327.827    132.82857    226.73951 
   30200    128.20364   -504.48649    141930.78   -39703.055     2579.135    -42282.19    132.61059    216.90809 
   30250    131.59377   -444.46588    141974.03   -39660.679     2647.336   -42308.015    132.65831    222.64386 
   30300    131.52424   -543.92546    141985.34   -39674.148    2645.9373   -42320.085    132.91814    222.52623 
   30350     132.5995    -436.1147       142041   -39634.026    2667.5688   -42301.594    132.88731    224.34546 
   30400    132.00382    -571.1679    142015.29   -39645.646    2655.5852   -42301.231    132.98721    223.33763 
   30450     134.3171   -460.28028    142085.55   -39584.475    2702.1224   -42286.597    132.87445    227.25146 
   30500     131.1001   -646.46042    141977.36   -39639.359    2637.4046   -42276.763     132.7542    221.80862 
   30550    130.40564   -544.57752    141816.19   -39623.214    2623.4337   -42246.648    132.81929    220.63365 
   30600    130.58371   -481.53936    141920.48   -39656.388    2627.0161   -42283.404    132.90301    220.93494 
   30650     131.8907    -458.4945    142014.45   -39638.053    2653.3095   -42291.363    132.94253    223.14624 
   30700    131.74669   -426.72952    142099.23   -39671.094    2650.4123   -42321.506    132.98395    222.90258 
   30750    133.69368   -579.56317    142019.92   -39693.387    2689.5809   -42382.968    133.14099    226.19671 
   30800    130.55745   -489.95118    141944.79   -39677.097    2626.4878   -42303.584    133.24501     220.8905 
   30850    128.33564   -597.24245    141802.67     -39678.1    2581.7906   -42259.891    133.42107    217.13143 
   30900    131.17742   -517.06244    141713.21   -39701.637      2638.96   -42340.597    133.49327    221.93943 
   30950    130.34485   -303.72395    141846.72   -39621.077    2622.2108   -42243.288    133.77397     220.5308 
   31000    132.06983   -410.86685    142112.47   -39632.531     2656.913   -42289.444    134.04535     223.4493 
   31050    133.93519   -514.47224    142127.56   -39612.754    2694.4394   -42307.194    134.29032    226.60531 
   31100    130.99566   -679.58751    142042.04   -39662.873    2635.3035   -42298.176     134.6079    221.63191 
   31150    129.81212   -658.71886     141847.9   -39679.996    2611.4937    -42291.49    134.53786    219.62949 
   31200    133.30606   -426.99153    141695.99   -39683.005     2681.783   -42364.787    134.84207    225.54089 
   31250    130.77399   -402.17249    141734.75   -39724.419    2630.8441   -42355.263    134.94638    221.25688 
   31300    132.28507   -475.41902    141756.77   -39705.502    2661.2433   -42366.745    135.30728    223.81348 
   31350    133.74452   -322.56972    141771.47   -39668.332    2690.6037   -42358.936     135.0222    226.28272 
   31400    133.14463   -430.27149     142004.9    -39647.33    2678.5354   -42325.866    134.99742    225.26777 
   31450    132.73921   -531.13413    142040.25   -39631.975    2670.3794   -42302.354    135.15951    224.58184 
   31500    132.73087   -328.17554    142078.45     -39648.2    2670.2116   -42318.411    135.43806    224.56773 
   31550    133.50114    -503.2972    142254.84    -39656.81    2685.7075   -42342.517    135.74083    225.87094 
   31600    134.21422   -542.89751    142212.32   -39652.809    2700.0528   -42352.862    135.69996    227.07741 
   31650    132.47741   -566.78916    142077.14   -39695.488    2665.1125     -42360.6    136.01073    224.13889 
   31700     133.2823   -588.60174    141928.97   -39751.139     2681.305   -42432.444    135.88948    225.50069 
   31750    129.34836     -567.402     141889.6   -39807.853    2602.1639   -42410.016     135.9303    218.84484 
   31800    130.06792   -547.05919    141855.33    -39815.07    2616.6398   -42431.709    136.28607    220.06227 
   31850      130.637   -406.06563    141965.23   -39758.308    2628.0883   -42386.396    136.55168    221.02511 
   31900    131.84197   -418.77989    142100.89   -39695.453     2652.329   -42347.782    137.13304    223.06378 
   31950    135.85216   -459.05632    142002.76   -39665.044    2733.0042   -42398.048    137.30751    229.84865 
   32000    132.35711   -422.23334    142060.84   -39667.341    2662.6925   -42330.033    137.37888    223.93536 
   32050    132.29507   -461.01021    142097.06   -39642.128    2661.4444   -42303.572    137.39722     223.8304 
   32100    131.58788    -336.6839    142248.46   -39657.016    2647.2175   -42304.233    137.66718     222.6339 
   32150    131.78186   -524.94634    142217.46   -39664.487    2651.1199   -42315.607    137.79519     222.9621 
   32200    130.34094   -521.08984    142188.17   -39675.914    2622.1322   -42298.046    138.15407    220.52419 
   32250     129.7395   -578.17194    142083.63   -39675.418    2610.0327   -42285.451    138.30622    219.50662 
   32300    130.31126   -545.09935    142024.05   -39639.271    2621.5352   -42260.807    138.48404    220.47398 
   32350    130.29793   -406.93989    142149.07   -39693.756     2621.267   -42315.023    138.29934    220.45143 
   32400    130.35004   -722.77051    142137.87   -39705.898    2622.3153   -42328.214    138.28535    220.53959 
   32450    132.81086   -562.56698    142119.32   -39686.545    2671.8207   -42358.366    138.10703    224.70305 
   32500    128.71201   -613.11293    141876.91    -39694.79    2589.3621   -42284.152    138.35184    217.76819 
   32550    132.46773   -367.35797    142023.78   -39688.897    2664.9179   -42353.814    138.28138    224.12252 
   32600     132.3476   -542.17335    142061.67   -39720.677     2662.501   -42383.178    138.38502    223.91926 
   32650    132.35819   -488.75307    142055.85   -39766.003    2662.7142   -42428.718    138.46713    223.93719 
   32700    132.46253   -515.98084     142203.1   -39753.989    2664.8132   -42418.802    138.43441    224.11372 
   32750    131.74644   -531.06127    142279.11   -39700.878    2650.4072   -42351.285    138.67948    222.90216 
   32800    131.40381   -721.17018    142213.73   -39706.217    2643.5145   -42349.732    138.86597    222.32247 
   32850    133.45979   -326.15701    142171.76   -39741.881    2684.8756   -42426.757    139.02003    225.80098 
   32900    131.07584   -563.78386    142234.39   -39808.081    2636.9166   -42444.997    139.17952    221.76758 
   32950    132.86736   -429.79773    142209.91   -39770.153    2672.9573   -42443.111    139.12302    224.79864 
   33000    131.61764   -516.52411    142237.96   -39749.922    2647.8162   -42397.738    139.17722    222.68425 
   33050    132.93571   -398.46739    142212.83   -39759.727    2674.3324   -42434.059    139.21238    224.91429 
   33100    133.07443   -485.26828    142154.42   -39784.557    2677.1231    -42461.68    139.25814    225.14899 
   33150    131.45194   -511.94274    142179.78   -39789.319    2644.4828   -42433.802      139.148     222.4039 
   33200    131.62401   -538.12696    142243.87    -39807.34    2647.9442   -42455.284    139.33214    222.69502 
   33250    132.73606   -633.85312       142236   -39762.172    2670.3159   -42432.488    139.47274     224.5765 
   33300    131.14783   -499.89792    142151.55   -39743.734    2638.3648   -42382.099    139.84666    221.88937 
   33350    131.11756   -539.47383    142302.97    -39735.33    2637.7557   -42373.086    139.80273    221.83815 
   33400     133.9033   -562.06077    142282.75   -39675.707    2693.7978   -42369.504    140.10159    226.55135 
   33450    131.32235   -578.82674    142153.89   -39735.494    2641.8757    -42377.37    140.06423    222.18464 
   33500    131.97527   -562.55051    141965.09   -39695.164    2655.0109   -42350.175    140.14456    223.28933 
   33550    132.24964   -473.02307    142032.75   -39670.443    2660.5305   -42330.974    140.45054    223.75353 
   33600    133.04798   -480.17953    142250.35   -39682.904    2676.5911   -42359.495    140.66648    225.10425 
   33650    133.76212   -557.17777    142029.97   -39626.139    2690.9576   -42317.097    140.60072    226.31249 
   33700    130.96359   -392.71258    142125.79       -39673    2634.6584   -42307.658    141.11431    221.57766 
   33750    131.39109   -539.20733    142184.65   -39700.436    2643.2586   -42343.695    141.17793    222.30095 
   33800    130.75659   -385.53749    142252.95   -39701.419    2630.4941   -42331.913     141.4271    221.22744 
   33850     133.0078   -574.42372    142236.99   -39659.768    2675.7826    -42335.55    141.63086    225.03625 
   33900    136.21414   -393.29354    142335.87   -39655.003    2740.2863   -42395.289    141.54871    230.46108 
[...]
   92050    132.26929   -528.21752     141762.1    -39657.22    2660.9257   -42318.146    355.08604    223.78677 
   92100    133.07009   -389.18425     141842.9   -39611.861    2677.0358   -42288.896    355.06999    225.14165 
   92150    132.05952   -554.67574    141853.81   -39634.255    2656.7057    -42290.96    355.88157    223.43187 
   92200    132.82573   -548.75147    141842.02    -39600.38    2672.1198     -42272.5    355.88084    224.72821 
   92250    135.82185   -452.45706    141807.16   -39559.323    2732.3943   -42291.717    356.21488    229.79736 
   92300    135.35786    -408.7644    141780.19    -39606.69      2723.06    -42329.75    356.24236    229.01233 
   92350    133.14827   -611.04087    141881.37   -39576.624    2678.6087   -42255.233    357.12068    225.27393 
   92400    132.25392   -498.00189     141780.5   -39605.999    2660.6165   -42266.616    357.44377    223.76076 
   92450    133.25701   -452.94383     141853.3    -39595.54    2680.7962   -42276.336    357.84951     225.4579 
   92500    136.14042    -450.3222    142068.14   -39575.671    2738.8031   -42314.474    358.05793    230.33635 
   92550    134.74819   -527.02312    142158.92   -39566.081    2710.7949   -42276.876    358.08348    227.98083 
   92600    132.07222   -422.44302    142270.67   -39589.993    2656.9612   -42246.954    358.37161    223.45335 
   92650    133.17671   -668.30208    142241.78   -39574.466    2679.1808   -42253.647    358.43915    225.32204 
   92700    134.31096   -173.60261    142307.46   -39588.929     2701.999   -42290.928    358.86608    227.24108 
   92750    132.84856   -440.15668    142499.49    -39596.53    2672.5791   -42269.109    358.94013    224.76684 
   92800    132.80006   -666.04297    142473.56    -39570.69    2671.6034   -42242.293    358.74078    224.68478 
   92850     136.9933   -576.76992    142259.21   -39595.346     2755.961   -42351.307    358.56057    231.77934 
   92900    133.02811   -486.32971     142311.9   -39577.931    2676.1913   -42254.122    358.74582    225.07063 
   92950    133.52181   -384.45828     142322.2   -39591.525    2686.1233   -42277.649    359.45635    225.90591 
   93000    133.51096   -461.45921    142299.24   -39588.359     2685.905   -42274.264    359.61377    225.88755 
   93050     131.5291   -473.84651    142274.81     -39587.4    2646.0349   -42233.435    359.57578    222.53444 
   93100    134.27391   -544.32506    142307.91   -39579.342    2701.2536   -42280.595    359.95546    227.17839 
   93150    133.06705   -531.53402    142222.43   -39571.725    2676.9747     -42248.7    360.45479    225.13651 
   93200    133.59038   -486.34377     142124.4   -39538.871    2687.5027   -42226.373    360.61739    226.02192 
   93250    133.89661   -601.54186    142131.86   -39595.632    2693.6634   -42289.295    360.96301    226.54005 
   93300    132.19546   -411.76318    142097.82    -39559.26    2659.4405   -42218.701    360.76532    223.66186 
   93350    134.33673   -508.26274    142030.12   -39563.959    2702.5174   -42266.477    360.59375    227.28468 
   93400    131.52687   -480.54459    142070.81   -39561.015    2645.9901   -42207.005     360.6135    222.53067 
   93450    135.64291   -453.41179    142066.55   -39536.087    2728.7945   -42264.881    360.74732    229.49461 
   93500    131.26124   -631.45728    142100.58   -39557.745    2640.6463   -42198.391    361.72044    222.08125 
   93550    135.20463   -609.65863    141802.74   -39570.616    2719.9773   -42290.593    361.34066    228.75307 
   93600    132.89593   -376.88551    141808.52   -39570.832    2673.5322   -42244.364     361.3497    224.84699 
   93650     132.3678   -508.71332    141947.14   -39546.813    2662.9074   -42209.721    361.52312    223.95344 
   93700    134.75361   -460.69316    142081.81   -39492.253     2710.904   -42203.157    361.65384       227.99 
   93750    134.11456   -386.56808    142042.54   -39492.032     2698.048    -42190.08    361.80953     226.9088 
   93800    133.42631   -310.37076    142248.36   -39507.219     2684.202   -42191.421     362.3345    225.74433 
   93850    133.22212   -662.82389    142274.78   -39569.934    2680.0942   -42250.028    362.97697    225.39887 
   93900    129.99029   -614.33617    142135.22   -39631.948    2615.0779   -42247.026    363.40225    219.93092 
   93950    134.69142   -449.48908    142042.51   -39572.548    2709.6529   -42282.201    363.63246    227.88478 
   94000    133.95472   -548.95123    142035.69   -39550.018    2694.8323    -42244.85    363.64715    226.63835 
   94050    133.52429   -594.93805    141927.18   -39536.335    2686.1731   -42222.508    363.29569    225.91011 
   94100    132.05556   -371.44328    141971.95   -39546.983    2656.6261   -42203.609    363.37774    223.42517 
   94150    133.23588   -396.26502    141941.25   -39583.461    2680.3711   -42263.832      363.588    225.42215 
   94200    132.74738   -427.56249    141973.65   -39536.233    2670.5437   -42206.777    363.62228    224.59565 
   94250    130.14743   -522.53174    141965.76   -39561.386    2618.2392   -42179.625    363.55532    220.19679 
   94300    131.29564   -353.47275    142019.66   -39605.517    2641.3383   -42246.855    363.57784    222.13945 
   94350     131.8939   -549.27908    142073.19   -39599.778    2653.3738   -42253.152    364.03281    223.15165 
   94400    132.99664   -682.24621    141853.19   -39609.921    2675.5581   -42285.479    364.08729    225.01738 
   94450    131.61677    -593.5233    141732.33   -39589.836    2647.7986   -42237.635    363.58611    222.68277 
   94500    131.44359   -257.63074    141771.06   -39591.583    2644.3147   -42235.898    363.69232    222.38977 
   94550    133.67405   -547.31286    142037.58   -39575.435     2689.186   -42264.621    364.22811    226.16349 
   94600    134.77562   -421.31135    142123.99   -39554.737    2711.3467   -42266.084    364.57283    228.02723 
   94650    132.39499   -451.07049    142185.83   -39524.135    2663.4545   -42187.589    365.11865    223.99944 
   94700     132.2453    -336.7686    142211.14   -39509.424    2660.4431   -42169.867    364.89641    223.74619 
   94750    132.93431   -613.22902    142205.34   -39503.162    2674.3043   -42177.466    365.03297    224.91193 
   94800    134.88076    -486.1162    142115.34     -39514.6     2713.462   -42228.062    364.79023    228.20513 
   94850    134.13655   -598.67469    142041.14   -39476.692    2698.4903   -42175.182    364.98943      226.946 
   94900    135.89863   -691.08241    141928.64   -39423.679     2733.939   -42157.618    365.02063    229.92727 
   94950    137.67566   -612.36159    141845.52   -39378.373    2769.6884   -42148.062    365.04523    232.93383 
   95000    135.84158   -352.86538    141847.84   -39374.882    2732.7912   -42107.673    365.37143    229.83074 
   95050    134.44191   -525.48282    141814.14    -39408.78    2704.6334   -42113.413    365.39232    227.46263 
   95100    134.85303    -357.6631    141879.19   -39459.847    2712.9041   -42172.751    365.52494    228.15821 
   95150    134.61283   -461.26634    141876.19   -39484.652    2708.0718   -42192.723    365.60961    227.75181 
   95200    133.97464   -544.14841    141960.32   -39452.709     2695.233   -42147.942    365.69871    226.67205 
   95250    133.08475   -505.86747    141895.38   -39500.243    2677.3307   -42177.574    365.88842    225.16645 
   95300    130.91628   -453.83091    141883.46   -39551.124    2633.7065   -42184.831    365.68968    221.49761 
   95350    129.97415   -471.70354    141776.81   -39598.362    2614.7534   -42213.116    365.84455    219.90363 
   95400    129.74576   -546.54422    141655.96   -39609.425    2610.1587   -42219.583    365.64411    219.51721 
   95450     133.1211   -366.12507    141759.38   -39606.196    2678.0621   -42284.258    365.95961    225.22796 
   95500    133.06196   -532.64506    141877.61   -39595.974    2676.8723   -42272.846    366.28466     225.1279 
   95550    133.39289   -468.05793    141822.39   -39569.412    2683.5298   -42252.942    366.65109     225.6878 
   95600    134.83572   -518.10594    141911.95   -39554.085    2712.5558   -42266.641    366.97372    228.12892 
   95650    133.53546   -535.41188    141785.55   -39545.503    2686.3978   -42231.901    367.09866      225.929 
   95700     132.3206   -593.99268    141796.64   -39594.435    2661.9579   -42256.393    367.37539    223.87358 
   95750    134.91072   -504.25852    141708.95   -39570.105    2714.0646    -42284.17    367.56252    228.25581 
   95800    133.61341   -546.67337    141576.96   -39544.254     2687.966    -42232.22    367.93182    226.06089 
   95850    134.86087   -394.90163    141662.52   -39539.729    2713.0617   -42252.791    368.32816    228.17147 
   95900    132.15859   -533.40662    141733.17   -39616.522    2658.6988   -42275.221    368.68499    223.59949 
   95950    136.89085   -397.79341    141747.34   -39528.902       2753.9   -42282.802    369.45607    231.60601 
   96000      133.865   -403.93487    141906.51   -39563.869    2693.0274   -42256.896    369.71082    226.48656 
   96050    133.96454    -387.2138    142038.65   -39570.254    2695.0298   -42265.284    370.19118    226.65496 
   96100    134.28789   -474.46168    142041.73   -39573.828     2701.535   -42275.363    370.27314    227.20206 
   96150    133.06383   -580.62795    141956.94   -39561.442    2676.9098   -42238.352    370.15829    225.13105 
   96200    135.84326    -473.8396    141916.71   -39592.518    2732.8249   -42325.343    370.14754    229.83357 
   96250    133.72013   -513.63428    141904.69   -39620.528     2690.113   -42310.641    370.24346    226.24145 
   96300    132.73501   -521.75895    141928.44   -39640.202    2670.2948   -42310.496    369.95826    224.57472 
   96350    132.72151   -496.42619    141893.88   -39650.092    2670.0232   -42320.115    370.27125    224.55188 
   96400    131.66238   -539.94642    141887.02   -39696.386    2648.7162   -42345.102    371.38677    222.75994 
   96450    134.38872   -447.95623    141899.03   -39687.031    2703.5634   -42390.595    372.09222    227.37265 
   96500    130.60795   -574.81142    142001.82   -39652.018    2627.5038   -42279.522    372.85605    220.97595 
   96550    131.49363   -324.38295    142093.21   -39658.617    2645.3214   -42303.939    372.93987    222.47443 
   96600    131.98639   -403.99083    142187.68   -39636.553    2655.2346   -42291.787    373.07354    223.30814 
   96650    133.52185   -653.53732    142191.66   -39618.198     2686.124   -42304.322    373.62845    225.90598 
   96700    132.25386    -534.9099    142191.12   -39672.638    2660.6154   -42333.253    373.73295    223.76068 
   96750    133.40933   -464.69452    142173.54   -39640.328    2683.8604   -42324.189    374.33872    225.71561 
   96800    133.54319   -430.99617    142125.33    -39629.74    2686.5533   -42316.293    374.61246    225.94208 
   96850    132.21792   -475.32417    142283.16   -39655.568    2659.8922    -42315.46    374.79734    223.69985 
   96900    131.08482   -649.23728    142152.35   -39654.978    2637.0972   -42292.075    375.08979    221.78277 
   96950    132.11802   -531.22773    142191.79   -39649.422    2657.8826   -42307.305    375.50631    223.53084 
   97000    131.15513   -394.33592     142290.5   -39627.122    2638.5116   -42265.633    376.04169    221.90172 
   97050    134.01042   -598.82095    142245.14   -39574.627    2695.9529    -42270.58    376.19638    226.73259 
   97100     135.5921   -414.76946    142368.95   -39480.284    2727.7724   -42208.056    376.43919    229.40865 
   97150    135.33249   -567.80425    142322.24   -39430.117    2722.5497   -42152.666    376.56422    228.96941 
   97200    134.42541   -521.31905    142273.38   -39532.555    2704.3015   -42236.856    376.85724    227.43472 
   97250    133.47909    -594.2329    142309.01   -39522.617    2685.2638   -42207.881    376.84211    225.83363 
   97300    134.53113   -454.65391    142362.67   -39470.179    2706.4282   -42176.608    377.33059    227.61358 
   97350    133.80774   -453.41981    142261.66   -39517.254    2691.8754   -42209.129     377.6615    226.38967 
   97400    133.14164   -562.91473    142183.79   -39539.905    2678.4753    -42218.38    377.64529    225.26271 
   97450    136.12344    -494.4581    142046.72   -39559.621    2738.4616   -42298.083    377.60129    230.30762 
   97500    132.47355   -545.92665    142011.38   -39568.817    2665.0349   -42233.852    377.67885    224.13236 
   97550    133.28464   -430.90782    141916.69   -39584.639     2681.352   -42265.991    378.02246    225.50465 
   97600     131.1257   -528.69802    142021.49   -39606.756    2637.9196   -42244.676      378.392    221.85194 
   97650    134.73594   -487.35537    141963.62   -39579.617    2710.5486   -42290.165    378.91295    227.96011 
   97700    134.71087   -738.79639    141984.76   -39560.321    2710.0441   -42270.365    379.62509    227.91769 
   97750    131.38718   -505.78537    141827.65   -39616.482    2643.1798   -42259.662    379.63222    222.29432 
   97800    132.28881   -425.25411    141789.36   -39627.694    2661.3184   -42289.012    380.12907     223.8198 
   97850    133.24237   -567.66217    141829.62   -39638.439    2680.5017   -42318.941    380.40898    225.43313 
   97900    135.60463   -505.76745    141834.88   -39623.049    2728.0244   -42351.073    380.12026    229.42984 
   97950     133.5415   -433.76904     141942.1   -39592.749    2686.5194   -42279.268    380.53577    225.93923 
   98000     133.3844   -405.25737    142132.78   -39572.053     2683.359   -42255.412    381.31368    225.67344 
   98050    134.49688   -685.87311    142105.73   -39607.755    2705.7393   -42313.494    381.95997    227.55564 
   98100    132.76343   -376.80079    141971.21   -39632.457    2670.8667   -42303.324    382.48166    224.62282 
   98150    132.69937   -612.41238    141809.86   -39683.253    2669.5778   -42352.831     381.9093    224.51442 
   98200    129.47235   -481.97135    141808.05   -39650.779    2604.6584   -42255.438    382.04684    219.05463 
   98250    132.73404   -523.39795    141924.57   -39685.435    2670.2754    -42355.71    382.35302    224.57309 
   98300    132.68319   -494.80348    141954.62   -39645.338    2669.2524    -42314.59    382.61539    224.48706 
   98350    131.85817   -513.32292    142048.75   -39659.071    2652.6551   -42311.726    382.80672    223.09121 
   98400    133.93796   -518.37405    141946.33   -39676.127    2694.4951   -42370.622    382.67811       226.61 
   98450    131.68325   -431.45475    142058.19   -39704.646    2649.1362   -42353.783     383.3182    222.79526 
   98500    132.83998   -535.06287    142104.39   -39660.103    2672.4066    -42332.51    382.97802    224.75233 
   98550    133.69657   -500.94945    141942.76   -39637.448    2689.6391   -42327.087    382.45408     226.2016 
   98600    133.31773    -279.2926    142104.47   -39647.325    2682.0178   -42329.343    382.94221    225.56064 
   98650    134.98288   -438.11386    142340.31   -39608.585    2715.5163   -42324.101    383.48775     228.3779 
   98700    135.16522   -573.16931    142404.38   -39611.273    2719.1846   -42330.458     383.7506    228.68641 
   98750    135.08559    -472.5084    142505.11   -39608.641    2717.5827   -42326.224    383.90076    228.55169 
   98800    132.78976   -483.64612    142412.71   -39650.908    2671.3963   -42322.304    384.05314    224.66736 
   98850    133.02107    -570.9009    142300.76   -39688.527    2676.0497   -42364.577    384.15048    225.05872 
   98900    135.42993   -392.85079    142292.52   -39632.536      2724.51   -42357.046    384.16343    229.13428 
   98950    132.69977   -425.56983    142415.66   -39643.373     2669.586   -42312.959    384.74202    224.51511 
   99000    133.35273   -471.49313    142502.82   -39654.354    2682.7218   -42337.075    384.71318    225.61984 
   99050     132.1033   -623.86821    142430.16    -39644.59    2657.5864   -42302.176     384.4504    223.50593 
   99100    135.79619   -415.07536    142414.15    -39661.44    2731.8782   -42393.318    384.73563    229.75395 
   99150    130.79934   -711.92988    142289.62   -39704.448     2631.354   -42335.802    384.50973    221.29976 
   99200      133.308    -545.8426    142251.03   -39702.905     2681.822   -42384.727    384.52995    225.54418 
   99250    134.92912   -431.24596    142239.48   -39679.812    2714.4348   -42394.247    384.27406    228.28694 
   99300    133.14285   -535.68437    142404.92   -39648.755    2678.4995   -42327.255    384.56347    225.26474 
   99350    134.88461   -557.63833    142351.18    -39644.83    2713.5394   -42358.369    384.76361    228.21164 
   99400    131.69793   -530.61849    142192.78   -39687.375    2649.4315   -42336.806    385.11684    222.82009 
   99450    134.26371   -449.20094    142199.46    -39663.82    2701.0484   -42364.869    385.37079    227.16113 
   99500    134.90821   -493.49579    142305.65   -39602.482    2714.0141   -42316.496    385.80525    228.25157 
   99550    133.16728   -655.34324    142193.08   -39646.929     2678.991    -42325.92    385.58216    225.30608 
   99600    132.33784    -411.8276    142045.29   -39648.552    2662.3048   -42310.856     385.4118    223.90276 
   99650    133.52615   -576.25393    142049.88   -39671.169    2686.2105    -42357.38    385.55723    225.91325 
   99700    132.13549   -478.00321    142080.73   -39632.948    2658.2341   -42291.182    385.93553     223.5604 
   99750    132.09283   -427.50663    142037.48   -39633.666    2657.3758   -42291.042    386.57953    223.48822 
   99800    133.34983   -510.01688    141991.41   -39579.394    2682.6635   -42262.058    386.86223    225.61494 
   99850    133.37094   -429.64384    142082.95   -39577.316    2683.0881   -42260.404    387.06557    225.65065 
   99900    135.63703   -596.13465    141835.86   -39585.494    2728.6762    -42314.17    386.85863    229.48466 
   99950    133.35627   -633.73515    141991.76   -39628.688     2682.793   -42311.481    387.51527    225.62584 
  100000    131.99892   -430.79924    142084.98   -39617.967    2655.4866   -42273.453    387.98744    223.32934 
Loop time of 665.86 on 12 procs for 100000 steps with 6750 atoms

Performance: 64.878 ns/day, 0.370 hours/ns, 150.182 timesteps/s
99.2% CPU use with 12 MPI tasks x no OpenMP threads

MPI task timing breakdown:
Section |  min time  |  avg time  |  max time  |%varavg| %total
---------------------------------------------------------------
Pair    | 122.08     | 281.12     | 605.1      |1332.5 | 42.22
Neigh   | 6.8308     | 12.446     | 24.821     | 222.7 |  1.87
Comm    | 31.123     | 365.2      | 529.35     |1207.3 | 54.85
Output  | 0.14498    | 0.16397    | 0.32323    |  11.9 |  0.02
Modify  | 4.5825     | 5.1992     | 5.5861     |  18.1 |  0.78
Other   |            | 1.734      |            |       |  0.26

Nlocal:        562.500 ave         969 max         382 min
Histogram: 8 0 0 0 0 0 0 0 2 2
Nghost:        2110.25 ave        2401 max        1975 min
Histogram: 8 0 0 0 0 0 0 1 1 2
Neighs:        0.00000 ave           0 max           0 min
Histogram: 12 0 0 0 0 0 0 0 0 0
FullNghs:      67576.2 ave      163231 max       24545 min
Histogram: 8 0 0 0 0 0 0 0 2 2

Total # of neighbors = 810914
Ave neighs/atom = 120.13541
Neighbor list builds = 6132
Dangerous builds = 0

write_data		${DIR}/data.eq-${NAME}-${TEMP}
write_data		run_2/data.eq-${NAME}-${TEMP}
write_data		run_2/data.eq-het_freeze_2-${TEMP}
write_data		run_2/data.eq-het_freeze_2-225
System init for write_data ...
undump          1

reset_timestep  0

unfix           2
unfix           3
unfix           4


################################################
#######         Run Simulation         #########
################################################

log				${DIR}/log.run_${NAME}
log				run_2/log.run_${NAME}
log				run_2/log.run_het_freeze_2
