LAMMPS data file via write_data, version 16 Mar 2018, timestep = 100000

6328 atoms
2 atom types

0.0000000000000000e+00 4.9219999999999999e+01 xlo xhi
0.0000000000000000e+00 4.9019635930410494e+01 ylo yhi
3.5927682726300070e+00 5.6469231727369973e+01 zlo zhi

Masses

1 18.015
2 12.01

Atoms # atomic

5272 1 8.0590467496071643e+00 9.9627365715303497e+00 4.3051162956732725e+00 0 0 1
6009 1 2.8250902802168230e+00 4.7719121306650464e-01 8.9465458226057279e+00 1 1 0
5242 1 7.2973580433937340e+00 4.3192554867160116e+00 5.3685477068211549e+00 1 1 0
5273 1 8.1908443718534070e+00 4.2648907012581070e+00 8.0006410145911921e+00 1 1 1
168 1 8.4342868992639652e-02 5.1776384043892918e+00 1.0761698503760343e+01 0 1 1
4996 1 4.2186282241852275e+00 4.2018813983102241e+00 5.1561072387846867e+00 1 0 0
2888 1 1.0687478672528268e+00 7.3457859137949066e+00 8.8805185211127373e+00 0 0 1
222 1 7.4997376549843278e+00 6.5905715943924559e+00 4.0102430465121603e+00 0 0 0
1919 1 8.2181943091670873e-01 1.1155778705120026e+01 8.4106115456916193e+00 1 -1 1
4610 1 3.3365167880018252e+00 8.8984251242868702e+00 9.2225052715785374e+00 0 0 1
3373 1 9.0601436579782639e+00 3.3054130440507418e-01 7.2241127929368165e+00 0 1 0
5969 1 1.7017737711886418e+00 8.1620888088573462e+00 5.3561270829938437e+00 0 1 1
4948 1 3.8084358391175610e+00 7.1651671478978560e+00 6.6265171225149793e+00 1 0 0
2795 1 3.6347187233070990e+00 1.1499096223559354e+01 7.1682056158561913e+00 1 1 1
1865 1 5.5642107649010457e+00 8.6718219373503533e+00 5.1113088773171906e+00 1 1 1
4619 1 7.4743663412383272e+00 9.4307988649568930e+00 7.5224839765053844e+00 0 0 1
4821 1 6.7536517912302676e+00 4.5368642506828847e+00 1.1837715889436888e+01 1 1 1
1346 1 3.9236918964983403e+00 6.6604106455364622e+00 1.0681793930637239e+01 1 1 1
1662 1 4.5294439993420683e+00 1.3972720747937142e+01 9.3937932798457382e+00 0 0 0
4751 1 6.2347049690249285e+00 1.2130930532748742e+01 7.6739528365209146e+00 0 0 0
1876 1 6.9937330419246733e+00 7.2076614422181242e+00 1.0929211199251988e+01 1 0 0
119 1 8.5002418050873896e+00 1.4355389422441567e+01 7.1606116650465879e+00 0 1 0
4444 1 2.8335473544032324e+00 1.0693544885337984e+01 4.4889549226171059e+00 1 0 1
446 1 6.8627062864168167e+00 1.2800108121674572e+01 4.8889784639696092e+00 -1 1 1
2849 1 2.1822902772913206e+00 4.5598618957583241e+00 7.0179592020314185e+00 0 0 1
280 1 3.4357393764123714e+00 1.4573829215268793e+01 1.2398758005512198e+01 1 1 1
6262 1 2.1832535599222442e+00 1.3542015051516719e+01 6.1790725788292349e+00 1 0 0
3225 1 6.4516710464012688e+00 7.4642995459255412e-01 1.0650680652091463e+01 0 0 0
172 1 4.0913305660503685e+00 1.5692852286201736e+01 5.1354693302321852e+00 0 0 0
3429 1 2.4302314599767869e+00 1.5281815281677860e+00 1.1311274947661722e+01 1 1 0
3635 1 6.5965078457296729e+00 1.4211124704151093e+01 1.1484143619421216e+01 1 1 1
1508 1 3.7998433796385442e+00 1.7340374700885719e+00 6.3087471072295669e+00 0 1 1
4638 1 6.0319326451977737e+00 3.4199152705706828e+00 9.5734838242181510e+00 0 0 1
3058 1 6.4660269298166488e+00 1.2761516504097400e-01 6.0619525195295436e+00 0 1 0
4817 1 3.3618040616117080e+00 4.0768745574196883e+00 9.6551482892987082e+00 0 0 1
51 1 5.9413804987094538e+00 1.5695617132407252e+01 7.5923989401054008e+00 1 0 1
6323 1 9.7248214050772592e+00 1.2564688418564227e+01 4.4935209164675873e+00 0 0 1
4605 1 2.9619403348341602e+00 1.1786886970997420e+01 1.0510147276348651e+01 -1 0 1
428 1 8.3683444463248584e+00 7.0589881852131544e+00 8.6370794084442117e+00 1 0 1
2816 1 8.4657071307894682e+00 7.1380874286047202e-01 3.9071048987097696e+00 1 1 1
294 1 6.1694063607253788e+00 9.8065677692846549e+00 1.0008571978752302e+01 2 0 0
341 1 9.2254370005060640e+00 1.0336650403774017e+01 1.0932486106209385e+01 0 0 0
249 1 5.1047398101778931e+00 1.0902756932050350e+01 1.2158756213422357e+01 1 0 0
6116 1 2.0377257576145391e+00 1.5542348826349235e+01 8.5479715710744202e+00 -1 1 0
1587 1 9.3313873808007788e+00 1.6250645240692318e+01 9.5054586785058959e+00 2 0 0
6187 1 8.7475122055066112e+00 1.2958045821379141e+01 9.9382225779398539e+00 0 1 0
6264 1 6.3788260918440265e-01 1.8766820424272430e+00 6.6618020686800534e+00 0 0 1
3035 1 4.5436307004263821e+00 2.4965665920272286e+00 1.2940875498518777e+01 0 1 1
5976 1 9.2748493278212276e+00 1.7549910424014858e+00 1.8334015037491248e+01 1 0 1
6050 1 6.8933585681630172e+00 7.8163845562705037e-01 1.3745830686806150e+01 1 1 1
1596 1 4.7642382567168162e-01 3.5254064324679275e+00 1.4406445370863391e+01 1 0 1
4768 1 1.6595619247298227e-01 1.0783079936848749e+01 1.6765377259263449e+01 1 1 0
1379 1 8.2214739537573411e+00 8.0687479043328949e+00 1.3282527808342460e+01 -1 0 0
2005 1 6.7409766311084973e-01 6.1592522011559430e+00 1.3130456056545444e+01 2 0 1
309 1 1.0899596536289298e+00 1.0070162358977743e+01 1.4056928696112342e+01 1 0 0
4860 1 9.5378329841202962e+00 9.0278179791830082e-01 1.3768690442098613e+01 0 0 0
6007 1 2.2146305930133927e+00 6.5382426778676912e+00 1.6176866623533449e+01 0 1 0
5039 1 7.9571541652380402e+00 6.0958134789751979e+00 1.5003945713501526e+01 1 0 0
5190 1 5.1032159200053862e+00 5.0199344934078489e+00 1.4582469242472740e+01 -1 1 0
6255 1 1.3887749486626868e+00 1.4090169718226347e+01 1.8930673951202806e+01 1 0 1
1321 1 3.7754384172174804e+00 9.6323230357263814e+00 1.4102418613560976e+01 0 1 1
4819 1 4.4336611432733646e+00 1.0623471031337917e+01 1.6566155771945162e+01 -1 1 1
1992 1 5.2425726160178900e+00 1.5125497451861037e+01 2.0742681979611323e+01 1 0 0
6325 1 7.6097908999735111e+00 9.2168527486926788e+00 1.7436655498023562e+01 0 -1 0
219 1 7.2649020598512983e+00 1.0218358754619162e+01 1.4935694587000137e+01 1 0 1
6268 1 5.9970190744963698e+00 1.2866865499624794e+01 1.7229473324561404e+01 1 0 0
2944 1 9.5815667442284802e+00 3.2154646862018192e+00 1.4959593375365040e+01 0 -1 0
5230 1 4.5122183998384475e+00 1.5111696358554331e+01 1.6457878510700422e+01 0 0 0
1626 1 8.9088246861303428e+00 1.4771306447129036e+00 2.1078510815777545e+01 0 0 0
6095 1 9.5911068120179319e+00 4.8109536517865097e+00 1.2598578725374633e+01 1 0 0
64 1 9.4203070440790047e+00 1.5536040294560269e+01 1.4193784220293431e+01 0 0 0
4853 1 1.2428210334828180e-01 9.5554505277334574e+00 1.9181350726411750e+01 0 1 0
4651 1 8.5701871182942551e+00 1.3305113198959033e+01 1.5348245780016430e+01 1 1 1
4883 1 2.7901486736075669e+00 1.8978670981504413e+00 1.4926268479732258e+01 1 0 1
1760 1 4.2258530229937348e+00 4.2154865448657288e+00 1.7249618003701524e+01 0 1 0
293 1 9.6956246381281286e+00 9.3069177422345426e+00 2.0873251843207534e+01 0 0 0
1955 1 3.9836158660640422e+00 1.1693953313702539e+00 1.7386778393659498e+01 1 1 1
1777 1 6.6612771593619531e+00 6.6335630900128695e-01 1.6685794539502425e+01 0 0 0
312 1 3.0768715233795190e+00 6.1526699598292272e+00 2.1091437971454951e+01 1 0 0
259 1 7.4370131436502636e+00 3.7625547354135387e+00 1.7051771867350261e+01 1 0 0
6068 1 2.4724119409849421e+00 8.5998718540648422e+00 1.9973361638365347e+01 0 1 1
4851 1 8.6679162922272663e+00 1.1021865700638656e+01 1.9084992849857009e+01 -1 1 0
4952 1 8.8155368858435637e+00 5.1273870627080811e+00 1.8848459252520019e+01 0 0 0
3628 1 2.2406728897595691e+00 1.2567446838671108e+01 1.6720102057243320e+01 0 1 0
2927 1 5.2546850964117526e+00 4.7155409490813671e+00 1.9956451641738681e+01 0 0 1
3266 1 4.2259247898203851e+00 8.1138887337863519e+00 1.7849035322553178e+01 -1 0 1
2057 1 6.5102787518709828e+00 1.2748369431873446e+01 1.9917541525953773e+01 1 0 1
4788 1 6.5887992767901542e+00 7.0375529862340267e+00 1.9176831802993242e+01 0 1 0
1694 1 1.7593247154852629e+00 1.4337172267324501e+01 1.4515155323040343e+01 1 0 0
193 1 4.3275124064401549e+00 1.8068588692511389e+00 2.0195486082176654e+01 1 0 1
3621 1 3.2695532811089407e+00 6.6648360742851205e+00 1.3558347528476089e+01 0 0 0
4968 1 5.6922788396258843e+00 1.3068284530936930e+01 1.3972444866855225e+01 1 0 0
3157 1 8.5231517211999872e+00 1.4683663241372010e+01 2.0616898031644912e+01 -1 0 0
3153 1 7.9313121864346348e-01 1.2291374764230763e+01 1.2761479346379675e+01 0 0 1
1538 1 2.0439686132819568e-01 1.2083220133750045e+01 2.0626901210728029e+01 0 1 1
1921 1 9.7810910444489156e+00 7.4695073527158611e+00 1.6985332180765838e+01 1 0 0
3140 1 9.3008922032477481e-01 2.4097913911437252e+00 2.4321636816048777e+01 1 1 1
5026 1 2.7538292931812811e+00 1.6046924130340695e+01 2.4585762312260034e+01 1 0 1
1731 1 3.6959257371789671e+00 6.6816616210786544e+00 2.3779815833125951e+01 0 0 0
2827 1 6.8537337655989203e+00 3.0280520261225821e+00 2.1764796438218873e+01 1 1 0
675 2 4.9220000000000006e+00 1.2787731112280996e+01 2.6875588908252659e+01 0 0 0
3193 1 8.5843954494409154e+00 3.6200978721139889e+00 2.4685919931996665e+01 1 0 0
1659 1 3.3983762443040342e+00 3.8940204691937863e+00 2.4163967657603074e+01 1 1 0
1307 1 2.9694951897421569e+00 1.0521787937678024e+01 2.1756499927244768e+01 0 0 1
6258 1 6.0400305102175738e+00 7.6221933314081154e+00 2.4240045938736312e+01 0 0 0
6152 1 8.4565658778484156e+00 6.3057431306210150e+00 2.4715912246258071e+01 -1 0 0
673 2 4.9220000000000006e+00 1.5629449137232333e+01 2.6875588908252659e+01 0 0 0
4776 1 1.4745699838101547e+00 1.0599144107568462e+01 2.4069969117531759e+01 1 1 1
333 1 1.1013610924855177e+00 7.9207525097785041e+00 2.4023696041764719e+01 1 0 0
677 2 6.1524999999999990e+00 1.3498160618518829e+01 2.6875588908252659e+01 0 0 0
765 2 8.6135000000000002e+00 1.4919019630994494e+01 2.6875588908252659e+01 0 0 0
4931 1 2.8919228806594237e+00 1.4153334639147147e+01 2.1629756207531415e+01 0 0 1
1750 1 7.2788090764495950e+00 1.0303223362934094e+01 2.4256847504626428e+01 0 1 0
722 2 7.3829999999999991e+00 1.2787731112280996e+01 2.6875588908252659e+01 0 0 0
4450 1 5.7421097604171942e+00 1.0797483480772835e+01 2.1702966988315012e+01 0 2 1
5085 1 5.9422942721258654e+00 2.5145904457680541e+00 2.4171858932381660e+01 2 0 1
724 2 8.6135000000000002e+00 1.3498160618518835e+01 2.6875588908252659e+01 0 0 0
3117 1 5.5743820066255412e-01 1.6104603330169116e+01 2.1742405305831159e+01 1 0 0
4689 1 3.4620847630609242e+00 1.3175868798685082e+01 2.4127593260693928e+01 0 1 1
3369 1 8.2283775930869805e+00 1.5025960808454904e+01 2.3420445675991640e+01 1 -1 0
3427 1 6.1701384363095100e+00 1.3295426921243811e+01 2.4366105678994423e+01 1 0 1
720 2 7.3829999999999991e+00 1.5629449137232333e+01 2.6875588908252659e+01 0 0 0
552 2 0.0000000000000000e+00 2.8417180249513345e+00 2.6875588908252659e+01 0 0 0
554 2 0.0000000000000000e+00 0.0000000000000000e+00 2.6875588908252659e+01 0 0 0
556 2 1.2305000000000001e+00 7.1042950623783474e-01 2.6875588908252659e+01 0 0 0
563 2 1.2305000000000001e+00 2.1312885187134998e+00 2.6875588908252659e+01 0 0 0
565 2 2.4610000000000003e+00 2.8417180249513345e+00 2.6875588908252659e+01 0 0 0
567 2 2.4610000000000003e+00 0.0000000000000000e+00 2.6875588908252659e+01 0 0 0
569 2 3.6915000000000004e+00 7.1042950623783474e-01 2.6875588908252659e+01 0 0 0
584 2 3.6914999999999996e+00 2.1312885187134998e+00 2.6875588908252659e+01 0 0 0
586 2 4.9220000000000006e+00 2.8417180249513332e+00 2.6875588908252659e+01 0 0 0
588 2 4.9220000000000006e+00 0.0000000000000000e+00 2.6875588908252659e+01 0 0 0
590 2 6.1524999999999999e+00 7.1042950623783407e-01 2.6875588908252659e+01 0 0 0
613 2 6.1524999999999999e+00 2.1312885187134989e+00 2.6875588908252659e+01 0 0 0
615 2 7.3829999999999991e+00 2.8417180249513345e+00 2.6875588908252659e+01 0 0 0
617 2 7.3829999999999991e+00 0.0000000000000000e+00 2.6875588908252659e+01 0 0 0
619 2 8.6134999999999984e+00 7.1042950623783407e-01 2.6875588908252659e+01 0 0 0
650 2 8.6134999999999984e+00 2.1312885187135002e+00 2.6875588908252659e+01 0 0 0
559 2 0.0000000000000000e+00 4.2625770374269996e+00 2.6875588908252659e+01 0 0 0
561 2 1.2305000000000001e+00 4.9730065436648339e+00 2.6875588908252659e+01 0 0 0
576 2 1.2305000000000001e+00 6.3938655561404980e+00 2.6875588908252659e+01 0 0 0
580 2 2.4610000000000003e+00 4.2625770374269996e+00 2.6875588908252659e+01 0 0 0
582 2 3.6914999999999996e+00 4.9730065436648339e+00 2.6875588908252659e+01 0 0 0
605 2 3.6914999999999996e+00 6.3938655561404980e+00 2.6875588908252659e+01 0 0 0
557 2 0.0000000000000000e+00 7.1042950623783341e+00 2.6875588908252659e+01 0 0 0
578 2 2.4610000000000003e+00 7.1042950623783341e+00 2.6875588908252659e+01 0 0 0
609 2 4.9220000000000006e+00 4.2625770374269978e+00 2.6875588908252659e+01 0 0 0
611 2 6.1524999999999999e+00 4.9730065436648339e+00 2.6875588908252659e+01 0 0 0
642 2 6.1524999999999999e+00 6.3938655561404980e+00 2.6875588908252659e+01 0 0 0
646 2 7.3829999999999991e+00 4.2625770374269996e+00 2.6875588908252659e+01 0 0 0
648 2 8.6135000000000002e+00 4.9730065436648339e+00 2.6875588908252659e+01 0 0 0
687 2 8.6135000000000002e+00 6.3938655561404980e+00 2.6875588908252659e+01 0 0 0
607 2 4.9220000000000006e+00 7.1042950623783341e+00 2.6875588908252659e+01 0 0 0
644 2 7.3830000000000009e+00 7.1042950623783341e+00 2.6875588908252659e+01 0 0 0
572 2 0.0000000000000000e+00 8.5251540748539991e+00 2.6875588908252659e+01 0 0 0
574 2 1.2305000000000001e+00 9.2355835810918343e+00 2.6875588908252659e+01 0 0 0
601 2 2.4610000000000003e+00 8.5251540748539991e+00 2.6875588908252659e+01 0 0 0
603 2 3.6915000000000004e+00 9.2355835810918343e+00 2.6875588908252659e+01 0 0 0
570 2 0.0000000000000000e+00 1.1366872099805333e+01 2.6875588908252659e+01 0 0 0
597 2 1.2305000000000001e+00 1.0656442593567498e+01 2.6875588908252659e+01 0 0 0
599 2 2.4610000000000003e+00 1.1366872099805333e+01 2.6875588908252659e+01 0 0 0
634 2 3.6914999999999996e+00 1.0656442593567499e+01 2.6875588908252659e+01 0 0 0
638 2 4.9220000000000006e+00 8.5251540748539991e+00 2.6875588908252659e+01 0 0 0
640 2 6.1524999999999999e+00 9.2355835810918343e+00 2.6875588908252659e+01 0 0 0
683 2 7.3830000000000009e+00 8.5251540748539991e+00 2.6875588908252659e+01 0 0 0
685 2 8.6134999999999984e+00 9.2355835810918343e+00 2.6875588908252659e+01 0 0 0
636 2 4.9220000000000006e+00 1.1366872099805333e+01 2.6875588908252659e+01 0 0 0
679 2 6.1524999999999999e+00 1.0656442593567499e+01 2.6875588908252659e+01 0 0 0
681 2 7.3829999999999991e+00 1.1366872099805333e+01 2.6875588908252659e+01 0 0 0
726 2 8.6134999999999984e+00 1.0656442593567498e+01 2.6875588908252659e+01 0 0 0
591 2 0.0000000000000000e+00 1.5629449137232333e+01 2.6875588908252659e+01 0 0 0
628 2 2.4610000000000003e+00 1.5629449137232328e+01 2.6875588908252659e+01 0 0 0
671 2 3.6915000000000004e+00 1.4919019630994494e+01 2.6875588908252659e+01 0 0 0
595 2 1.2305000000000001e+00 1.3498160618518829e+01 2.6875588908252659e+01 0 0 0
626 2 1.2305000000000001e+00 1.4919019630994494e+01 2.6875588908252659e+01 0 0 0
630 2 2.4610000000000003e+00 1.2787731112280996e+01 2.6875588908252659e+01 0 0 0
593 2 0.0000000000000000e+00 1.2787731112280996e+01 2.6875588908252659e+01 0 0 0
632 2 3.6915000000000004e+00 1.3498160618518829e+01 2.6875588908252659e+01 0 0 0
718 2 6.1524999999999990e+00 1.4919019630994494e+01 2.6875588908252659e+01 0 0 0
5135 1 7.2067219652968806e+00 8.1599228121871850e+00 2.1566041707099910e+01 -2 1 -1
1551 1 5.4188864445420535e+00 1.6059496779954163e+01 2.3579543972628318e+01 -1 1 1
346 1 2.2852353561780863e+00 3.1792214913029393e+00 2.1552183042081086e+01 1 0 0
1802 1 5.5796308411077244e-01 8.4624044885048444e-01 2.1364092410875205e+01 0 2 0
4508 1 8.1842218959756696e+00 5.4848022983544711e+00 2.1807241368560678e+01 1 1 0
553 2 0.0000000000000000e+00 1.4208590124756650e+00 3.0031000000000052e+01 0 0 0
555 2 0.0000000000000000e+00 0.0000000000000000e+00 3.0031000000000052e+01 0 0 0
564 2 1.2305000000000001e+00 2.1312885187134998e+00 3.0031000000000052e+01 0 0 0
566 2 2.4610000000000003e+00 1.4208590124756650e+00 3.0031000000000052e+01 0 0 0
568 2 2.4610000000000003e+00 0.0000000000000000e+00 3.0031000000000052e+01 0 0 0
585 2 3.6914999999999996e+00 2.1312885187134998e+00 3.0031000000000052e+01 0 0 0
562 2 1.2305000000000001e+00 3.5521475311891644e+00 3.0031000000000052e+01 0 0 0
583 2 3.6914999999999996e+00 3.5521475311891644e+00 3.0031000000000052e+01 0 0 0
881 2 0.0000000000000000e+00 2.8417180249513345e+00 3.3186411091744958e+01 0 0 0
882 2 0.0000000000000000e+00 0.0000000000000000e+00 3.3186411091744958e+01 0 0 0
883 2 1.2305000000000001e+00 7.1042950623783474e-01 3.3186411091744958e+01 0 0 0
887 2 1.2305000000000001e+00 2.1312885187134998e+00 3.3186411091744958e+01 0 0 0
888 2 2.4610000000000003e+00 2.8417180249513345e+00 3.3186411091744958e+01 0 0 0
889 2 2.4610000000000003e+00 0.0000000000000000e+00 3.3186411091744958e+01 0 0 0
890 2 3.6915000000000004e+00 7.1042950623783474e-01 3.3186411091744958e+01 0 0 0
898 2 3.6914999999999996e+00 2.1312885187134998e+00 3.3186411091744958e+01 0 0 0
587 2 4.9220000000000006e+00 1.4208590124756650e+00 3.0031000000000052e+01 0 0 0
589 2 4.9220000000000006e+00 0.0000000000000000e+00 3.0031000000000052e+01 0 0 0
614 2 6.1524999999999999e+00 2.1312885187134989e+00 3.0031000000000052e+01 0 0 0
616 2 7.3829999999999991e+00 1.4208590124756659e+00 3.0031000000000052e+01 0 0 0
618 2 7.3829999999999991e+00 0.0000000000000000e+00 3.0031000000000052e+01 0 0 0
651 2 8.6134999999999984e+00 2.1312885187135002e+00 3.0031000000000052e+01 0 0 0
612 2 6.1524999999999999e+00 3.5521475311891644e+00 3.0031000000000052e+01 0 0 0
649 2 8.6134999999999984e+00 3.5521475311891657e+00 3.0031000000000052e+01 0 0 0
899 2 4.9220000000000006e+00 2.8417180249513332e+00 3.3186411091744958e+01 0 0 0
900 2 4.9220000000000006e+00 0.0000000000000000e+00 3.3186411091744958e+01 0 0 0
901 2 6.1524999999999999e+00 7.1042950623783407e-01 3.3186411091744958e+01 0 0 0
913 2 6.1524999999999999e+00 2.1312885187134989e+00 3.3186411091744958e+01 0 0 0
914 2 7.3829999999999991e+00 2.8417180249513345e+00 3.3186411091744958e+01 0 0 0
915 2 7.3829999999999991e+00 0.0000000000000000e+00 3.3186411091744958e+01 0 0 0
916 2 8.6134999999999984e+00 7.1042950623783407e-01 3.3186411091744958e+01 0 0 0
932 2 8.6134999999999984e+00 2.1312885187135002e+00 3.3186411091744958e+01 0 0 0
558 2 0.0000000000000000e+00 5.6834360499026637e+00 3.0031000000000052e+01 0 0 0
560 2 0.0000000000000000e+00 4.2625770374269996e+00 3.0031000000000052e+01 0 0 0
577 2 1.2305000000000001e+00 6.3938655561404980e+00 3.0031000000000052e+01 0 0 0
579 2 2.4610000000000003e+00 5.6834360499026637e+00 3.0031000000000052e+01 0 0 0
581 2 2.4610000000000003e+00 4.2625770374269996e+00 3.0031000000000052e+01 0 0 0
606 2 3.6914999999999996e+00 6.3938655561404980e+00 3.0031000000000052e+01 0 0 0
575 2 1.2305000000000001e+00 7.8147245686161639e+00 3.0031000000000052e+01 0 0 0
604 2 3.6914999999999996e+00 7.8147245686161639e+00 3.0031000000000052e+01 0 0 0
885 2 0.0000000000000000e+00 4.2625770374269996e+00 3.3186411091744958e+01 0 0 0
886 2 1.2305000000000001e+00 4.9730065436648339e+00 3.3186411091744958e+01 0 0 0
894 2 1.2305000000000001e+00 6.3938655561404980e+00 3.3186411091744958e+01 0 0 0
896 2 2.4610000000000003e+00 4.2625770374269996e+00 3.3186411091744958e+01 0 0 0
897 2 3.6914999999999996e+00 4.9730065436648339e+00 3.3186411091744958e+01 0 0 0
909 2 3.6914999999999996e+00 6.3938655561404980e+00 3.3186411091744958e+01 0 0 0
884 2 0.0000000000000000e+00 7.1042950623783341e+00 3.3186411091744958e+01 0 0 0
895 2 2.4610000000000003e+00 7.1042950623783341e+00 3.3186411091744958e+01 0 0 0
608 2 4.9220000000000006e+00 5.6834360499026637e+00 3.0031000000000052e+01 0 0 0
610 2 4.9220000000000006e+00 4.2625770374269978e+00 3.0031000000000052e+01 0 0 0
643 2 6.1524999999999999e+00 6.3938655561404980e+00 3.0031000000000052e+01 0 0 0
645 2 7.3829999999999991e+00 5.6834360499026637e+00 3.0031000000000052e+01 0 0 0
647 2 7.3829999999999991e+00 4.2625770374269996e+00 3.0031000000000052e+01 0 0 0
688 2 8.6135000000000002e+00 6.3938655561404980e+00 3.0031000000000052e+01 0 0 0
641 2 6.1524999999999999e+00 7.8147245686161639e+00 3.0031000000000052e+01 0 0 0
686 2 8.6135000000000002e+00 7.8147245686161639e+00 3.0031000000000052e+01 0 0 0
911 2 4.9220000000000006e+00 4.2625770374269978e+00 3.3186411091744958e+01 0 0 0
912 2 6.1524999999999999e+00 4.9730065436648339e+00 3.3186411091744958e+01 0 0 0
928 2 6.1524999999999999e+00 6.3938655561404980e+00 3.3186411091744958e+01 0 0 0
930 2 7.3829999999999991e+00 4.2625770374269996e+00 3.3186411091744958e+01 0 0 0
931 2 8.6135000000000002e+00 4.9730065436648339e+00 3.3186411091744958e+01 0 0 0
951 2 8.6135000000000002e+00 6.3938655561404980e+00 3.3186411091744958e+01 0 0 0
910 2 4.9220000000000006e+00 7.1042950623783341e+00 3.3186411091744958e+01 0 0 0
929 2 7.3830000000000009e+00 7.1042950623783341e+00 3.3186411091744958e+01 0 0 0
571 2 0.0000000000000000e+00 9.9460130873296642e+00 3.0031000000000052e+01 0 0 0
573 2 0.0000000000000000e+00 8.5251540748539991e+00 3.0031000000000052e+01 0 0 0
600 2 2.4610000000000003e+00 9.9460130873296642e+00 3.0031000000000052e+01 0 0 0
602 2 2.4610000000000003e+00 8.5251540748539991e+00 3.0031000000000052e+01 0 0 0
596 2 1.2305000000000001e+00 1.2077301606043163e+01 3.0031000000000052e+01 0 0 0
598 2 1.2305000000000001e+00 1.0656442593567498e+01 3.0031000000000052e+01 0 0 0
633 2 3.6914999999999996e+00 1.2077301606043163e+01 3.0031000000000052e+01 0 0 0
635 2 3.6914999999999996e+00 1.0656442593567499e+01 3.0031000000000052e+01 0 0 0
892 2 0.0000000000000000e+00 8.5251540748539991e+00 3.3186411091744958e+01 0 0 0
893 2 1.2305000000000001e+00 9.2355835810918343e+00 3.3186411091744958e+01 0 0 0
907 2 2.4610000000000003e+00 8.5251540748539991e+00 3.3186411091744958e+01 0 0 0
908 2 3.6915000000000004e+00 9.2355835810918343e+00 3.3186411091744958e+01 0 0 0
891 2 0.0000000000000000e+00 1.1366872099805333e+01 3.3186411091744958e+01 0 0 0
905 2 1.2305000000000001e+00 1.0656442593567498e+01 3.3186411091744958e+01 0 0 0
906 2 2.4610000000000003e+00 1.1366872099805333e+01 3.3186411091744958e+01 0 0 0
924 2 3.6914999999999996e+00 1.0656442593567499e+01 3.3186411091744958e+01 0 0 0
637 2 4.9220000000000006e+00 9.9460130873296642e+00 3.0031000000000052e+01 0 0 0
639 2 4.9220000000000006e+00 8.5251540748539991e+00 3.0031000000000052e+01 0 0 0
682 2 7.3830000000000009e+00 9.9460130873296642e+00 3.0031000000000052e+01 0 0 0
684 2 7.3830000000000009e+00 8.5251540748539991e+00 3.0031000000000052e+01 0 0 0
678 2 6.1524999999999999e+00 1.2077301606043163e+01 3.0031000000000052e+01 0 0 0
680 2 6.1524999999999999e+00 1.0656442593567499e+01 3.0031000000000052e+01 0 0 0
725 2 8.6135000000000002e+00 1.2077301606043163e+01 3.0031000000000052e+01 0 0 0
727 2 8.6134999999999984e+00 1.0656442593567498e+01 3.0031000000000052e+01 0 0 0
926 2 4.9220000000000006e+00 8.5251540748539991e+00 3.3186411091744958e+01 0 0 0
927 2 6.1524999999999999e+00 9.2355835810918343e+00 3.3186411091744958e+01 0 0 0
949 2 7.3830000000000009e+00 8.5251540748539991e+00 3.3186411091744958e+01 0 0 0
950 2 8.6134999999999984e+00 9.2355835810918343e+00 3.3186411091744958e+01 0 0 0
925 2 4.9220000000000006e+00 1.1366872099805333e+01 3.3186411091744958e+01 0 0 0
947 2 6.1524999999999999e+00 1.0656442593567499e+01 3.3186411091744958e+01 0 0 0
948 2 7.3829999999999991e+00 1.1366872099805333e+01 3.3186411091744958e+01 0 0 0
971 2 8.6134999999999984e+00 1.0656442593567498e+01 3.3186411091744958e+01 0 0 0
594 2 0.0000000000000000e+00 1.2787731112280996e+01 3.0031000000000052e+01 0 0 0
631 2 2.4610000000000003e+00 1.2787731112280996e+01 3.0031000000000052e+01 0 0 0
592 2 0.0000000000000000e+00 1.4208590124756663e+01 3.0031000000000052e+01 0 0 0
627 2 1.2305000000000001e+00 1.4919019630994494e+01 3.0031000000000052e+01 0 0 0
629 2 2.4610000000000003e+00 1.4208590124756663e+01 3.0031000000000052e+01 0 0 0
672 2 3.6915000000000004e+00 1.4919019630994494e+01 3.0031000000000052e+01 0 0 0
903 2 0.0000000000000000e+00 1.2787731112280996e+01 3.3186411091744958e+01 0 0 0
904 2 1.2305000000000001e+00 1.3498160618518829e+01 3.3186411091744958e+01 0 0 0
922 2 2.4610000000000003e+00 1.2787731112280996e+01 3.3186411091744958e+01 0 0 0
923 2 3.6915000000000004e+00 1.3498160618518829e+01 3.3186411091744958e+01 0 0 0
902 2 0.0000000000000000e+00 1.5629449137232333e+01 3.3186411091744958e+01 0 0 0
920 2 1.2305000000000001e+00 1.4919019630994494e+01 3.3186411091744958e+01 0 0 0
921 2 2.4610000000000003e+00 1.5629449137232328e+01 3.3186411091744958e+01 0 0 0
943 2 3.6915000000000004e+00 1.4919019630994494e+01 3.3186411091744958e+01 0 0 0
676 2 4.9220000000000006e+00 1.2787731112280996e+01 3.0031000000000052e+01 0 0 0
723 2 7.3829999999999991e+00 1.2787731112280996e+01 3.0031000000000052e+01 0 0 0
674 2 4.9220000000000006e+00 1.4208590124756663e+01 3.0031000000000052e+01 0 0 0
719 2 6.1524999999999990e+00 1.4919019630994494e+01 3.0031000000000052e+01 0 0 0
721 2 7.3830000000000009e+00 1.4208590124756663e+01 3.0031000000000052e+01 0 0 0
766 2 8.6135000000000002e+00 1.4919019630994494e+01 3.0031000000000052e+01 0 0 0
945 2 4.9220000000000006e+00 1.2787731112280996e+01 3.3186411091744958e+01 0 0 0
946 2 6.1524999999999990e+00 1.3498160618518829e+01 3.3186411091744958e+01 0 0 0
969 2 7.3829999999999991e+00 1.2787731112280996e+01 3.3186411091744958e+01 0 0 0
970 2 8.6135000000000002e+00 1.3498160618518835e+01 3.3186411091744958e+01 0 0 0
944 2 4.9220000000000006e+00 1.5629449137232333e+01 3.3186411091744958e+01 0 0 0
967 2 6.1524999999999990e+00 1.4919019630994494e+01 3.3186411091744958e+01 0 0 0
968 2 7.3829999999999991e+00 1.5629449137232333e+01 3.3186411091744958e+01 0 0 0
991 2 8.6135000000000002e+00 1.4919019630994494e+01 3.3186411091744958e+01 0 0 0
1783 1 6.2909938937971104e+00 1.8675183719757151e+00 3.5605330673915844e+01 1 1 -1
130 1 2.9945308607954670e+00 1.3242125097829540e+01 3.5943941599416860e+01 0 0 0
2024 1 8.6955751870070390e+00 1.7241612735736975e+00 3.8280861865044841e+01 1 1 -1
5302 1 1.4196778464665667e+00 8.2362588966858097e-01 3.5858579568891855e+01 1 0 0
3204 1 5.6587568825150996e+00 3.0531622334148532e+00 3.8489870296557115e+01 1 0 -1
526 1 8.9807816878699924e+00 8.5798496675933311e-01 3.5684571310828318e+01 0 0 0
91 1 2.6335731249594180e-01 1.2656320721183482e+01 3.5833935109702992e+01 1 0 -1
3304 1 9.0523550849645353e+00 1.4967414790573317e+01 3.8177935224113341e+01 0 0 0
1366 1 9.6060256470979137e+00 1.1108735076226093e+01 3.5590454713916948e+01 0 0 -1
6228 1 7.7266942649635943e+00 1.3137986161139233e+01 3.5863253102215168e+01 1 0 0
1607 1 4.4899026478936133e+00 4.1577735834554499e+00 3.5820984143894648e+01 1 1 0
1251 1 1.4130468926205491e+00 3.7043563375513866e+00 3.6147934622855999e+01 0 0 -1
1991 1 8.3878382326315037e+00 1.6325123814133725e+01 3.5648546676218587e+01 0 1 0
1766 1 3.2354557227479939e+00 9.7764125707206126e+00 3.6461334698849711e+01 -1 -1 -1
3461 1 8.8514344571987404e+00 5.3082347202938802e+00 3.6149367632666241e+01 1 0 0
4926 1 5.9380709805508127e+00 1.5540813199384168e+01 3.8093975154726124e+01 1 -1 -1
5176 1 6.2676832994453058e+00 6.4292814123794475e+00 3.5504899060907192e+01 0 0 -1
5239 1 7.7916758707705713e-01 8.4774678815617968e+00 3.6545136769113611e+01 1 1 -1
2043 1 5.3043180908299457e+00 1.1749583194075802e+01 3.5569778897228382e+01 0 1 -1
5018 1 7.0273002194299323e+00 9.3860583174457357e+00 3.5499695044809329e+01 1 0 0
3612 1 5.2311898391026128e+00 7.9359021653660440e+00 3.7659485363698522e+01 1 1 0
4781 1 9.1930116819766923e+00 9.4526484232167096e+00 3.8013937340291164e+01 1 -1 0
2967 1 2.6610704533305913e+00 1.0981185867516549e+01 3.8709015175189961e+01 1 0 0
4746 1 3.3021613080819416e+00 6.0223459030396258e+00 3.8056315766586806e+01 1 1 -1
1244 1 2.6344263675186221e+00 1.6057510095947176e+01 3.5430894475845434e+01 0 0 0
1814 1 3.9178760542990694e+00 1.3518591609517294e+01 3.8771153390652771e+01 0 0 -1
1490 1 4.0736036295241211e+00 4.1063506714545492e-02 3.8782579849607131e+01 0 1 0
6290 1 1.8209214901887094e-02 6.1627604579399362e+00 3.5381176455974149e+01 1 0 0
4586 1 4.1654973135119251e+00 3.5674181812216901e+00 4.2793398575383648e+01 -1 1 -1
1768 1 1.3181839681162124e+00 3.6842552008712053e+00 3.8994872631307246e+01 0 1 -1
261 1 2.7727747637512978e+00 1.8893598252717753e-01 4.5220466772763118e+01 1 0 0
3561 1 5.1908872181693122e-01 7.4374124547898859e+00 4.7621651342130960e+01 1 0 0
4613 1 7.6472254757888916e+00 1.2481112937161658e+01 4.6099743672059191e+01 1 0 0
4535 1 5.3238435799668915e+00 3.4189285809618251e+00 4.5653021959255611e+01 1 0 -1
536 1 7.5539878744094580e+00 4.6047356036429630e+00 4.5250721555383024e+01 0 0 0
4969 1 7.4374774006878459e+00 5.8349491442153871e+00 4.1391066111414901e+01 0 0 0
5132 1 4.7483217480748445e+00 5.4467384088732196e+00 4.0319114325963696e+01 1 0 0
3345 1 7.8987488380114410e+00 1.2272473792950905e+01 3.8854724492326639e+01 0 0 0
4717 1 2.6732702731490012e+00 6.8798592429758854e+00 4.1840145636286778e+01 1 0 0
5084 1 3.1866050318762329e+00 9.5606700868300099e+00 4.1191487385201086e+01 1 0 -1
3103 1 8.8779259921808396e-01 7.6480767759980823e+00 3.9416922224336417e+01 1 1 0
469 1 9.2637591476212364e+00 1.4807602665816761e+01 4.5965120963500212e+01 0 1 -1
6099 1 7.8834331410933256e-01 1.5425144462674979e+01 4.6323725576629712e+01 -1 -1 0
2833 1 8.9909867766318730e+00 7.3141585037886845e+00 4.3259182819736580e+01 1 1 -1
5986 1 1.8945751174798453e+00 1.0616040669586052e+01 4.3397567295440311e+01 0 0 0
3346 1 2.1766999586368190e+00 1.3518158670417083e+01 4.3348097552340818e+01 1 0 -1
3692 1 6.7869301344441411e+00 8.4273947413944033e+00 4.0201028692917646e+01 1 1 0
2080 1 8.5269831905371571e+00 1.2056749114602932e+01 4.3198193713566070e+01 1 0 -1
2823 1 5.6237827337367117e+00 1.0266203819423435e+01 4.2293194953052918e+01 0 0 0
2922 1 1.9489780047839007e+00 1.4831044638123517e+01 4.0752950569510290e+01 0 0 0
4809 1 8.8016595144658680e+00 9.4911439641355191e+00 4.1618808988233738e+01 1 1 -1
4723 1 5.0930812772555338e+00 1.1694400982895017e+00 4.3830424251801574e+01 0 1 0
3306 1 3.9200254805218437e-01 1.8300299119675512e+00 4.4736377597331384e+01 1 0 -1
6181 1 1.6700481462187284e+00 4.0762220986084650e+00 4.3946762010061860e+01 -1 0 0
3172 1 4.5887074446931200e+00 1.0743617676231108e+00 4.7352749863343263e+01 -1 1 0
3704 1 1.8781598003013214e-01 5.9563117084215280e+00 4.2810293723477571e+01 0 0 0