LAMMPS data file via write_data, version 29 Sep 2021, timestep = 100000

4065 atoms
2 atom types

0 49.22 xlo xhi
0 49.019635930410494 ylo yhi
2.000617341996012 25.840214904288544 zlo zhi

Masses

1 18.015
2 12.01

Atoms # atomic

83 2 0 2.8417180249513345 3.4366018972817773 0 0 0
85 2 0 0 3.4366018972817773 0 0 0
87 2 1.2305000000000001 0.7104295062378347 3.4366018972817773 0 0 0
94 2 1.2305000000000001 2.1312885187135 3.4366018972817773 0 0 0
96 2 2.4610000000000003 2.8417180249513345 3.4366018972817773 0 0 0
98 2 2.4610000000000003 0 3.4366018972817773 0 0 0
100 2 3.6915000000000004 0.7104295062378347 3.4366018972817773 0 0 0
115 2 3.6914999999999996 2.1312885187135 3.4366018972817773 0 0 0
117 2 4.922000000000001 2.841718024951333 3.4366018972817773 0 0 0
119 2 4.922000000000001 0 3.4366018972817773 0 0 0
90 2 0 4.262577037427 3.4366018972817773 0 0 0
111 2 2.4610000000000003 4.262577037427 3.4366018972817773 0 0 0
140 2 4.922000000000001 4.262577037426998 3.4366018972817773 0 0 0
92 2 1.2305000000000001 4.973006543664834 3.4366018972817773 0 0 0
107 2 1.2305000000000001 6.393865556140498 3.4366018972817773 0 0 0
113 2 3.6914999999999996 4.973006543664834 3.4366018972817773 0 0 0
136 2 3.6914999999999996 6.393865556140498 3.4366018972817773 0 0 0
88 2 0 7.104295062378334 3.4366018972817773 0 0 0
103 2 0 8.525154074854 3.4366018972817773 0 0 0
105 2 1.2305000000000001 9.235583581091834 3.4366018972817773 0 0 0
109 2 2.4610000000000003 7.104295062378334 3.4366018972817773 0 0 0
132 2 2.4610000000000003 8.525154074854 3.4366018972817773 0 0 0
134 2 3.6915000000000004 9.235583581091834 3.4366018972817773 0 0 0
138 2 4.922000000000001 7.104295062378334 3.4366018972817773 0 0 0
169 2 4.922000000000001 8.525154074854 3.4366018972817773 0 0 0
84 2 0 1.420859012475665 6.30857100785323 0 0 0
86 2 0 0 6.30857100785323 0 0 0
95 2 1.2305000000000001 2.1312885187135 6.30857100785323 0 0 0
97 2 2.4610000000000003 1.420859012475665 6.30857100785323 0 0 0
99 2 2.4610000000000003 0 6.30857100785323 0 0 0
412 2 0 2.8417180249513345 9.180540118424094 0 0 0
413 2 0 0 9.180540118424094 0 0 0
414 2 1.2305000000000001 0.7104295062378347 9.180540118424094 0 0 0
418 2 1.2305000000000001 2.1312885187135 9.180540118424094 0 0 0
419 2 2.4610000000000003 2.8417180249513345 9.180540118424094 0 0 0
420 2 2.4610000000000003 0 9.180540118424094 0 0 0
116 2 3.6914999999999996 2.1312885187135 6.30857100785323 0 0 0
118 2 4.922000000000001 1.420859012475665 6.30857100785323 0 0 0
120 2 4.922000000000001 0 6.30857100785323 0 0 0
421 2 3.6915000000000004 0.7104295062378347 9.180540118424094 0 0 0
429 2 3.6914999999999996 2.1312885187135 9.180540118424094 0 0 0
430 2 4.922000000000001 2.841718024951333 9.180540118424094 0 0 0
431 2 4.922000000000001 0 9.180540118424094 0 0 0
91 2 0 4.262577037427 6.30857100785323 0 0 0
93 2 1.2305000000000001 3.5521475311891644 6.30857100785323 0 0 0
112 2 2.4610000000000003 4.262577037427 6.30857100785323 0 0 0
416 2 0 4.262577037427 9.180540118424094 0 0 0
427 2 2.4610000000000003 4.262577037427 9.180540118424094 0 0 0
114 2 3.6914999999999996 3.5521475311891644 6.30857100785323 0 0 0
141 2 4.922000000000001 4.262577037426998 6.30857100785323 0 0 0
442 2 4.922000000000001 4.262577037426998 9.180540118424094 0 0 0
89 2 0 5.683436049902664 6.30857100785323 0 0 0
108 2 1.2305000000000001 6.393865556140498 6.30857100785323 0 0 0
110 2 2.4610000000000003 5.683436049902664 6.30857100785323 0 0 0
417 2 1.2305000000000001 4.973006543664834 9.180540118424094 0 0 0
425 2 1.2305000000000001 6.393865556140498 9.180540118424094 0 0 0
137 2 3.6914999999999996 6.393865556140498 6.30857100785323 0 0 0
139 2 4.922000000000001 5.683436049902664 6.30857100785323 0 0 0
428 2 3.6914999999999996 4.973006543664834 9.180540118424094 0 0 0
440 2 3.6914999999999996 6.393865556140498 9.180540118424094 0 0 0
104 2 0 8.525154074854 6.30857100785323 0 0 0
106 2 1.2305000000000001 7.814724568616164 6.30857100785323 0 0 0
133 2 2.4610000000000003 8.525154074854 6.30857100785323 0 0 0
415 2 0 7.104295062378334 9.180540118424094 0 0 0
423 2 0 8.525154074854 9.180540118424094 0 0 0
424 2 1.2305000000000001 9.235583581091834 9.180540118424094 0 0 0
426 2 2.4610000000000003 7.104295062378334 9.180540118424094 0 0 0
438 2 2.4610000000000003 8.525154074854 9.180540118424094 0 0 0
135 2 3.6914999999999996 7.814724568616164 6.30857100785323 0 0 0
170 2 4.922000000000001 8.525154074854 6.30857100785323 0 0 0
439 2 3.6915000000000004 9.235583581091834 9.180540118424094 0 0 0
441 2 4.922000000000001 7.104295062378334 9.180540118424094 0 0 0
457 2 4.922000000000001 8.525154074854 9.180540118424094 0 0 0
995 1 3.1331167795016768 3.4251876280371074 11.580237877350052 1 0 0
2962 1 3.2581965965194453 0.5155511062754177 11.589294290224549 0 1 1
779 1 2.501591812062051 7.508983154929632 11.88538062115561 0 1 0
2861 1 5.290787740519476 7.272148418706572 11.996012289982671 1 0 0
968 1 0.9135233065877659 5.206114854388578 12.305170973102253 0 0 -1
1054 1 0.2889965203770469 1.7200419147154666 11.64672021823125 -1 1 0
2894 1 5.803926118827272 4.642275978394193 12.355432993159027 1 1 -1
3958 1 0.38170228579426146 8.511422070346695 21.766451223634956 1 1 0
2968 1 4.524855707911386 0.8558148861515105 14.16258599419808 1 1 0
1912 1 2.033557428650357 3.8067427913498864 17.797964908977043 0 1 -1
3031 1 5.3392655960373965 7.725161846012095 14.841430304673013 0 0 0
3073 1 5.185286573803244 0.8188206851091889 20.305122067049883 1 1 -1
3963 1 0.34440749619542055 7.7419421625465 18.895711396181753 0 1 0
4047 1 2.7017308743135864 4.249084010360797 14.865067416725093 -1 0 0
35 1 1.304233728649959 2.28543948324029 22.018730777437558 0 0 1
1087 1 0.5198018594647783 1.319115694192128 17.749449663276117 1 0 -1
3921 1 5.077162911335329 0.7008355275796121 24.523171457464834 -1 1 -1
1076 1 0.7593651740538462 2.231159599751258 24.974471916417265 0 0 0
874 1 3.846781650889578 7.97386674062473 19.772807624219578 1 0 0
1979 1 1.8716939713377032 6.8849157979409625 24.502010902489857 0 1 0
3922 1 2.7038742882116096 8.682272207475409 17.337159300712432 0 0 0
793 1 1.1975413152020808 4.552681016946862 20.4701706699673 0 1 0
922 1 5.336302469147735 4.912820754960347 21.936749562910073 0 0 -1
957 1 4.302560746795977 4.0998020839657014 19.376410110035817 0 0 0
3066 1 6.094450140691004 5.141689647598667 25.027939468231818 1 0 -1
1804 1 2.9261964392993494 9.35303321928779 24.464341792634528 0 0 0
4 1 2.950483114906623 4.183654396879376 24.908924254504814 0 0 1
2948 1 4.024032024269221 2.705839408729631 22.643132928593268 1 1 0
4021 1 2.463553088643942 7.131659604139561 15.005271283872844 0 -1 -1
1051 1 5.184151369943757 3.627457423534605 15.084686416410339 0 -1 0
3944 1 2.762111387881681 6.3582921872497495 21.609977394540785 1 0 0
2832 1 2.14036814044903 0.5991414143673609 19.70262618794414 0 0 0
2822 1 1.3327403580735564 2.0725832916148064 14.293585415805898 0 0 0
984 1 0.7465819158415292 9.35199101629297 14.103755051552218 1 0 -1
1908 1 1.934642122378526 0.04598699936981632 15.606252394695906 1 1 -1
101 2 0 11.366872099805333 3.4366018972817773 0 0 0
124 2 0 12.787731112280996 3.4366018972817773 0 0 0
126 2 1.2305000000000001 13.49816061851883 3.4366018972817773 0 0 0
128 2 1.2305000000000001 10.656442593567498 3.4366018972817773 0 0 0
130 2 2.4610000000000003 11.366872099805333 3.4366018972817773 0 0 0
161 2 2.4610000000000003 12.787731112280996 3.4366018972817773 0 0 0
163 2 3.6915000000000004 13.49816061851883 3.4366018972817773 0 0 0
165 2 3.6914999999999996 10.6564425935675 3.4366018972817773 0 0 0
167 2 4.922000000000001 11.366872099805333 3.4366018972817773 0 0 0
206 2 4.922000000000001 12.787731112280996 3.4366018972817773 0 0 0
208 2 6.152499999999999 13.49816061851883 3.4366018972817773 0 0 0
122 2 0 15.629449137232333 3.4366018972817773 0 0 0
153 2 0 17.050308149708 3.4366018972817773 0 0 0
157 2 1.2305000000000001 14.919019630994494 3.4366018972817773 0 0 0
159 2 2.4610000000000003 15.629449137232328 3.4366018972817773 0 0 0
198 2 2.4610000000000003 17.050308149708 3.4366018972817773 0 0 0
202 2 3.6915000000000004 14.919019630994494 3.4366018972817773 0 0 0
204 2 4.922000000000001 15.629449137232333 3.4366018972817773 0 0 0
245 2 4.922000000000001 17.050308149708 3.4366018972817773 0 0 0
249 2 6.152499999999999 14.919019630994494 3.4366018972817773 0 0 0
155 2 1.2305000000000001 17.76073765594583 3.4366018972817773 0 0 0
194 2 1.2305000000000001 19.181596668421495 3.4366018972817773 0 0 0
200 2 3.6914999999999996 17.76073765594583 3.4366018972817773 0 0 0
241 2 3.6914999999999996 19.181596668421495 3.4366018972817773 0 0 0
102 2 0 9.946013087329664 6.30857100785323 0 0 0
131 2 2.4610000000000003 9.946013087329664 6.30857100785323 0 0 0
168 2 4.922000000000001 9.946013087329664 6.30857100785323 0 0 0
125 2 0 12.787731112280996 6.30857100785323 0 0 0
127 2 1.2305000000000001 12.077301606043163 6.30857100785323 0 0 0
129 2 1.2305000000000001 10.656442593567498 6.30857100785323 0 0 0
162 2 2.4610000000000003 12.787731112280996 6.30857100785323 0 0 0
422 2 0 11.366872099805333 9.180540118424094 0 0 0
434 2 0 12.787731112280996 9.180540118424094 0 0 0
435 2 1.2305000000000001 13.49816061851883 9.180540118424094 0 0 0
436 2 1.2305000000000001 10.656442593567498 9.180540118424094 0 0 0
437 2 2.4610000000000003 11.366872099805333 9.180540118424094 0 0 0
453 2 2.4610000000000003 12.787731112280996 9.180540118424094 0 0 0
164 2 3.6914999999999996 12.077301606043163 6.30857100785323 0 0 0
166 2 3.6914999999999996 10.6564425935675 6.30857100785323 0 0 0
207 2 4.922000000000001 12.787731112280996 6.30857100785323 0 0 0
454 2 3.6915000000000004 13.49816061851883 9.180540118424094 0 0 0
455 2 3.6914999999999996 10.6564425935675 9.180540118424094 0 0 0
456 2 4.922000000000001 11.366872099805333 9.180540118424094 0 0 0
476 2 4.922000000000001 12.787731112280996 9.180540118424094 0 0 0
477 2 6.152499999999999 13.49816061851883 9.180540118424094 0 0 0
123 2 0 14.208590124756663 6.30857100785323 0 0 0
160 2 2.4610000000000003 14.208590124756663 6.30857100785323 0 0 0
205 2 4.922000000000001 14.208590124756663 6.30857100785323 0 0 0
154 2 0 17.050308149708 6.30857100785323 0 0 0
156 2 1.2305000000000001 16.339878643470165 6.30857100785323 0 0 0
158 2 1.2305000000000001 14.919019630994494 6.30857100785323 0 0 0
199 2 2.4610000000000003 17.050308149708 6.30857100785323 0 0 0
433 2 0 15.629449137232333 9.180540118424094 0 0 0
449 2 0 17.050308149708 9.180540118424094 0 0 0
451 2 1.2305000000000001 14.919019630994494 9.180540118424094 0 0 0
452 2 2.4610000000000003 15.629449137232328 9.180540118424094 0 0 0
472 2 2.4610000000000003 17.050308149708 9.180540118424094 0 0 0
201 2 3.6915000000000004 16.339878643470165 6.30857100785323 0 0 0
203 2 3.6915000000000004 14.919019630994494 6.30857100785323 0 0 0
246 2 4.922000000000001 17.050308149708 6.30857100785323 0 0 0
250 2 6.152499999999999 14.919019630994494 6.30857100785323 0 0 0
474 2 3.6915000000000004 14.919019630994494 9.180540118424094 0 0 0
475 2 4.922000000000001 15.629449137232333 9.180540118424094 0 0 0
496 2 4.922000000000001 17.050308149708 9.180540118424094 0 0 0
498 2 6.152499999999999 14.919019630994494 9.180540118424094 0 0 0
152 2 0 18.471167162183658 6.30857100785323 0 0 0
195 2 1.2305000000000001 19.181596668421495 6.30857100785323 0 0 0
197 2 2.4610000000000003 18.471167162183658 6.30857100785323 0 0 0
450 2 1.2305000000000001 17.76073765594583 9.180540118424094 0 0 0
470 2 1.2305000000000001 19.181596668421495 9.180540118424094 0 0 0
242 2 3.6914999999999996 19.181596668421495 6.30857100785323 0 0 0
244 2 4.922000000000001 18.471167162183658 6.30857100785323 0 0 0
473 2 3.6914999999999996 17.76073765594583 9.180540118424094 0 0 0
494 2 3.6914999999999996 19.181596668421495 9.180540118424094 0 0 0
1016 1 2.027897084965852 13.898608553531602 11.813848653692677 0 1 -1
3124 1 5.679880921750018 13.756685764739997 11.53783075516845 1 0 0
2922 1 4.835868837561408 10.823859645614938 11.67144897145571 1 0 0
2963 1 0.8699511102672576 16.419664913560986 11.527223976302032 1 0 0
3863 1 5.381228459618016 16.39466405775102 11.905282483855318 1 1 0
845 1 1.8182137707973856 10.6626290293255 11.679611089048903 0 0 0
16 1 3.2405892717234073 18.773708651654612 11.605898984175882 0 0 1
1122 1 1.3898167882177774 17.795209612412194 13.825328952812425 0 0 0
2900 1 2.6573007449555335 14.585413567621744 14.401054958444535 -1 -1 0
3832 1 3.1635745854992208 12.190325523292005 15.84548444357213 0 -1 0
2081 1 4.861640695446285 13.139949182345395 21.47219764603648 1 0 0
1057 1 2.05748822390848 10.766312626013727 19.74941460829868 1 1 -1
9 1 4.567476811366424 19.13842127703007 18.037911382322395 1 1 1
784 1 1.301759748208445 11.448734754803192 24.389626015300138 1 0 -1
1930 1 0.47148152091493356 18.77122367043235 21.481520126173358 1 1 -1
1903 1 3.107313650905312 15.409908277549079 21.612724368829653 1 -1 -2
788 1 4.53969623687983 15.257956455402763 18.13485648829388 0 0 -1
3121 1 0.45368196716493714 13.983958294441175 21.559501816390053 0 0 0
2992 1 4.5055161786035125 16.344525967613155 14.79408556692939 1 0 -1
3982 1 1.6356079830006098 15.254934887797411 18.571074707468313 0 0 0
1091 1 0.5425007876545054 15.661097411205715 15.826042770232432 0 1 -1
3859 1 2.7871011935370373 17.83075686886373 20.002071451731695 0 0 1
1844 1 0.8152530971826072 10.855652725362567 16.236432196311025 1 1 1
815 1 5.183563190850201 19.026660734295906 24.720149118053143 0 2 0
3882 1 4.340805400966637 12.487792011314568 18.725492951684902 1 0 1
56 1 1.0062639392297243 14.32023465689151 24.318024409139763 1 0 0
2101 1 4.108352106928818 12.823372997532715 24.524744670375288 0 0 0
2040 1 5.177289343745043 17.97168006888933 22.04104397917913 0 -1 -1
57 1 3.8297007909413425 15.748682718799506 24.316260145788807 0 0 0
2069 1 1.6233496315258094 16.97272679101061 25.136497929258624 1 0 1
3862 1 5.503253269224491 10.15588236067757 24.88060354175625 0 0 0
28 1 4.866580753823813 10.722620216533816 14.513745964835087 0 1 0
1081 1 3.7195887279015887 19.09324305917675 15.281897230582915 2 1 0
3884 1 3.8058871599612725 10.060443851944562 21.685168776794548 0 0 0
151 2 0 19.89202617465933 3.4366018972817773 0 0 0
196 2 2.4610000000000003 19.89202617465933 3.4366018972817773 0 0 0
243 2 4.922000000000001 19.89202617465933 3.4366018972817773 0 0 0
188 2 0 24.154603212086325 3.4366018972817773 0 0 0
190 2 0 21.312885187135 3.4366018972817773 0 0 0
192 2 1.2304999999999993 22.023314693372832 3.4366018972817773 0 0 0
233 2 1.2304999999999993 23.4441737058485 3.4366018972817773 0 0 0
235 2 2.4610000000000003 24.154603212086325 3.4366018972817773 0 0 0
237 2 2.4610000000000003 21.312885187134995 3.4366018972817773 0 0 0
239 2 3.6914999999999996 22.023314693372832 3.4366018972817773 0 0 0
280 2 3.6915000000000004 23.4441737058485 3.4366018972817773 0 0 0
282 2 4.922000000000001 24.154603212086325 3.4366018972817773 0 0 0
284 2 4.922000000000001 21.312885187134995 3.4366018972817773 0 0 0
286 2 6.152499999999999 22.023314693372832 3.4366018972817773 0 0 0
1130 2 0 25.575462224561992 3.4366018972817773 0 0 0
1132 2 1.2305000000000001 26.285891730799833 3.4366018972817773 0 0 0
1140 2 1.230500000000001 27.706750743275496 3.4366018972817773 0 0 0
1144 2 2.4610000000000003 25.575462224561992 3.4366018972817773 0 0 0
1146 2 3.691499999999999 26.285891730799833 3.4366018972817773 0 0 0
1162 2 3.6914999999999996 27.706750743275496 3.4366018972817773 0 0 0
1166 2 4.922000000000001 25.575462224561992 3.4366018972817773 0 0 0
1192 2 6.152499999999999 27.706750743275496 3.4366018972817773 0 0 0
1128 2 0 28.417180249513333 3.4366018972817773 0 0 0
1142 2 2.4610000000000003 28.417180249513326 3.4366018972817773 0 0 0
1164 2 4.922000000000001 28.417180249513336 3.4366018972817773 0 0 0
193 2 1.2305000000000001 20.60245568089716 6.30857100785323 0 0 0
448 2 0 19.89202617465933 9.180540118424094 0 0 0
471 2 2.4610000000000003 19.89202617465933 9.180540118424094 0 0 0
240 2 3.6915000000000004 20.60245568089716 6.30857100785323 0 0 0
495 2 4.922000000000001 19.89202617465933 9.180540118424094 0 0 0
189 2 0 22.733744199610655 6.30857100785323 0 0 0
191 2 0 21.312885187135 6.30857100785323 0 0 0
234 2 1.2304999999999993 23.4441737058485 6.30857100785323 0 0 0
236 2 2.4610000000000003 22.733744199610655 6.30857100785323 0 0 0
238 2 2.4610000000000003 21.312885187134995 6.30857100785323 0 0 0
467 2 0 24.154603212086325 9.180540118424094 0 0 0
468 2 0 21.312885187135 9.180540118424094 0 0 0
469 2 1.2304999999999993 22.023314693372832 9.180540118424094 0 0 0
490 2 1.2304999999999993 23.4441737058485 9.180540118424094 0 0 0
491 2 2.4610000000000003 24.154603212086325 9.180540118424094 0 0 0
492 2 2.4610000000000003 21.312885187134995 9.180540118424094 0 0 0
281 2 3.6915000000000004 23.4441737058485 6.30857100785323 0 0 0
283 2 4.922000000000001 22.733744199610655 6.30857100785323 0 0 0
285 2 4.922000000000001 21.312885187134995 6.30857100785323 0 0 0
493 2 3.6914999999999996 22.023314693372832 9.180540118424094 0 0 0
514 2 3.6915000000000004 23.4441737058485 9.180540118424094 0 0 0
515 2 4.922000000000001 24.154603212086325 9.180540118424094 0 0 0
516 2 4.922000000000001 21.312885187134995 9.180540118424094 0 0 0
517 2 6.152499999999999 22.023314693372832 9.180540118424094 0 0 0
1129 2 0 26.99632123703766 6.30857100785323 0 0 0
1131 2 0 25.575462224561992 6.30857100785323 0 0 0
1133 2 1.2305000000000001 24.865032718324155 6.30857100785323 0 0 0
1141 2 1.230500000000001 27.706750743275496 6.30857100785323 0 0 0
1143 2 2.4610000000000003 26.99632123703766 6.30857100785323 0 0 0
1145 2 2.4610000000000003 25.575462224561992 6.30857100785323 0 0 0
1444 2 0 25.575462224561992 9.180540118424094 0 0 0
1445 2 1.2305000000000001 26.285891730799833 9.180540118424094 0 0 0
1449 2 1.230500000000001 27.706750743275496 9.180540118424094 0 0 0
1451 2 2.4610000000000003 25.575462224561992 9.180540118424094 0 0 0
1147 2 3.6914999999999996 24.865032718324166 6.30857100785323 0 0 0
1163 2 3.6914999999999996 27.706750743275496 6.30857100785323 0 0 0
1165 2 4.922000000000001 26.99632123703766 6.30857100785323 0 0 0
1167 2 4.922000000000001 25.575462224561992 6.30857100785323 0 0 0
1169 2 6.152499999999999 24.865032718324155 6.30857100785323 0 0 0
1193 2 6.152499999999999 27.706750743275496 6.30857100785323 0 0 0
1452 2 3.691499999999999 26.285891730799833 9.180540118424094 0 0 0
1460 2 3.6914999999999996 27.706750743275496 9.180540118424094 0 0 0
1462 2 4.922000000000001 25.575462224561992 9.180540118424094 0 0 0
1475 2 6.152499999999999 27.706750743275496 9.180540118424094 0 0 0
1139 2 1.2304999999999993 29.127609755751163 6.30857100785323 0 0 0
1443 2 0 28.417180249513333 9.180540118424094 0 0 0
1450 2 2.4610000000000003 28.417180249513326 9.180540118424094 0 0 0
1161 2 3.691499999999999 29.127609755751152 6.30857100785323 0 0 0
1191 2 6.152499999999998 29.127609755751152 6.30857100785323 0 0 0
1461 2 4.922000000000001 28.417180249513336 9.180540118424094 0 0 0
3800 1 5.286404027550265 20.742024336323198 11.653974955831508 0 0 1
900 1 4.8195355227152525 23.61384397529966 12.11320962702891 0 0 1
1889 1 3.8464052363681973 26.577064736510515 11.721527415457787 0 0 0
911 1 1.1344883852547458 20.547631709353844 11.760651204924581 2 0 0
2913 1 2.172804210051307 22.96771897993505 12.552682021184912 1 0 0
3899 1 0.7375314309872485 25.500259116711945 11.5312320785715 1 -1 0
1038 1 1.7668983973743515 28.687480481903336 11.695294700193747 0 0 0
861 1 0.5345097101285218 25.542317265948352 18.080103272160926 0 0 0
3931 1 5.07805364475725 20.760444604962956 21.678232896946767 -1 0 0
1011 1 0.3952748780987442 21.760081342606632 16.130131835472547 0 0 0
812 1 1.30898920561383 24.730232304540973 14.71895714228405 0 0 -1
842 1 2.891332979575865 23.702185498185564 22.227022682297065 1 -1 0
2077 1 2.9635145437113626 24.199919581724945 17.106820948397456 1 0 1
2838 1 6.071273505060768 28.877265546942482 18.535417762873138 1 -1 0
66 1 0.6938817754863107 24.09745515310571 20.447231901877885 0 1 0
1984 1 1.6757979101482345 24.901873421519785 24.778515042113582 0 1 0
1030 1 4.578600160006199 21.958586313779872 18.839128677517195 0 0 -1
1931 1 1.7650428563191045 22.0545625683176 18.655463790196155 0 1 -1
2856 1 2.766996318301925 26.731591764540116 21.440485837690765 1 1 0
2840 1 5.323717918428949 23.608272937830943 15.088427657369282 0 2 0
2086 1 3.7714318990446176 26.80779784287376 24.100063175474737 0 -1 0
2064 1 5.231698055550144 26.214211095251148 17.44250279028214 0 1 0
816 1 4.653278430832423 23.518782533599637 24.819087058255636 0 0 0
4058 1 0.0898160596476955 26.64508166565998 21.456504518746506 0 1 0
3967 1 4.498297397237112 24.85430142452234 20.028630039662595 -1 0 -1
914 1 0.9901072089024264 28.144748664823418 18.309050198418127 1 0 0
3050 1 3.3260132369683295 28.658747742115246 16.938705271827835 1 0 0
2072 1 2.39651457286003 20.720697367981717 22.18134238930918 0 0 0
3005 1 1.085421182839081 22.207092841971107 24.622285565534305 1 0 -1
3801 1 5.519492911805738 20.73842276504304 14.468527888321747 1 -1 0
3964 1 2.707979012532574 27.476368753974665 14.38756526203503 1 0 0
941 1 2.640456202578133 19.681632943379366 24.658696890080567 0 1 1
1136 2 0 29.83803926198899 3.4366018972817773 0 0 0
1138 2 1.2304999999999993 30.54846876822683 3.4366018972817773 0 0 0
1158 2 2.4610000000000003 29.83803926198899 3.4366018972817773 0 0 0
1160 2 3.6915000000000004 30.54846876822683 3.4366018972817773 0 0 0
1188 2 4.922000000000001 29.83803926198899 3.4366018972817773 0 0 0
1134 2 0 32.67975728694033 3.4366018972817773 0 0 0
1150 2 0 34.100616299416 3.4366018972817773 0 0 0
1154 2 1.2304999999999993 31.969327780702493 3.4366018972817773 0 0 0
1156 2 2.4610000000000003 32.67975728694034 3.4366018972817773 0 0 0
1180 2 2.4609999999999985 34.100616299416 3.4366018972817773 0 0 0
1184 2 3.6914999999999996 31.969327780702493 3.4366018972817773 0 0 0
1186 2 4.9220000000000015 32.67975728694034 3.4366018972817773 0 0 0
1218 2 4.922000000000001 34.100616299416 3.4366018972817773 0 0 0
1152 2 1.230500000000001 34.81104580565383 3.4366018972817773 0 0 0
1182 2 3.691500000000002 34.81104580565383 3.4366018972817773 0 0 0
1148 2 0 36.94233432436734 3.4366018972817773 0 0 0
1172 2 0 38.36319333684299 3.4366018972817773 0 0 0
1176 2 1.2304999999999993 36.231904818129486 3.4366018972817773 0 0 0
1178 2 2.461000000000002 36.94233432436734 3.4366018972817773 0 0 0
1210 2 2.4610000000000003 38.36319333684299 3.4366018972817773 0 0 0
1214 2 3.6914999999999996 36.231904818129486 3.4366018972817773 0 0 0
1216 2 4.922000000000001 36.942334324367316 3.4366018972817773 0 0 0
1255 2 4.922000000000001 38.36319333684299 3.4366018972817773 0 0 0
1174 2 1.230500000000001 39.07362284308084 3.4366018972817773 0 0 0
1212 2 3.691500000000002 39.07362284308082 3.4366018972817773 0 0 0
1135 2 0 31.258898274464656 6.30857100785323 0 0 0
1137 2 0 29.83803926198899 6.30857100785323 0 0 0
1157 2 2.4609999999999985 31.258898274464656 6.30857100785323 0 0 0
1159 2 2.4610000000000003 29.83803926198899 6.30857100785323 0 0 0
1447 2 0 29.83803926198899 9.180540118424094 0 0 0
1448 2 1.2304999999999993 30.54846876822683 9.180540118424094 0 0 0
1458 2 2.4610000000000003 29.83803926198899 9.180540118424094 0 0 0
1187 2 4.921999999999998 31.258898274464656 6.30857100785323 0 0 0
1189 2 4.922000000000001 29.83803926198899 6.30857100785323 0 0 0
1459 2 3.6915000000000004 30.54846876822683 9.180540118424094 0 0 0
1473 2 4.922000000000001 29.83803926198899 9.180540118424094 0 0 0
1151 2 0 34.100616299416 6.30857100785323 0 0 0
1153 2 1.2304999999999993 33.39018679317816 6.30857100785323 0 0 0
1155 2 1.2304999999999993 31.969327780702493 6.30857100785323 0 0 0
1181 2 2.4609999999999985 34.100616299416 6.30857100785323 0 0 0
1446 2 0 32.67975728694033 9.180540118424094 0 0 0
1454 2 0 34.100616299416 9.180540118424094 0 0 0
1456 2 1.2304999999999993 31.969327780702493 9.180540118424094 0 0 0
1457 2 2.4610000000000003 32.67975728694034 9.180540118424094 0 0 0
1469 2 2.4609999999999985 34.100616299416 9.180540118424094 0 0 0
1183 2 3.691499999999998 33.39018679317816 6.30857100785323 0 0 0
1185 2 3.6914999999999996 31.969327780702493 6.30857100785323 0 0 0
1219 2 4.922000000000001 34.100616299416 6.30857100785323 0 0 0
1221 2 6.152499999999999 33.39018679317816 6.30857100785323 0 0 0
1471 2 3.6914999999999996 31.969327780702493 9.180540118424094 0 0 0
1472 2 4.9220000000000015 32.67975728694034 9.180540118424094 0 0 0
1488 2 4.922000000000001 34.100616299416 9.180540118424094 0 0 0
1455 2 1.230500000000001 34.81104580565383 9.180540118424094 0 0 0
1470 2 3.691500000000002 34.81104580565383 9.180540118424094 0 0 0
1149 2 0 35.52147531189165 6.30857100785323 0 0 0
1173 2 0 38.36319333684299 6.30857100785323 0 0 0
1175 2 1.2304999999999993 37.65276383060515 6.30857100785323 0 0 0
1177 2 1.2304999999999993 36.231904818129486 6.30857100785323 0 0 0
1179 2 2.4609999999999985 35.52147531189166 6.30857100785323 0 0 0
1211 2 2.4610000000000003 38.36319333684299 6.30857100785323 0 0 0
1453 2 0 36.94233432436734 9.180540118424094 0 0 0
1465 2 0 38.36319333684299 9.180540118424094 0 0 0
1467 2 1.2304999999999993 36.231904818129486 9.180540118424094 0 0 0
1468 2 2.461000000000002 36.94233432436734 9.180540118424094 0 0 0
1484 2 2.4610000000000003 38.36319333684299 9.180540118424094 0 0 0
1213 2 3.6914999999999996 37.65276383060515 6.30857100785323 0 0 0
1215 2 3.6914999999999996 36.231904818129486 6.30857100785323 0 0 0
1217 2 4.922000000000001 35.52147531189166 6.30857100785323 0 0 0
1256 2 4.922000000000001 38.36319333684299 6.30857100785323 0 0 0
1258 2 6.152499999999998 37.65276383060515 6.30857100785323 0 0 0
1486 2 3.6914999999999996 36.231904818129486 9.180540118424094 0 0 0
1487 2 4.922000000000001 36.942334324367316 9.180540118424094 0 0 0
1506 2 4.922000000000001 38.36319333684299 9.180540118424094 0 0 0
1466 2 1.230500000000001 39.07362284308084 9.180540118424094 0 0 0
1485 2 3.691500000000002 39.07362284308082 9.180540118424094 0 0 0
1831 1 1.1321884739907575 36.42765514950661 11.71120906421072 0 -1 1
3900 1 2.5613787219849016 31.235308816484967 12.272339484823503 1 0 0
3988 1 2.8926088642709646 34.10720805364431 11.917997758164113 2 1 1
3798 1 5.709360205947267 34.47767925894238 11.890140792349051 1 -1 0
4044 1 5.322222063532465 29.750392071631616 11.601247247786963 0 1 -1
2874 1 4.747470823635583 38.176167647573784 12.673817097744779 1 1 0
1982 1 2.619624532343054 31.0270067860985 15.133806486284056 0 1 1
2916 1 5.7692732756965865 33.670075699991614 21.858110114602127 1 -1 0
3106 1 3.1412659733694706 32.44263105056142 18.83502781270734 0 0 1
2864 1 5.8318419169550015 31.12541810930348 24.58644639557187 1 0 0
879 1 5.111608188410456 31.382719195663455 17.426008481641382 1 0 1
3987 1 3.507621632811837 34.22773489514326 14.717236694739707 1 0 1
2997 1 1.2551056450587341 33.31011224506413 16.78417777969834 1 1 0
3823 1 3.3471177672916834 29.52663807481013 24.40592394341622 2 0 1
2955 1 3.909302916681825 36.86863422577672 15.136372593751048 1 0 0
1836 1 0.8989889200778618 36.940062364943344 14.645783714004558 0 0 0
2921 1 0.5087370942439788 32.99093096872899 20.37299094222438 2 -1 -1
3902 1 2.942277212811329 32.29747587975657 22.080945221541363 1 0 0
1962 1 3.5896599304993693 29.533020307495793 21.75774075861729 -1 -1 0
870 1 1.5165215785058719 38.97135220722505 24.603421059627184 0 0 0
3114 1 2.941468401530927 37.160571052508445 18.00471936228267 1 0 0
1009 1 1.3943725807463763 35.743045122545105 20.796524854732617 1 0 -1
3002 1 1.342738127753542 36.32247812136957 23.664531830804975 0 -1 -1
2013 1 5.912818572867642 32.610127101789885 14.871314578673674 0 0 -1
1798 1 5.187556129358219 37.65773048465175 21.411225152969312 1 0 0
821 1 4.226813673124226 35.287409476397414 19.996217288062958 0 0 1
1953 1 2.351803529260877 32.92569515001244 24.821424776351392 2 0 2
2093 1 4.501037425215516 38.13726440838232 24.1204184392519 0 0 0
859 1 3.7084721963151295 35.42473457189242 25.191301056914842 -1 0 0
2113 1 0.705652472931104 36.02691390319835 17.299574757475554 1 0 1
1934 1 0.5729267064048736 29.776085446046835 24.65891070655777 0 1 -1
1080 1 0.8504810291233791 29.65644752041868 20.757910515995952 0 -1 0
1061 1 5.181446102906295 29.43716606312275 14.489243840585884 1 1 1
1170 2 0 41.20491136179432 3.4366018972817773 0 0 0
1206 2 1.230500000000001 40.494481855556494 3.4366018972817773 0 0 0
1208 2 2.4610000000000003 41.20491136179432 3.4366018972817773 0 0 0
1251 2 3.6914999999999996 40.494481855556494 3.4366018972817773 0 0 0
1253 2 4.922000000000003 41.20491136179432 3.4366018972817773 0 0 0
1296 2 6.152499999999998 40.494481855556494 3.4366018972817773 0 0 0
1202 2 0 42.62577037427 3.4366018972817773 0 0 0
1204 2 1.2304999999999993 43.33619988050783 3.4366018972817773 0 0 0
1247 2 2.4610000000000003 42.62577037427 3.4366018972817773 0 0 0
1249 2 3.691500000000002 43.33619988050783 3.4366018972817773 0 0 0
1292 2 4.922000000000001 42.62577037426999 3.4366018972817773 0 0 0
1200 2 0 45.46748839922133 3.4366018972817773 0 0 0
1243 2 1.2304999999999993 44.757058892983494 3.4366018972817773 0 0 0
1245 2 2.4610000000000003 45.46748839922133 3.4366018972817773 0 0 0
1288 2 3.6914999999999996 44.757058892983494 3.4366018972817773 0 0 0
1290 2 4.922000000000001 45.46748839922133 3.4366018972817773 0 0 0
1239 2 0 46.888347411697 3.4366018972817773 0 0 0
1241 2 1.230500000000001 47.59877691793481 3.4366018972817773 0 0 0
1284 2 2.4609999999999985 46.888347411697 3.4366018972817773 0 0 0
1286 2 3.6914999999999996 47.598776917934835 3.4366018972817773 0 0 0
1329 2 4.922000000000001 46.888347411697 3.4366018972817773 0 0 0
1171 2 0 39.78405234931866 6.30857100785323 0 0 0
1205 2 1.230500000000001 41.91534086803216 6.30857100785323 0 0 0
1207 2 1.230500000000001 40.494481855556494 6.30857100785323 0 0 0
1209 2 2.4610000000000003 39.78405234931866 6.30857100785323 0 0 0
1464 2 0 41.20491136179432 9.180540118424094 0 0 0