LAMMPS data file via write_data, version 29 Sep 2021, timestep = 8000000

4065 atoms
2 atom types

0 49.22 xlo xhi
0 49.019635930410494 ylo yhi
1.0583875411134773 26.782444705172608 zlo zhi

Masses

1 18.015
2 12.01

Atoms # atomic

83 2 0 2.8417180249513345 2.607883026108718 0 0 0
85 2 0 0 2.607883026108718 0 0 0
87 2 1.2305000000000001 0.7104295062378347 2.607883026108718 0 0 0
94 2 1.2305000000000001 2.1312885187135 2.607883026108718 0 0 0
96 2 2.4610000000000003 2.8417180249513345 2.607883026108718 0 0 0
98 2 2.4610000000000003 0 2.607883026108718 0 0 0
100 2 3.6915000000000004 0.7104295062378347 2.607883026108718 0 0 0
115 2 3.6914999999999996 2.1312885187135 2.607883026108718 0 0 0
117 2 4.922000000000001 2.841718024951333 2.607883026108718 0 0 0
119 2 4.922000000000001 0 2.607883026108718 0 0 0
90 2 0 4.262577037427 2.607883026108718 0 0 0
111 2 2.4610000000000003 4.262577037427 2.607883026108718 0 0 0
140 2 4.922000000000001 4.262577037426998 2.607883026108718 0 0 0
92 2 1.2305000000000001 4.973006543664834 2.607883026108718 0 0 0
107 2 1.2305000000000001 6.393865556140498 2.607883026108718 0 0 0
113 2 3.6914999999999996 4.973006543664834 2.607883026108718 0 0 0
136 2 3.6914999999999996 6.393865556140498 2.607883026108718 0 0 0
88 2 0 7.104295062378334 2.607883026108718 0 0 0
103 2 0 8.525154074854 2.607883026108718 0 0 0
105 2 1.2305000000000001 9.235583581091834 2.607883026108718 0 0 0
109 2 2.4610000000000003 7.104295062378334 2.607883026108718 0 0 0
132 2 2.4610000000000003 8.525154074854 2.607883026108718 0 0 0
134 2 3.6915000000000004 9.235583581091834 2.607883026108718 0 0 0
138 2 4.922000000000001 7.104295062378334 2.607883026108718 0 0 0
169 2 4.922000000000001 8.525154074854 2.607883026108718 0 0 0
84 2 0 1.420859012475665 5.706873996097819 0 0 0
86 2 0 0 5.706873996097819 0 0 0
95 2 1.2305000000000001 2.1312885187135 5.706873996097819 0 0 0
97 2 2.4610000000000003 1.420859012475665 5.706873996097819 0 0 0
99 2 2.4610000000000003 0 5.706873996097819 0 0 0
412 2 0 2.8417180249513345 8.805864966088954 0 0 0
413 2 0 0 8.805864966088954 0 0 0
414 2 1.2305000000000001 0.7104295062378347 8.805864966088954 0 0 0
418 2 1.2305000000000001 2.1312885187135 8.805864966088954 0 0 0
419 2 2.4610000000000003 2.8417180249513345 8.805864966088954 0 0 0
420 2 2.4610000000000003 0 8.805864966088954 0 0 0
116 2 3.6914999999999996 2.1312885187135 5.706873996097819 0 0 0
118 2 4.922000000000001 1.420859012475665 5.706873996097819 0 0 0
120 2 4.922000000000001 0 5.706873996097819 0 0 0
421 2 3.6915000000000004 0.7104295062378347 8.805864966088954 0 0 0
429 2 3.6914999999999996 2.1312885187135 8.805864966088954 0 0 0
430 2 4.922000000000001 2.841718024951333 8.805864966088954 0 0 0
431 2 4.922000000000001 0 8.805864966088954 0 0 0
91 2 0 4.262577037427 5.706873996097819 0 0 0
93 2 1.2305000000000001 3.5521475311891644 5.706873996097819 0 0 0
112 2 2.4610000000000003 4.262577037427 5.706873996097819 0 0 0
416 2 0 4.262577037427 8.805864966088954 0 0 0
427 2 2.4610000000000003 4.262577037427 8.805864966088954 0 0 0
114 2 3.6914999999999996 3.5521475311891644 5.706873996097819 0 0 0
141 2 4.922000000000001 4.262577037426998 5.706873996097819 0 0 0
442 2 4.922000000000001 4.262577037426998 8.805864966088954 0 0 0
89 2 0 5.683436049902664 5.706873996097819 0 0 0
108 2 1.2305000000000001 6.393865556140498 5.706873996097819 0 0 0
110 2 2.4610000000000003 5.683436049902664 5.706873996097819 0 0 0
417 2 1.2305000000000001 4.973006543664834 8.805864966088954 0 0 0
425 2 1.2305000000000001 6.393865556140498 8.805864966088954 0 0 0
137 2 3.6914999999999996 6.393865556140498 5.706873996097819 0 0 0
139 2 4.922000000000001 5.683436049902664 5.706873996097819 0 0 0
428 2 3.6914999999999996 4.973006543664834 8.805864966088954 0 0 0
440 2 3.6914999999999996 6.393865556140498 8.805864966088954 0 0 0
104 2 0 8.525154074854 5.706873996097819 0 0 0
106 2 1.2305000000000001 7.814724568616164 5.706873996097819 0 0 0
133 2 2.4610000000000003 8.525154074854 5.706873996097819 0 0 0
415 2 0 7.104295062378334 8.805864966088954 0 0 0
423 2 0 8.525154074854 8.805864966088954 0 0 0
424 2 1.2305000000000001 9.235583581091834 8.805864966088954 0 0 0
426 2 2.4610000000000003 7.104295062378334 8.805864966088954 0 0 0
438 2 2.4610000000000003 8.525154074854 8.805864966088954 0 0 0
135 2 3.6914999999999996 7.814724568616164 5.706873996097819 0 0 0
170 2 4.922000000000001 8.525154074854 5.706873996097819 0 0 0
439 2 3.6915000000000004 9.235583581091834 8.805864966088954 0 0 0
441 2 4.922000000000001 7.104295062378334 8.805864966088954 0 0 0
457 2 4.922000000000001 8.525154074854 8.805864966088954 0 0 0
900 1 0.4780967496421892 3.515332029361427 11.475880924422666 0 -1 1
2919 1 1.0929554574020663 0.861247122724942 12.182549365829376 0 2 1
1991 1 5.396155454264352 3.7508644698304483 11.084464962066285 3 0 -1
46 1 4.9798876579890585 1.1719599667168497 12.194073719766427 -3 1 0
3971 1 2.877408427635459 4.949374201136387 12.147855140799512 -2 -1 -1
3000 1 2.7231084826507974 7.701137692486028 11.362175063457745 0 -3 0
3965 1 5.069618097052132 9.160610783751805 11.955586212778105 0 0 1
3920 1 0.4651556008311292 9.160243818321554 11.556942832237619 -5 1 0
1025 1 0.9038271363787673 3.6648734766534017 15.560456693231862 1 2 1
2845 1 0.9700895309132157 0.9847643019127935 14.845192432247975 2 2 0
3800 1 5.443969434448869 1.0985693241827885 14.953824071534507 0 0 1
2117 1 5.091658199485249 3.6728931315695794 15.676172483521682 -2 -1 0
856 1 0.9311584997087072 3.8551994475909153 18.598746354822012 0 -3 1
986 1 5.28550570720698 3.7908556428335447 18.45851089926404 4 1 0
1916 1 3.099104238987415 5.256054480665284 14.88096528458529 0 2 0
4020 1 3.2738283172887215 7.806561200871724 15.674444603786096 -1 -2 -1
1852 1 5.5795372659662466 9.14253990131493 14.529318919024472 -2 2 0
903 1 0.9979671332151635 8.881136339257745 14.342586778133072 3 1 -1
2915 1 2.988213461634039 7.87860426448418 18.385729613860235 0 5 0
2857 1 1.0706588540745485 0.9907331884763089 18.89317498949925 2 1 0
2966 1 0.8024809471555455 0.6871597254954505 21.49597570301028 0 4 1
1935 1 5.180577186136272 1.1409603682325127 21.563148972104308 -3 1 0
1050 1 5.238299891680709 1.0874916784855624 19.003306308374313 0 -1 -1
1851 1 5.277410256136837 3.800811899385575 22.79603795601256 1 -1 0
3873 1 2.7711487381446442 5.165226534618833 22.62761473983401 -1 1 0
1068 1 3.153120386149408 5.1319495878501495 19.59770659185009 -1 4 0
2953 1 5.382460755425127 9.180555942075701 21.645522001095067 -1 -5 0
784 1 0.7802401931199854 9.11709993949191 19.501212420764062 0 1 -1
985 1 5.286317317036973 9.177846556101406 19.021466429225157 0 -1 0
780 1 0.7240780587926041 9.29389578068485 22.314107951893405 0 2 0
849 1 0.4126557902054859 3.517310203776544 22.551047701640805 1 -1 -1
1120 1 5.177318499365577 0.8469074504958994 25.917562298248576 3 -1 1
3014 1 4.898674160337553 3.429422333467512 25.43866633622288 2 0 1
3070 1 0.5488684082120097 3.4067925189845956 25.302227258570518 0 2 0
1081 1 3.1955529424793707 7.841058254626621 23.00353998233124 5 2 0
932 1 5.0476689861864195 9.014318625244265 25.837051986780487 -1 1 1
898 1 2.743310428879496 5.251266241579399 25.591460297739864 0 2 0
52 1 2.7573303461744008 8.074535601135533 25.77921028335996 2 1 1
3958 1 0.46901892656693656 9.461624437510684 25.322303828573155 -1 2 0
1976 1 0.6824796975249425 0.6800840750066645 25.84009909826038 2 -4 0
101 2 0 11.366872099805333 2.607883026108718 0 0 0
124 2 0 12.787731112280996 2.607883026108718 0 0 0
126 2 1.2305000000000001 13.49816061851883 2.607883026108718 0 0 0
128 2 1.2305000000000001 10.656442593567498 2.607883026108718 0 0 0
130 2 2.4610000000000003 11.366872099805333 2.607883026108718 0 0 0
161 2 2.4610000000000003 12.787731112280996 2.607883026108718 0 0 0
163 2 3.6915000000000004 13.49816061851883 2.607883026108718 0 0 0
165 2 3.6914999999999996 10.6564425935675 2.607883026108718 0 0 0
167 2 4.922000000000001 11.366872099805333 2.607883026108718 0 0 0
206 2 4.922000000000001 12.787731112280996 2.607883026108718 0 0 0
208 2 6.152499999999999 13.49816061851883 2.607883026108718 0 0 0
122 2 0 15.629449137232333 2.607883026108718 0 0 0
153 2 0 17.050308149708 2.607883026108718 0 0 0
157 2 1.2305000000000001 14.919019630994494 2.607883026108718 0 0 0
159 2 2.4610000000000003 15.629449137232328 2.607883026108718 0 0 0
198 2 2.4610000000000003 17.050308149708 2.607883026108718 0 0 0
202 2 3.6915000000000004 14.919019630994494 2.607883026108718 0 0 0
204 2 4.922000000000001 15.629449137232333 2.607883026108718 0 0 0
245 2 4.922000000000001 17.050308149708 2.607883026108718 0 0 0
249 2 6.152499999999999 14.919019630994494 2.607883026108718 0 0 0
155 2 1.2305000000000001 17.76073765594583 2.607883026108718 0 0 0
194 2 1.2305000000000001 19.181596668421495 2.607883026108718 0 0 0
200 2 3.6914999999999996 17.76073765594583 2.607883026108718 0 0 0
241 2 3.6914999999999996 19.181596668421495 2.607883026108718 0 0 0
102 2 0 9.946013087329664 5.706873996097819 0 0 0
131 2 2.4610000000000003 9.946013087329664 5.706873996097819 0 0 0
168 2 4.922000000000001 9.946013087329664 5.706873996097819 0 0 0
125 2 0 12.787731112280996 5.706873996097819 0 0 0
127 2 1.2305000000000001 12.077301606043163 5.706873996097819 0 0 0
129 2 1.2305000000000001 10.656442593567498 5.706873996097819 0 0 0
162 2 2.4610000000000003 12.787731112280996 5.706873996097819 0 0 0
422 2 0 11.366872099805333 8.805864966088954 0 0 0
434 2 0 12.787731112280996 8.805864966088954 0 0 0
435 2 1.2305000000000001 13.49816061851883 8.805864966088954 0 0 0
436 2 1.2305000000000001 10.656442593567498 8.805864966088954 0 0 0
437 2 2.4610000000000003 11.366872099805333 8.805864966088954 0 0 0
453 2 2.4610000000000003 12.787731112280996 8.805864966088954 0 0 0
164 2 3.6914999999999996 12.077301606043163 5.706873996097819 0 0 0
166 2 3.6914999999999996 10.6564425935675 5.706873996097819 0 0 0
207 2 4.922000000000001 12.787731112280996 5.706873996097819 0 0 0
454 2 3.6915000000000004 13.49816061851883 8.805864966088954 0 0 0
455 2 3.6914999999999996 10.6564425935675 8.805864966088954 0 0 0
456 2 4.922000000000001 11.366872099805333 8.805864966088954 0 0 0
476 2 4.922000000000001 12.787731112280996 8.805864966088954 0 0 0
477 2 6.152499999999999 13.49816061851883 8.805864966088954 0 0 0
123 2 0 14.208590124756663 5.706873996097819 0 0 0
160 2 2.4610000000000003 14.208590124756663 5.706873996097819 0 0 0
205 2 4.922000000000001 14.208590124756663 5.706873996097819 0 0 0
154 2 0 17.050308149708 5.706873996097819 0 0 0
156 2 1.2305000000000001 16.339878643470165 5.706873996097819 0 0 0
158 2 1.2305000000000001 14.919019630994494 5.706873996097819 0 0 0
199 2 2.4610000000000003 17.050308149708 5.706873996097819 0 0 0
433 2 0 15.629449137232333 8.805864966088954 0 0 0
449 2 0 17.050308149708 8.805864966088954 0 0 0
451 2 1.2305000000000001 14.919019630994494 8.805864966088954 0 0 0
452 2 2.4610000000000003 15.629449137232328 8.805864966088954 0 0 0
472 2 2.4610000000000003 17.050308149708 8.805864966088954 0 0 0
201 2 3.6915000000000004 16.339878643470165 5.706873996097819 0 0 0
203 2 3.6915000000000004 14.919019630994494 5.706873996097819 0 0 0
246 2 4.922000000000001 17.050308149708 5.706873996097819 0 0 0
250 2 6.152499999999999 14.919019630994494 5.706873996097819 0 0 0
474 2 3.6915000000000004 14.919019630994494 8.805864966088954 0 0 0
475 2 4.922000000000001 15.629449137232333 8.805864966088954 0 0 0
496 2 4.922000000000001 17.050308149708 8.805864966088954 0 0 0
498 2 6.152499999999999 14.919019630994494 8.805864966088954 0 0 0
152 2 0 18.471167162183658 5.706873996097819 0 0 0
195 2 1.2305000000000001 19.181596668421495 5.706873996097819 0 0 0
197 2 2.4610000000000003 18.471167162183658 5.706873996097819 0 0 0
450 2 1.2305000000000001 17.76073765594583 8.805864966088954 0 0 0
470 2 1.2305000000000001 19.181596668421495 8.805864966088954 0 0 0
242 2 3.6914999999999996 19.181596668421495 5.706873996097819 0 0 0
244 2 4.922000000000001 18.471167162183658 5.706873996097819 0 0 0
473 2 3.6914999999999996 17.76073765594583 8.805864966088954 0 0 0
494 2 3.6914999999999996 19.181596668421495 8.805864966088954 0 0 0
1799 1 0.6391709045879541 11.85919114017661 11.706587795384486 0 3 0
2010 1 3.2455629601601306 12.908073846484692 12.12769157719867 1 -3 0
846 1 5.416339897827435 11.637191774844636 10.943866969879979 -2 -2 0
1861 1 5.376687160352092 17.226486450019216 11.517790710874216 -1 1 0
3852 1 3.0999284926733113 15.623473942169294 11.248612506571938 -4 -1 -1
1823 1 0.88233245836368 17.3767076972718 11.657354760080791 2 1 0
885 1 0.9432594057836888 11.319252365248952 15.650634548422842 1 3 0
3877 1 3.1546766101092922 13.220288075319843 14.786090750002801 -1 -1 0
3940 1 5.376907168810595 11.758003736094457 15.496895966434472 1 -1 0
4002 1 3.3958380788625644 15.842615535064649 15.247178446536658 0 1 0
3923 1 1.1381105365534527 17.06731500644893 14.757568081775634 1 -5 0
2929 1 5.731783841790767 17.234654246966233 14.38974216492929 2 -1 0
799 1 5.210947548653935 11.9507362908751 18.296303881212808 1 -3 0
2869 1 0.8579017977205751 11.56231852747406 18.404990159469605 1 1 0
1066 1 2.8186438201875204 13.631786685306782 19.07256042240477 4 -3 0
2046 1 3.0332774109412304 13.47024495665988 21.69710429698626 0 0 1
3896 1 3.207019346498787 16.158371874728253 17.99818798373387 0 1 0
2044 1 1.1108805322237265 17.435408707471836 19.02555912134183 4 -1 -2
1872 1 1.1238210891453775 17.678803309000347 21.70986609511207 2 -1 -1
4058 1 5.58789380913674 17.163459692315783 19.066056866504738 0 3 0
1959 1 5.4205193900823225 17.222207693604787 21.899814257706183 2 1 -1
2974 1 0.9631452433385252 12.046727543455878 22.831761778287422 1 6 -1
3933 1 5.144351557493311 11.747372493708133 22.772583268083004 -1 5 -1
1847 1 2.8017790634381607 13.250040793573351 25.873084232951967 0 0 0
972 1 5.323539908523643 11.877842395537698 25.490914879728386 1 0 -1
1059 1 2.941781512688591 15.929668723540475 25.5369221208026 3 0 0
1980 1 0.8795849966611472 17.61779441962216 25.911356961171343 -1 -3 0
3077 1 3.0873203614233224 16.05581071177538 22.55303601938688 0 -1 0
3112 1 5.612114074870246 17.342273538124175 25.36098420618685 0 1 1
964 1 0.26692737776786507 12.113710872912803 25.384476346701817 -1 -1 0
151 2 0 19.89202617465933 2.607883026108718 0 0 0
196 2 2.4610000000000003 19.89202617465933 2.607883026108718 0 0 0
243 2 4.922000000000001 19.89202617465933 2.607883026108718 0 0 0
188 2 0 24.154603212086325 2.607883026108718 0 0 0
190 2 0 21.312885187135 2.607883026108718 0 0 0
192 2 1.2304999999999993 22.023314693372832 2.607883026108718 0 0 0
233 2 1.2304999999999993 23.4441737058485 2.607883026108718 0 0 0
235 2 2.4610000000000003 24.154603212086325 2.607883026108718 0 0 0
237 2 2.4610000000000003 21.312885187134995 2.607883026108718 0 0 0
239 2 3.6914999999999996 22.023314693372832 2.607883026108718 0 0 0
280 2 3.6915000000000004 23.4441737058485 2.607883026108718 0 0 0
282 2 4.922000000000001 24.154603212086325 2.607883026108718 0 0 0
284 2 4.922000000000001 21.312885187134995 2.607883026108718 0 0 0
286 2 6.152499999999999 22.023314693372832 2.607883026108718 0 0 0
1130 2 0 25.575462224561992 2.607883026108718 0 0 0
1132 2 1.2305000000000001 26.285891730799833 2.607883026108718 0 0 0
1140 2 1.230500000000001 27.706750743275496 2.607883026108718 0 0 0
1144 2 2.4610000000000003 25.575462224561992 2.607883026108718 0 0 0
1146 2 3.691499999999999 26.285891730799833 2.607883026108718 0 0 0
1162 2 3.6914999999999996 27.706750743275496 2.607883026108718 0 0 0
1166 2 4.922000000000001 25.575462224561992 2.607883026108718 0 0 0
1192 2 6.152499999999999 27.706750743275496 2.607883026108718 0 0 0
1128 2 0 28.417180249513333 2.607883026108718 0 0 0
1142 2 2.4610000000000003 28.417180249513326 2.607883026108718 0 0 0
1164 2 4.922000000000001 28.417180249513336 2.607883026108718 0 0 0
193 2 1.2305000000000001 20.60245568089716 5.706873996097819 0 0 0
448 2 0 19.89202617465933 8.805864966088954 0 0 0
471 2 2.4610000000000003 19.89202617465933 8.805864966088954 0 0 0
240 2 3.6915000000000004 20.60245568089716 5.706873996097819 0 0 0
495 2 4.922000000000001 19.89202617465933 8.805864966088954 0 0 0
189 2 0 22.733744199610655 5.706873996097819 0 0 0
191 2 0 21.312885187135 5.706873996097819 0 0 0
234 2 1.2304999999999993 23.4441737058485 5.706873996097819 0 0 0
236 2 2.4610000000000003 22.733744199610655 5.706873996097819 0 0 0
238 2 2.4610000000000003 21.312885187134995 5.706873996097819 0 0 0
467 2 0 24.154603212086325 8.805864966088954 0 0 0
468 2 0 21.312885187135 8.805864966088954 0 0 0
469 2 1.2304999999999993 22.023314693372832 8.805864966088954 0 0 0
490 2 1.2304999999999993 23.4441737058485 8.805864966088954 0 0 0
491 2 2.4610000000000003 24.154603212086325 8.805864966088954 0 0 0
492 2 2.4610000000000003 21.312885187134995 8.805864966088954 0 0 0
281 2 3.6915000000000004 23.4441737058485 5.706873996097819 0 0 0
283 2 4.922000000000001 22.733744199610655 5.706873996097819 0 0 0
285 2 4.922000000000001 21.312885187134995 5.706873996097819 0 0 0
493 2 3.6914999999999996 22.023314693372832 8.805864966088954 0 0 0
514 2 3.6915000000000004 23.4441737058485 8.805864966088954 0 0 0
515 2 4.922000000000001 24.154603212086325 8.805864966088954 0 0 0
516 2 4.922000000000001 21.312885187134995 8.805864966088954 0 0 0
517 2 6.152499999999999 22.023314693372832 8.805864966088954 0 0 0
1129 2 0 26.99632123703766 5.706873996097819 0 0 0
1131 2 0 25.575462224561992 5.706873996097819 0 0 0
1133 2 1.2305000000000001 24.865032718324155 5.706873996097819 0 0 0
1141 2 1.230500000000001 27.706750743275496 5.706873996097819 0 0 0
1143 2 2.4610000000000003 26.99632123703766 5.706873996097819 0 0 0
1145 2 2.4610000000000003 25.575462224561992 5.706873996097819 0 0 0
1444 2 0 25.575462224561992 8.805864966088954 0 0 0
1445 2 1.2305000000000001 26.285891730799833 8.805864966088954 0 0 0
1449 2 1.230500000000001 27.706750743275496 8.805864966088954 0 0 0
1451 2 2.4610000000000003 25.575462224561992 8.805864966088954 0 0 0
1147 2 3.6914999999999996 24.865032718324166 5.706873996097819 0 0 0
1163 2 3.6914999999999996 27.706750743275496 5.706873996097819 0 0 0
1165 2 4.922000000000001 26.99632123703766 5.706873996097819 0 0 0
1167 2 4.922000000000001 25.575462224561992 5.706873996097819 0 0 0
1169 2 6.152499999999999 24.865032718324155 5.706873996097819 0 0 0
1193 2 6.152499999999999 27.706750743275496 5.706873996097819 0 0 0
1452 2 3.691499999999999 26.285891730799833 8.805864966088954 0 0 0
1460 2 3.6914999999999996 27.706750743275496 8.805864966088954 0 0 0
1462 2 4.922000000000001 25.575462224561992 8.805864966088954 0 0 0
1475 2 6.152499999999999 27.706750743275496 8.805864966088954 0 0 0
1139 2 1.2304999999999993 29.127609755751163 5.706873996097819 0 0 0
1443 2 0 28.417180249513333 8.805864966088954 0 0 0
1450 2 2.4610000000000003 28.417180249513326 8.805864966088954 0 0 0
1161 2 3.691499999999999 29.127609755751152 5.706873996097819 0 0 0
1191 2 6.152499999999998 29.127609755751152 5.706873996097819 0 0 0
1461 2 4.922000000000001 28.417180249513336 8.805864966088954 0 0 0
1089 1 2.861989548496881 21.482631005006535 11.940971259354967 1 4 0
2902 1 3.0000319640979476 23.96251373012945 11.091766697546875 -1 1 -1
864 1 0.6553258493924949 27.754393877896266 11.101080353694957 -1 -1 -1
833 1 0.6295099952202918 25.265505266727306 11.673264179969715 2 -2 0
1992 1 5.489243823220036 25.20956920658399 11.836806378182892 3 7 -1
3089 1 5.38185298829031 28.07550684100358 11.143557623637887 -2 0 -1
1941 1 5.058242401723624 19.79695624965607 11.204197227204347 1 -2 0
2848 1 0.6577086228829494 20.096351964131014 11.264503907873642 0 -2 2
1993 1 3.0141999374625508 21.403501362345395 14.877874626760471 -3 -3 -1
32 1 5.733379921377607 20.15634450406442 25.444876704685626 -3 2 0
3929 1 5.587382761070477 20.003339781217377 15.332518144560444 1 -1 0
982 1 3.1404411911326666 24.2369860745939 15.576053464547828 2 -1 -1
2088 1 5.1980902619667395 28.202322826134175 15.10165434644987 0 -4 1
3872 1 0.8981181525933232 28.045442014168284 15.510328142602608 -1 1 -1
3050 1 0.9383642888981066 25.53219929223254 14.324007404903726 1 3 0
4047 1 5.397553100727156 25.442076015238275 14.467303298662321 3 2 0
3921 1 3.224080420503558 24.303320781432735 18.238447443827887 -1 2 -1
2925 1 0.8835448910313912 20.182282836124017 18.17764043713253 2 0 1
798 1 3.296753401392623 21.580338414546834 18.981719298836403 -3 -1 0
871 1 3.5626902459002046 21.517910132734908 21.673955603694544 -1 -1 -1
2847 1 3.3735713642462684 24.099714894413555 22.666895321348115 2 -1 0
2087 1 5.493099593189909 19.878605324324415 18.16218442470592 2 -3 1
1843 1 5.458573762582664 28.09670388396425 18.07237800686204 1 1 1
1902 1 1.0162501369188484 28.251498136131854 18.29891091561523 3 2 0
3915 1 1.1701172194670817 25.718312073929905 19.252969503191707 2 -1 0
806 1 1.020956659768515 25.67351660296208 22.01349607119902 0 1 0
3022 1 5.48120253408097 25.627604827879345 21.585426243839706 3 -1 0
3816 1 5.436512080353829 25.517913742807362 18.84289523744821 -3 1 -1
3036 1 1.2478667550289226 28.655708358724095 22.476091936165318 -1 0 0
3803 1 5.798097323819472 19.89141447623261 22.61740937634376 1 -1 0
3978 1 1.0327091876102532 20.495841327737548 25.407887909966405 0 3 0
3804 1 3.518969624700199 21.592362377707893 25.791716121052175 -4 2 -1
3863 1 3.29229936960178 24.171136216848836 25.463473424650452 -1 3 0
1014 1 0.8077964721863631 19.96225651853037 15.47173504820852 -2 0 -1
2885 1 1.2218515747587981 20.57426758654332 22.611996322607716 0 0 0
3117 1 1.0873799564140185 28.17406822995168 25.142843996184396 -4 0 0
2880 1 5.565862451487365 28.36605812171071 22.591771363702073 0 1 -1
2887 1 5.36552442010024 28.432166457334628 25.283315463520395 3 2 0
1988 1 1.0776244370362131 25.693357210595064 25.978116175070028 3 0 -1
2861 1 5.45316921131331 25.587066838654362 25.97833852622489 2 3 0
906 1 3.2864880071421045 29.37060081468066 19.03075924923067 3 -2 0
1136 2 0 29.83803926198899 2.607883026108718 0 0 0
1138 2 1.2304999999999993 30.54846876822683 2.607883026108718 0 0 0
1158 2 2.4610000000000003 29.83803926198899 2.607883026108718 0 0 0
1160 2 3.6915000000000004 30.54846876822683 2.607883026108718 0 0 0
1188 2 4.922000000000001 29.83803926198899 2.607883026108718 0 0 0
1134 2 0 32.67975728694033 2.607883026108718 0 0 0
1150 2 0 34.100616299416 2.607883026108718 0 0 0
1154 2 1.2304999999999993 31.969327780702493 2.607883026108718 0 0 0
1156 2 2.4610000000000003 32.67975728694034 2.607883026108718 0 0 0
1180 2 2.4609999999999985 34.100616299416 2.607883026108718 0 0 0
1184 2 3.6914999999999996 31.969327780702493 2.607883026108718 0 0 0
1186 2 4.9220000000000015 32.67975728694034 2.607883026108718 0 0 0
1218 2 4.922000000000001 34.100616299416 2.607883026108718 0 0 0
1152 2 1.230500000000001 34.81104580565383 2.607883026108718 0 0 0
1182 2 3.691500000000002 34.81104580565383 2.607883026108718 0 0 0
1148 2 0 36.94233432436734 2.607883026108718 0 0 0
1172 2 0 38.36319333684299 2.607883026108718 0 0 0
1176 2 1.2304999999999993 36.231904818129486 2.607883026108718 0 0 0
1178 2 2.461000000000002 36.94233432436734 2.607883026108718 0 0 0
1210 2 2.4610000000000003 38.36319333684299 2.607883026108718 0 0 0
1214 2 3.6914999999999996 36.231904818129486 2.607883026108718 0 0 0
1216 2 4.922000000000001 36.942334324367316 2.607883026108718 0 0 0
1255 2 4.922000000000001 38.36319333684299 2.607883026108718 0 0 0
1174 2 1.230500000000001 39.07362284308084 2.607883026108718 0 0 0
1212 2 3.691500000000002 39.07362284308082 2.607883026108718 0 0 0
1135 2 0 31.258898274464656 5.706873996097819 0 0 0
1137 2 0 29.83803926198899 5.706873996097819 0 0 0
1157 2 2.4609999999999985 31.258898274464656 5.706873996097819 0 0 0
1159 2 2.4610000000000003 29.83803926198899 5.706873996097819 0 0 0
1447 2 0 29.83803926198899 8.805864966088954 0 0 0
1448 2 1.2304999999999993 30.54846876822683 8.805864966088954 0 0 0
1458 2 2.4610000000000003 29.83803926198899 8.805864966088954 0 0 0
1187 2 4.921999999999998 31.258898274464656 5.706873996097819 0 0 0
1189 2 4.922000000000001 29.83803926198899 5.706873996097819 0 0 0
1459 2 3.6915000000000004 30.54846876822683 8.805864966088954 0 0 0
1473 2 4.922000000000001 29.83803926198899 8.805864966088954 0 0 0
1151 2 0 34.100616299416 5.706873996097819 0 0 0
1153 2 1.2304999999999993 33.39018679317816 5.706873996097819 0 0 0
1155 2 1.2304999999999993 31.969327780702493 5.706873996097819 0 0 0
1181 2 2.4609999999999985 34.100616299416 5.706873996097819 0 0 0
1446 2 0 32.67975728694033 8.805864966088954 0 0 0
1454 2 0 34.100616299416 8.805864966088954 0 0 0
1456 2 1.2304999999999993 31.969327780702493 8.805864966088954 0 0 0
1457 2 2.4610000000000003 32.67975728694034 8.805864966088954 0 0 0
1469 2 2.4609999999999985 34.100616299416 8.805864966088954 0 0 0
1183 2 3.691499999999998 33.39018679317816 5.706873996097819 0 0 0
1185 2 3.6914999999999996 31.969327780702493 5.706873996097819 0 0 0
1219 2 4.922000000000001 34.100616299416 5.706873996097819 0 0 0
1221 2 6.152499999999999 33.39018679317816 5.706873996097819 0 0 0
1471 2 3.6914999999999996 31.969327780702493 8.805864966088954 0 0 0
1472 2 4.9220000000000015 32.67975728694034 8.805864966088954 0 0 0
1488 2 4.922000000000001 34.100616299416 8.805864966088954 0 0 0
1455 2 1.230500000000001 34.81104580565383 8.805864966088954 0 0 0
1470 2 3.691500000000002 34.81104580565383 8.805864966088954 0 0 0
1149 2 0 35.52147531189165 5.706873996097819 0 0 0
1173 2 0 38.36319333684299 5.706873996097819 0 0 0
1175 2 1.2304999999999993 37.65276383060515 5.706873996097819 0 0 0
1177 2 1.2304999999999993 36.231904818129486 5.706873996097819 0 0 0
1179 2 2.4609999999999985 35.52147531189166 5.706873996097819 0 0 0
1211 2 2.4610000000000003 38.36319333684299 5.706873996097819 0 0 0
1453 2 0 36.94233432436734 8.805864966088954 0 0 0
1465 2 0 38.36319333684299 8.805864966088954 0 0 0
1467 2 1.2304999999999993 36.231904818129486 8.805864966088954 0 0 0
1468 2 2.461000000000002 36.94233432436734 8.805864966088954 0 0 0
1484 2 2.4610000000000003 38.36319333684299 8.805864966088954 0 0 0
1213 2 3.6914999999999996 37.65276383060515 5.706873996097819 0 0 0
1215 2 3.6914999999999996 36.231904818129486 5.706873996097819 0 0 0
1217 2 4.922000000000001 35.52147531189166 5.706873996097819 0 0 0
1256 2 4.922000000000001 38.36319333684299 5.706873996097819 0 0 0
1258 2 6.152499999999998 37.65276383060515 5.706873996097819 0 0 0
1486 2 3.6914999999999996 36.231904818129486 8.805864966088954 0 0 0
1487 2 4.922000000000001 36.942334324367316 8.805864966088954 0 0 0
1506 2 4.922000000000001 38.36319333684299 8.805864966088954 0 0 0
1466 2 1.230500000000001 39.07362284308084 8.805864966088954 0 0 0
1485 2 3.691500000000002 39.07362284308082 8.805864966088954 0 0 0
3882 1 2.9535527862612363 32.320903522241856 11.160448640358773 5 2 1
3013 1 0.9332878461826806 33.43896726198624 12.254898938664674 0 -1 -1
1894 1 5.215515724151672 33.56212464220517 11.802172582956187 0 0 -1
1061 1 3.168726320433216 37.907623133124304 11.883027141308904 0 -1 1
998 1 0.8141152873444961 36.301224822570376 11.601569627449598 2 -2 0
1798 1 5.345460573817835 36.242878840737724 11.351325844325729 -1 -2 0
1117 1 2.850426754578107 29.476706348965994 11.50032870400741 -1 3 0
3826 1 3.3437831010718697 32.25742567046225 15.568564439522275 -3 0 -1
64 1 1.2064758228414754 33.64161970420835 14.858642157967447 -3 0 1
994 1 5.603781292374338 33.55220824039045 14.4563708684144 0 -1 0
814 1 3.467429977019972 32.04731088919017 18.416637453664933 1 2 0
3076 1 2.844247241134505 37.92422521388181 26.149695839324195 -1 0 0
2936 1 1.001239616371553 36.32329004483948 15.88991591441915 -1 -2 1
2005 1 2.9818671052535115 38.328745603046784 14.538922006309589 1 -3 0
4012 1 5.263289696295665 36.518335079060265 15.550278392442257 0 0 0
1030 1 3.5136121959358775 30.05695684693589 21.721098835113438 4 2 -1
817 1 1.2246152665322452 33.619120476955096 19.34311146712855 4 -1 0
1857 1 5.763614886072862 33.865618590935576 21.88540342477301 0 2 -1
968 1 5.615032170618553 33.66716068857023 19.12948193526838 4 0 -1
2897 1 1.1210500337195188 33.98358519728646 21.989862846775097 0 -2 -1
874 1 3.2452880357808245 29.70294038236933 25.945174537772445 3 -1 0
2884 1 5.72815638173328 36.38381183015497 18.201208917505724 2 0 0
3054 1 1.4311400946116293 36.27305192191802 18.787264117429494 1 0 0
1056 1 3.6658886487721634 38.02153069041858 19.223951457309454 1 2 0
23 1 2.9863410344797385 37.65696548031159 21.925059653409022 0 -2 0
4042 1 5.298107903416749 36.38055522804404 22.512226933166026 2 -2 -1
3914 1 1.1080800463338407 36.22542862656029 25.43291430503956 0 -1 -1
1795 1 3.5461453837479513 32.40419336490596 22.726800001455445 -2 0 1
924 1 5.790025284805648 33.94596265654675 26.185318430063994 3 -2 0
1998 1 3.699592723269068 32.417004410642804 25.408139709099004 2 -2 -1
2035 1 1.5438890191899086 33.52661040885057 26.15931313614714 -2 1 0
2004 1 0.7663209746291908 36.559586111431976 22.78866898644707 -3 -2 0
22 1 5.298287357422915 36.701921034745425 25.26291743835008 1 5 -1
3135 1 2.874899079657577 29.564560213811866 14.301399462862591 0 -1 1
1170 2 0 41.20491136179432 2.607883026108718 0 0 0
1206 2 1.230500000000001 40.494481855556494 2.607883026108718 0 0 0
1208 2 2.4610000000000003 41.20491136179432 2.607883026108718 0 0 0
1251 2 3.6914999999999996 40.494481855556494 2.607883026108718 0 0 0
1253 2 4.922000000000003 41.20491136179432 2.607883026108718 0 0 0
1296 2 6.152499999999998 40.494481855556494 2.607883026108718 0 0 0
1202 2 0 42.62577037427 2.607883026108718 0 0 0
1204 2 1.2304999999999993 43.33619988050783 2.607883026108718 0 0 0
1247 2 2.4610000000000003 42.62577037427 2.607883026108718 0 0 0
1249 2 3.691500000000002 43.33619988050783 2.607883026108718 0 0 0
1292 2 4.922000000000001 42.62577037426999 2.607883026108718 0 0 0
1200 2 0 45.46748839922133 2.607883026108718 0 0 0
1243 2 1.2304999999999993 44.757058892983494 2.607883026108718 0 0 0