LAMMPS data file via write_data, version 16 Mar 2018, timestep = 6000000

6337 atoms
2 atom types

0.0000000000000000e+00 4.9219999999999999e+01 xlo xhi
0.0000000000000000e+00 4.9019635930410494e+01 ylo yhi
1.6135884610848628e+00 5.8448411538914094e+01 zlo zhi

Masses

1 18.015
2 12.01

Atoms # atomic

1470 1 1.2810017881118978e+00 3.0127624470660730e+00 4.4066645708478820e+00 2 -1 0
322 1 5.9739310982035265e+00 3.2567548749278297e+00 4.4488130199746951e+00 2 2 0
3330 1 6.2865392301844158e+00 7.8429018771486145e+00 8.4071526922434749e+00 -1 0 1
3720 1 1.0612883058586416e+01 2.9866861298841814e+00 4.3489602684151709e+00 0 1 1
4888 1 5.9561633602807307e+00 5.5350285437012980e-01 5.0441849312669360e+00 1 0 0
6243 1 1.0212756463793951e+01 8.2749763841854147e+00 5.6500485937446863e+00 -2 -1 1
114 1 3.6301788479082422e+00 6.8518235422089280e+00 4.6268582925673201e+00 4 -1 0
4556 1 8.0867297067604760e+00 7.0677236535705825e+00 4.8521896306893666e+00 0 -1 1
4712 1 8.0842035122578455e+00 1.1606557481693390e+01 5.7254102551353698e+00 -1 0 1
6099 1 1.4811060681342927e+00 1.0557718610722903e+01 4.6591631547208738e+00 -2 2 1
5148 1 5.7897296579185848e+00 1.2876031998430079e-01 7.6965944668937833e+00 0 1 0
6320 1 5.6103115272726232e+00 1.0797897087899445e+01 4.8546728433669344e+00 5 2 1
171 1 5.7655382385422556e+00 1.0730001744623905e+01 1.9532928746021987e+00 -2 0 0
2891 1 1.0440097083123872e+01 1.0855265739938126e+01 4.5129535745262093e+00 3 0 1
1916 1 1.0247503279376543e+01 2.4386576213771213e-01 8.1490736620982922e+00 -3 1 0
2975 1 8.0219146385087932e+00 6.8518868822936438e+00 1.8763665827884954e+00 1 1 1
3117 1 3.9453259858984429e+00 4.1762113457054291e+00 8.2688648380335419e+00 -1 1 0
3619 1 3.6879806438955187e+00 4.3313854845141826e+00 5.5613175836290427e+00 4 2 1
1325 1 1.0105500199581805e+01 1.0750538271165652e+01 1.8515556090703764e+00 -2 -2 0
1615 1 8.1129292832065119e+00 4.1227739899828579e+00 8.2291766775035420e+00 2 3 1
6128 1 1.0419892549425199e+01 3.4647716177863208e-01 5.2496896014493197e+00 1 2 1
3284 1 5.8525427017662670e+00 8.2376477053115558e+00 5.4288633714612935e+00 4 1 0
1761 1 1.3261236324394716e+00 7.9822947022297619e+00 5.4361986643818163e+00 1 2 1
3441 1 8.5883172714273197e+00 1.1845083486494048e+01 8.4300727543338407e+00 -2 2 0
4682 1 1.7848974397417583e+00 7.9329695191096867e+00 8.3170296526988583e+00 3 -2 1
3304 1 8.1917162268070030e+00 4.3281184216708670e+00 5.3268660747420498e+00 3 0 1
3437 1 3.4205553934366351e+00 1.1803727161383435e+01 6.0472225419711112e+00 0 0 0
4586 1 1.6503328623575491e+00 4.1052449585107659e-01 5.1989662766101521e+00 -1 1 0
1508 1 1.0469052323673758e+01 7.8799505716257832e+00 8.3901167649046151e+00 1 1 1
6139 1 1.6699416185157643e+00 5.2353953760273775e-01 7.9306494567144465e+00 -1 1 1
4660 1 1.4673928855559082e+00 1.1068959030232275e+01 1.9388730119306643e+00 -3 0 1
2849 1 8.0531576722235769e+00 1.4668199558998214e+00 8.6501240250258640e+00 2 1 1
3275 1 1.3078044032732619e+00 3.3337321895739711e+00 1.7611522781019786e+00 4 2 0
2013 1 3.6234685322354006e+00 1.2734192060454219e+00 1.1893809732800461e+01 1 2 0
6117 1 1.0859659422001540e+01 7.7089349097571196e+00 1.5758097266087706e+01 -1 -1 1
111 1 6.3055835602994543e+00 1.5427937499337933e-02 1.2859248550278966e+01 -2 2 0
4715 1 8.2902524216321929e+00 1.1103251131486371e+00 1.1706044069775334e+01 0 0 1
1978 1 1.7041375139197714e+00 5.0483913930230777e+00 1.1917415764007483e+01 0 4 0
6247 1 1.6113750825045194e+00 5.1196395886323627e+00 9.0778829366465050e+00 -1 -2 0
1505 1 6.0107492892676060e+00 5.3288558373058414e+00 9.3992094872564707e+00 1 -1 0
4796 1 5.8479468876498570e+00 4.9037905181980648e+00 1.1934117011596019e+01 0 2 1
5190 1 1.0408782487847041e+01 5.3063476325113532e+00 9.3285599210497843e+00 0 2 0
6160 1 1.0520398770223604e+01 5.4319993996328115e+00 1.2139704388256369e+01 0 1 0
1382 1 4.4751332389509768e+00 1.1426794772789574e+01 1.3107824766288928e+01 -2 1 0
3425 1 4.2280449886750802e+00 8.8239388280657032e+00 1.2071457382665583e+01 -1 -1 0
3644 1 3.9186664697580644e+00 8.8787836054300229e+00 9.5112478645151626e+00 -4 0 0
1774 1 8.2918895038682603e+00 9.2918043811729127e+00 9.5215896464802174e+00 -1 2 0
6002 1 8.6796262496214514e+00 1.1578944028409259e+01 1.3106530382792114e+01 0 0 1
1549 1 3.7489810864937914e+00 3.6850038091773101e+00 1.3072727882873217e+01 2 2 0
1551 1 8.2043337162671790e+00 9.2404683304643509e+00 1.2242724439020268e+01 -1 0 1
2886 1 8.1875228395573636e+00 3.6876312873012345e+00 1.2504599713458584e+01 -2 1 0
6235 1 2.1676942138804338e+00 7.5108871661419139e+00 1.3219813948481915e+01 2 1 0
4772 1 6.1660031897460916e+00 7.3633948587220024e+00 1.2869281900984396e+01 2 1 1
2938 1 1.0557982090781184e+01 7.9853818487519348e+00 1.3038572714781314e+01 -1 -1 0
1618 1 6.2814975941882789e+00 7.4071319230652453e+00 1.5572396757945935e+01 1 -1 1
3340 1 3.8566852097537199e+00 1.4721311308792822e+00 9.2399096163399879e+00 0 0 0
3159 1 8.4855917172497648e+00 3.5109499194772269e+00 1.5524069032388770e+01 2 0 1
5209 1 3.8533056838738187e+00 1.1518701176175686e+01 8.8277563997415971e+00 3 2 1
4974 1 4.2779913056822512e+00 1.1346347147989997e+01 1.5735755058151355e+01 0 0 1
5066 1 1.0772086720457070e+01 1.9698023381591899e-02 1.5755806687717422e+01 2 4 0
4811 1 1.9896673635682207e+00 2.3019151118351084e+00 1.6626383864640715e+01 -2 -3 0
369 1 6.3051720112193443e+00 1.9450418481739900e+00 1.6751099250235587e+01 3 2 0
4459 1 1.0703657280987313e+01 2.4126041040512951e+00 1.6863775265734841e+01 3 -3 1
1669 1 6.1354636191891476e+00 9.7631111247481144e+00 1.9666476421941432e+01 0 3 0
5094 1 1.0542642794165618e+01 9.9629803347771322e+00 1.9735780218959270e+01 -1 0 0
3385 1 4.5057478138737519e+00 5.9344462163715743e+00 1.7077112525932478e+01 2 0 0
432 1 2.5109589246335978e-01 5.9424433454851497e+00 1.6839585736502968e+01 -1 -3 1
1277 1 8.6682613071421084e+00 6.2209915157890983e+00 1.6291779310846479e+01 1 0 1
3419 1 2.1030661732656668e+00 1.0108248740862278e+01 1.6857933567247535e+01 2 2 0
1258 1 6.1672676291739705e+00 1.0072315578022179e+01 1.6904259161171716e+01 1 1 0
4704 1 3.9770819273520508e+00 8.3190716368458411e+00 2.0849478443337127e+01 0 4 1
3282 1 1.0683868889739033e+01 1.0188284874397812e+01 1.6994023018424649e+01 -1 -2 0
3452 1 8.4600111101696349e+00 8.3078456638744047e+00 2.0572286645537524e+01 -1 1 0
1516 1 2.3688663182979317e+00 2.1888451042816728e+00 1.9504924722663564e+01 1 0 0
3127 1 4.4048896611044048e+00 8.8471079719137602e-01 2.0790402994671616e+01 -2 3 0
2855 1 6.5059635341746631e+00 2.2517045158068103e+00 1.9700009411040192e+01 3 0 1
2840 1 8.5338182124504360e+00 5.7592035254047846e-01 2.0691008787276957e+01 1 2 1
279 1 1.0841670114508986e+01 1.8781009662765471e+00 1.9741035959618831e+01 -2 -1 0
1765 1 1.8515473464512247e+00 4.6192802048596917e+00 2.0796808766902185e+01 -2 1 1
314 1 4.2876584529657249e+00 5.7824801285492775e+00 1.9875780894482073e+01 -2 -1 0
1372 1 7.0706495762552057e+00 4.7945640801610852e+00 2.0618582894758362e+01 -2 0 1
1998 1 8.9418986839972394e+00 6.1073558179312561e+00 1.9017364358237888e+01 -2 1 0
408 1 1.1146719648517244e+01 4.6870010962383910e+00 2.0403995587857239e+01 -1 -4 0
3149 1 1.8611773770680595e+00 9.6987994467403542e+00 1.9645413349059933e+01 2 1 1
1841 1 8.4871241977113190e+00 1.1460848378776594e+01 1.5912131583921315e+01 0 1 0
469 1 2.4303578396477694e+00 7.4083467725157846e+00 1.5925447405515301e+01 1 0 0
6225 1 4.2326701171869825e+00 3.4934082432143958e+00 1.5827794533124171e+01 -1 1 1
1910 1 1.5964201806223626e+00 1.7562035016688429e+00 2.4278339423574703e+01 -1 0 0
5988 1 1.1402146921081551e+01 1.2107657444115691e+01 2.3500180558510369e+01 -3 -2 1
1591 1 6.3961979377410643e+00 1.9276014666918442e+00 2.4159784243380571e+01 -2 1 1
777 2 1.2304999999999998e+01 1.1366872099805333e+01 2.6758058092182115e+01 0 0 0
3311 1 1.0739965598554781e+01 2.4213314331910798e+00 2.4141247091525663e+01 0 -1 0
2965 1 1.9141391351621462e+00 4.2961384399117089e+00 2.3462887588770315e+01 0 2 1
1868 1 1.0807327874570790e+01 4.7635736764894840e+00 2.3137888059132273e+01 0 -3 0
3037 1 3.9691293190064076e+00 5.7764935990052155e+00 2.4347412560075576e+01 -1 -1 0
2121 1 8.2731407285607101e+00 5.5431705420543222e+00 2.4463702758136098e+01 1 -1 0
5107 1 8.3820558385952957e+00 8.2587240439285612e+00 2.3577006937828521e+01 1 1 0
6299 1 6.2829685029131550e+00 4.2829928832345612e+00 2.3235508592813297e+01 2 -2 1
5035 1 1.9136961973075888e+00 9.8059804068861762e+00 2.4412914807049326e+01 -3 0 0
775 2 1.1074500000000002e+01 1.0656442593567498e+01 2.6758058092182115e+01 0 0 0
4837 1 4.1921686112789276e+00 8.5570493411509343e+00 2.3722495609942300e+01 2 -1 0
106 1 6.3913583839794867e+00 9.7237644973142423e+00 2.4434811087860233e+01 -2 -1 0
2966 1 1.0754800736285262e+01 9.6023831714056769e+00 2.4156654568308326e+01 -5 3 0
734 2 1.1074500000000002e+01 9.2355835810918343e+00 2.6758058092182115e+01 0 0 0
554 2 0.0000000000000000e+00 2.8417180249513345e+00 2.6758058092182115e+01 0 0 0
556 2 0.0000000000000000e+00 0.0000000000000000e+00 2.6758058092182115e+01 0 0 0
558 2 1.2305000000000001e+00 7.1042950623783474e-01 2.6758058092182115e+01 0 0 0
565 2 1.2305000000000001e+00 2.1312885187134998e+00 2.6758058092182115e+01 0 0 0
567 2 2.4610000000000003e+00 2.8417180249513345e+00 2.6758058092182115e+01 0 0 0
569 2 2.4610000000000003e+00 0.0000000000000000e+00 2.6758058092182115e+01 0 0 0
571 2 3.6915000000000004e+00 7.1042950623783474e-01 2.6758058092182115e+01 0 0 0
586 2 3.6914999999999996e+00 2.1312885187134998e+00 2.6758058092182115e+01 0 0 0
588 2 4.9220000000000006e+00 2.8417180249513332e+00 2.6758058092182115e+01 0 0 0
590 2 4.9220000000000006e+00 0.0000000000000000e+00 2.6758058092182115e+01 0 0 0
592 2 6.1524999999999999e+00 7.1042950623783407e-01 2.6758058092182115e+01 0 0 0
615 2 6.1524999999999999e+00 2.1312885187134989e+00 2.6758058092182115e+01 0 0 0
617 2 7.3829999999999991e+00 2.8417180249513345e+00 2.6758058092182115e+01 0 0 0
619 2 7.3829999999999991e+00 0.0000000000000000e+00 2.6758058092182115e+01 0 0 0
621 2 8.6134999999999984e+00 7.1042950623783407e-01 2.6758058092182115e+01 0 0 0
652 2 8.6134999999999984e+00 2.1312885187135002e+00 2.6758058092182115e+01 0 0 0
654 2 9.8440000000000012e+00 2.8417180249513332e+00 2.6758058092182115e+01 0 0 0
656 2 9.8440000000000012e+00 0.0000000000000000e+00 2.6758058092182115e+01 0 0 0
658 2 1.1074500000000002e+01 7.1042950623783330e-01 2.6758058092182115e+01 0 0 0
697 2 1.1074500000000002e+01 2.1312885187135002e+00 2.6758058092182115e+01 0 0 0
561 2 0.0000000000000000e+00 4.2625770374269996e+00 2.6758058092182115e+01 0 0 0
563 2 1.2305000000000001e+00 4.9730065436648339e+00 2.6758058092182115e+01 0 0 0
578 2 1.2305000000000001e+00 6.3938655561404980e+00 2.6758058092182115e+01 0 0 0
582 2 2.4610000000000003e+00 4.2625770374269996e+00 2.6758058092182115e+01 0 0 0
584 2 3.6914999999999996e+00 4.9730065436648339e+00 2.6758058092182115e+01 0 0 0
607 2 3.6914999999999996e+00 6.3938655561404980e+00 2.6758058092182115e+01 0 0 0
559 2 0.0000000000000000e+00 7.1042950623783341e+00 2.6758058092182115e+01 0 0 0
580 2 2.4610000000000003e+00 7.1042950623783341e+00 2.6758058092182115e+01 0 0 0
611 2 4.9220000000000006e+00 4.2625770374269978e+00 2.6758058092182115e+01 0 0 0
613 2 6.1524999999999999e+00 4.9730065436648339e+00 2.6758058092182115e+01 0 0 0
644 2 6.1524999999999999e+00 6.3938655561404980e+00 2.6758058092182115e+01 0 0 0
648 2 7.3829999999999991e+00 4.2625770374269996e+00 2.6758058092182115e+01 0 0 0
609 2 4.9220000000000006e+00 7.1042950623783341e+00 2.6758058092182115e+01 0 0 0
646 2 7.3830000000000009e+00 7.1042950623783341e+00 2.6758058092182115e+01 0 0 0
650 2 8.6135000000000002e+00 4.9730065436648339e+00 2.6758058092182115e+01 0 0 0
689 2 8.6135000000000002e+00 6.3938655561404980e+00 2.6758058092182115e+01 0 0 0
693 2 9.8440000000000012e+00 4.2625770374270004e+00 2.6758058092182115e+01 0 0 0
695 2 1.1074500000000002e+01 4.9730065436648339e+00 2.6758058092182115e+01 0 0 0
736 2 1.1074500000000002e+01 6.3938655561404980e+00 2.6758058092182115e+01 0 0 0
691 2 9.8440000000000012e+00 7.1042950623783341e+00 2.6758058092182115e+01 0 0 0
574 2 0.0000000000000000e+00 8.5251540748539991e+00 2.6758058092182115e+01 0 0 0
576 2 1.2305000000000001e+00 9.2355835810918343e+00 2.6758058092182115e+01 0 0 0
603 2 2.4610000000000003e+00 8.5251540748539991e+00 2.6758058092182115e+01 0 0 0
605 2 3.6915000000000004e+00 9.2355835810918343e+00 2.6758058092182115e+01 0 0 0
572 2 0.0000000000000000e+00 1.1366872099805333e+01 2.6758058092182115e+01 0 0 0
599 2 1.2305000000000001e+00 1.0656442593567498e+01 2.6758058092182115e+01 0 0 0
601 2 2.4610000000000003e+00 1.1366872099805333e+01 2.6758058092182115e+01 0 0 0
636 2 3.6914999999999996e+00 1.0656442593567499e+01 2.6758058092182115e+01 0 0 0
642 2 6.1524999999999999e+00 9.2355835810918343e+00 2.6758058092182115e+01 0 0 0
640 2 4.9220000000000006e+00 8.5251540748539991e+00 2.6758058092182115e+01 0 0 0
685 2 7.3830000000000009e+00 8.5251540748539991e+00 2.6758058092182115e+01 0 0 0
638 2 4.9220000000000006e+00 1.1366872099805333e+01 2.6758058092182115e+01 0 0 0
683 2 7.3829999999999991e+00 1.1366872099805333e+01 2.6758058092182115e+01 0 0 0
681 2 6.1524999999999999e+00 1.0656442593567499e+01 2.6758058092182115e+01 0 0 0
732 2 9.8440000000000012e+00 8.5251540748539956e+00 2.6758058092182115e+01 0 0 0
730 2 9.8440000000000012e+00 1.1366872099805333e+01 2.6758058092182115e+01 0 0 0
687 2 8.6134999999999984e+00 9.2355835810918343e+00 2.6758058092182115e+01 0 0 0
728 2 8.6134999999999984e+00 1.0656442593567498e+01 2.6758058092182115e+01 0 0 0
3617 1 8.6654963598393255e+00 7.0339830502603384e-01 2.3227698006813977e+01 0 0 0
6265 1 4.1354432188933483e+00 7.4213793009536411e-01 2.3622446048422237e+01 1 5 0
555 2 0.0000000000000000e+00 1.4208590124756650e+00 3.0030999999999519e+01 0 0 0
557 2 0.0000000000000000e+00 0.0000000000000000e+00 3.0030999999999519e+01 0 0 0
566 2 1.2305000000000001e+00 2.1312885187134998e+00 3.0030999999999519e+01 0 0 0
568 2 2.4610000000000003e+00 1.4208590124756650e+00 3.0030999999999519e+01 0 0 0
570 2 2.4610000000000003e+00 0.0000000000000000e+00 3.0030999999999519e+01 0 0 0
587 2 3.6914999999999996e+00 2.1312885187134998e+00 3.0030999999999519e+01 0 0 0
564 2 1.2305000000000001e+00 3.5521475311891644e+00 3.0030999999999519e+01 0 0 0
585 2 3.6914999999999996e+00 3.5521475311891644e+00 3.0030999999999519e+01 0 0 0
883 2 0.0000000000000000e+00 2.8417180249513345e+00 3.3303941907834897e+01 0 0 0
884 2 0.0000000000000000e+00 0.0000000000000000e+00 3.3303941907834897e+01 0 0 0
885 2 1.2305000000000001e+00 7.1042950623783474e-01 3.3303941907834897e+01 0 0 0
889 2 1.2305000000000001e+00 2.1312885187134998e+00 3.3303941907834897e+01 0 0 0
890 2 2.4610000000000003e+00 2.8417180249513345e+00 3.3303941907834897e+01 0 0 0
891 2 2.4610000000000003e+00 0.0000000000000000e+00 3.3303941907834897e+01 0 0 0
892 2 3.6915000000000004e+00 7.1042950623783474e-01 3.3303941907834897e+01 0 0 0
900 2 3.6914999999999996e+00 2.1312885187134998e+00 3.3303941907834897e+01 0 0 0
589 2 4.9220000000000006e+00 1.4208590124756650e+00 3.0030999999999519e+01 0 0 0
591 2 4.9220000000000006e+00 0.0000000000000000e+00 3.0030999999999519e+01 0 0 0
616 2 6.1524999999999999e+00 2.1312885187134989e+00 3.0030999999999519e+01 0 0 0
618 2 7.3829999999999991e+00 1.4208590124756659e+00 3.0030999999999519e+01 0 0 0
620 2 7.3829999999999991e+00 0.0000000000000000e+00 3.0030999999999519e+01 0 0 0
614 2 6.1524999999999999e+00 3.5521475311891644e+00 3.0030999999999519e+01 0 0 0
901 2 4.9220000000000006e+00 2.8417180249513332e+00 3.3303941907834897e+01 0 0 0
902 2 4.9220000000000006e+00 0.0000000000000000e+00 3.3303941907834897e+01 0 0 0
903 2 6.1524999999999999e+00 7.1042950623783407e-01 3.3303941907834897e+01 0 0 0
915 2 6.1524999999999999e+00 2.1312885187134989e+00 3.3303941907834897e+01 0 0 0
916 2 7.3829999999999991e+00 2.8417180249513345e+00 3.3303941907834897e+01 0 0 0
917 2 7.3829999999999991e+00 0.0000000000000000e+00 3.3303941907834897e+01 0 0 0
653 2 8.6134999999999984e+00 2.1312885187135002e+00 3.0030999999999519e+01 0 0 0
655 2 9.8440000000000012e+00 1.4208590124756659e+00 3.0030999999999519e+01 0 0 0
657 2 9.8440000000000012e+00 0.0000000000000000e+00 3.0030999999999519e+01 0 0 0
698 2 1.1074500000000002e+01 2.1312885187135002e+00 3.0030999999999519e+01 0 0 0
651 2 8.6134999999999984e+00 3.5521475311891657e+00 3.0030999999999519e+01 0 0 0
696 2 1.1074500000000002e+01 3.5521475311891644e+00 3.0030999999999519e+01 0 0 0
918 2 8.6134999999999984e+00 7.1042950623783407e-01 3.3303941907834897e+01 0 0 0
934 2 8.6134999999999984e+00 2.1312885187135002e+00 3.3303941907834897e+01 0 0 0
935 2 9.8440000000000012e+00 2.8417180249513332e+00 3.3303941907834897e+01 0 0 0
936 2 9.8440000000000012e+00 0.0000000000000000e+00 3.3303941907834897e+01 0 0 0
937 2 1.1074500000000002e+01 7.1042950623783330e-01 3.3303941907834897e+01 0 0 0
957 2 1.1074500000000002e+01 2.1312885187135002e+00 3.3303941907834897e+01 0 0 0
560 2 0.0000000000000000e+00 5.6834360499026637e+00 3.0030999999999519e+01 0 0 0
562 2 0.0000000000000000e+00 4.2625770374269996e+00 3.0030999999999519e+01 0 0 0
579 2 1.2305000000000001e+00 6.3938655561404980e+00 3.0030999999999519e+01 0 0 0
581 2 2.4610000000000003e+00 5.6834360499026637e+00 3.0030999999999519e+01 0 0 0
583 2 2.4610000000000003e+00 4.2625770374269996e+00 3.0030999999999519e+01 0 0 0
608 2 3.6914999999999996e+00 6.3938655561404980e+00 3.0030999999999519e+01 0 0 0
577 2 1.2305000000000001e+00 7.8147245686161639e+00 3.0030999999999519e+01 0 0 0
606 2 3.6914999999999996e+00 7.8147245686161639e+00 3.0030999999999519e+01 0 0 0
887 2 0.0000000000000000e+00 4.2625770374269996e+00 3.3303941907834897e+01 0 0 0
888 2 1.2305000000000001e+00 4.9730065436648339e+00 3.3303941907834897e+01 0 0 0
896 2 1.2305000000000001e+00 6.3938655561404980e+00 3.3303941907834897e+01 0 0 0
898 2 2.4610000000000003e+00 4.2625770374269996e+00 3.3303941907834897e+01 0 0 0
899 2 3.6914999999999996e+00 4.9730065436648339e+00 3.3303941907834897e+01 0 0 0
911 2 3.6914999999999996e+00 6.3938655561404980e+00 3.3303941907834897e+01 0 0 0
886 2 0.0000000000000000e+00 7.1042950623783341e+00 3.3303941907834897e+01 0 0 0
897 2 2.4610000000000003e+00 7.1042950623783341e+00 3.3303941907834897e+01 0 0 0
610 2 4.9220000000000006e+00 5.6834360499026637e+00 3.0030999999999519e+01 0 0 0
612 2 4.9220000000000006e+00 4.2625770374269978e+00 3.0030999999999519e+01 0 0 0
645 2 6.1524999999999999e+00 6.3938655561404980e+00 3.0030999999999519e+01 0 0 0
647 2 7.3829999999999991e+00 5.6834360499026637e+00 3.0030999999999519e+01 0 0 0
649 2 7.3829999999999991e+00 4.2625770374269996e+00 3.0030999999999519e+01 0 0 0
643 2 6.1524999999999999e+00 7.8147245686161639e+00 3.0030999999999519e+01 0 0 0
913 2 4.9220000000000006e+00 4.2625770374269978e+00 3.3303941907834897e+01 0 0 0
914 2 6.1524999999999999e+00 4.9730065436648339e+00 3.3303941907834897e+01 0 0 0
930 2 6.1524999999999999e+00 6.3938655561404980e+00 3.3303941907834897e+01 0 0 0
932 2 7.3829999999999991e+00 4.2625770374269996e+00 3.3303941907834897e+01 0 0 0
912 2 4.9220000000000006e+00 7.1042950623783341e+00 3.3303941907834897e+01 0 0 0
931 2 7.3830000000000009e+00 7.1042950623783341e+00 3.3303941907834897e+01 0 0 0
690 2 8.6135000000000002e+00 6.3938655561404980e+00 3.0030999999999519e+01 0 0 0
692 2 9.8440000000000012e+00 5.6834360499026637e+00 3.0030999999999519e+01 0 0 0
694 2 9.8440000000000012e+00 4.2625770374270004e+00 3.0030999999999519e+01 0 0 0
737 2 1.1074500000000002e+01 6.3938655561404980e+00 3.0030999999999519e+01 0 0 0
688 2 8.6135000000000002e+00 7.8147245686161639e+00 3.0030999999999519e+01 0 0 0
735 2 1.1074500000000002e+01 7.8147245686161639e+00 3.0030999999999519e+01 0 0 0
933 2 8.6135000000000002e+00 4.9730065436648339e+00 3.3303941907834897e+01 0 0 0
953 2 8.6135000000000002e+00 6.3938655561404980e+00 3.3303941907834897e+01 0 0 0
955 2 9.8440000000000012e+00 4.2625770374270004e+00 3.3303941907834897e+01 0 0 0
956 2 1.1074500000000002e+01 4.9730065436648339e+00 3.3303941907834897e+01 0 0 0
977 2 1.1074500000000002e+01 6.3938655561404980e+00 3.3303941907834897e+01 0 0 0
954 2 9.8440000000000012e+00 7.1042950623783341e+00 3.3303941907834897e+01 0 0 0
573 2 0.0000000000000000e+00 9.9460130873296642e+00 3.0030999999999519e+01 0 0 0
575 2 0.0000000000000000e+00 8.5251540748539991e+00 3.0030999999999519e+01 0 0 0
602 2 2.4610000000000003e+00 9.9460130873296642e+00 3.0030999999999519e+01 0 0 0
604 2 2.4610000000000003e+00 8.5251540748539991e+00 3.0030999999999519e+01 0 0 0
598 2 1.2305000000000001e+00 1.2077301606043163e+01 3.0030999999999519e+01 0 0 0
600 2 1.2305000000000001e+00 1.0656442593567498e+01 3.0030999999999519e+01 0 0 0
635 2 3.6914999999999996e+00 1.2077301606043163e+01 3.0030999999999519e+01 0 0 0
637 2 3.6914999999999996e+00 1.0656442593567499e+01 3.0030999999999519e+01 0 0 0
894 2 0.0000000000000000e+00 8.5251540748539991e+00 3.3303941907834897e+01 0 0 0
895 2 1.2305000000000001e+00 9.2355835810918343e+00 3.3303941907834897e+01 0 0 0
909 2 2.4610000000000003e+00 8.5251540748539991e+00 3.3303941907834897e+01 0 0 0
910 2 3.6915000000000004e+00 9.2355835810918343e+00 3.3303941907834897e+01 0 0 0
893 2 0.0000000000000000e+00 1.1366872099805333e+01 3.3303941907834897e+01 0 0 0
907 2 1.2305000000000001e+00 1.0656442593567498e+01 3.3303941907834897e+01 0 0 0
908 2 2.4610000000000003e+00 1.1366872099805333e+01 3.3303941907834897e+01 0 0 0
926 2 3.6914999999999996e+00 1.0656442593567499e+01 3.3303941907834897e+01 0 0 0
639 2 4.9220000000000006e+00 9.9460130873296642e+00 3.0030999999999519e+01 0 0 0
641 2 4.9220000000000006e+00 8.5251540748539991e+00 3.0030999999999519e+01 0 0 0
684 2 7.3830000000000009e+00 9.9460130873296642e+00 3.0030999999999519e+01 0 0 0
686 2 7.3830000000000009e+00 8.5251540748539991e+00 3.0030999999999519e+01 0 0 0
680 2 6.1524999999999999e+00 1.2077301606043163e+01 3.0030999999999519e+01 0 0 0
682 2 6.1524999999999999e+00 1.0656442593567499e+01 3.0030999999999519e+01 0 0 0
928 2 4.9220000000000006e+00 8.5251540748539991e+00 3.3303941907834897e+01 0 0 0
929 2 6.1524999999999999e+00 9.2355835810918343e+00 3.3303941907834897e+01 0 0 0
951 2 7.3830000000000009e+00 8.5251540748539991e+00 3.3303941907834897e+01 0 0 0
927 2 4.9220000000000006e+00 1.1366872099805333e+01 3.3303941907834897e+01 0 0 0
949 2 6.1524999999999999e+00 1.0656442593567499e+01 3.3303941907834897e+01 0 0 0
950 2 7.3829999999999991e+00 1.1366872099805333e+01 3.3303941907834897e+01 0 0 0
731 2 9.8440000000000012e+00 9.9460130873296642e+00 3.0030999999999519e+01 0 0 0
733 2 9.8440000000000012e+00 8.5251540748539956e+00 3.0030999999999519e+01 0 0 0
727 2 8.6135000000000002e+00 1.2077301606043163e+01 3.0030999999999519e+01 0 0 0
729 2 8.6134999999999984e+00 1.0656442593567498e+01 3.0030999999999519e+01 0 0 0
774 2 1.1074500000000002e+01 1.2077301606043163e+01 3.0030999999999519e+01 0 0 0
776 2 1.1074500000000002e+01 1.0656442593567498e+01 3.0030999999999519e+01 0 0 0
952 2 8.6134999999999984e+00 9.2355835810918343e+00 3.3303941907834897e+01 0 0 0
975 2 9.8440000000000012e+00 8.5251540748539956e+00 3.3303941907834897e+01 0 0 0
976 2 1.1074500000000002e+01 9.2355835810918343e+00 3.3303941907834897e+01 0 0 0
973 2 8.6134999999999984e+00 1.0656442593567498e+01 3.3303941907834897e+01 0 0 0
974 2 9.8440000000000012e+00 1.1366872099805333e+01 3.3303941907834897e+01 0 0 0
997 2 1.1074500000000002e+01 1.0656442593567498e+01 3.3303941907834897e+01 0 0 0
998 2 1.2304999999999998e+01 1.1366872099805333e+01 3.3303941907834897e+01 0 0 0
2145 1 3.7938263586356400e+00 2.4906840110046029e+00 3.6087154910977645e+01 -2 1 0
3459 1 1.4237647779037406e+00 3.9782370820175053e+00 3.6336754640863205e+01 -3 2 -1
4560 1 6.1832651997130847e+00 3.8064049472856816e+00 3.5679156353018840e+01 -1 -2 0
3373 1 8.5422959957749445e+00 2.3622894802508108e+00 3.6412605482308635e+01 2 2 -1
1533 1 1.0197237705026134e+00 6.7069328585071633e+00 3.6087223786220733e+01 0 1 -1
5285 1 3.7121647449760964e+00 7.6546283313080385e+00 3.5678523806431585e+01 1 2 -1
6204 1 6.2428790014982489e+00 6.5452774842000636e+00 3.6530406778148617e+01 -1 -2 0
1399 1 8.4694220737952417e+00 8.1611773266246583e+00 3.5955745124678288e+01 1 4 0
4882 1 1.0919845274390383e+01 3.8952236708785666e+00 3.5688349119279891e+01 1 0 -1
6114 1 1.0820840427078222e+01 6.6124547020676250e+00 3.6442679897973093e+01 -1 -2 0
1739 1 3.6957104296451453e+00 1.0498049982617660e+01 3.6261315449077912e+01 4 0 -1
3351 1 1.0696640793445525e+01 1.1759124564343685e+01 3.5992696372169775e+01 1 -2 -1
2822 1 8.0771515299298606e+00 1.0640869262095405e+01 3.6630161879813102e+01 -1 3 0
1955 1 5.8723619211272622e+00 1.1888254495321634e+01 3.5507416468137649e+01 1 2 -1
3217 1 1.3377010629566115e+00 1.2091520928125638e+01 3.6076247631448027e+01 -1 3 -1
6317 1 1.6042286153518721e+00 1.3281341365587527e+00 3.9533379694719798e+01 0 3 0
1878 1 3.7737099521753716e+00 2.8424408389355968e+00 3.8844172854767777e+01 -2 3 -1
5022 1 5.9150137625944899e+00 1.3467747933973391e+00 3.9640890077806176e+01 -3 0 -1
3350 1 8.2317510872124444e+00 3.0230686862715239e+00 3.9149150600790605e+01 -3 1 -1
3705 1 1.0690973698171636e+01 1.7183750660792145e+00 3.9780597555157129e+01 -1 -1 0
5975 1 1.2693583843083585e+00 6.8955646127953738e+00 3.8876796337543311e+01 0 -2 0
3335 1 3.4105742292289896e+00 5.3807081403626373e+00 3.9784270395668472e+01 2 -1 -1
1973 1 5.8905618077502320e+00 6.4888343050306840e+00 3.9126577742669411e+01 -3 -2 -1
1430 1 8.2471250662306463e+00 5.9093867125856097e+00 4.0174462961864933e+01 0 0 0
1507 1 1.0316407518622867e+01 7.2679120358558107e+00 3.9122343020318951e+01 1 0 -1
4584 1 1.6413313010971033e+00 9.4336014316020158e+00 3.9872430375476682e+01 0 0 0
1532 1 3.9349822927628177e+00 1.0826565928685358e+01 3.8957430139569396e+01 -1 0 0
3195 1 5.7597064538375289e+00 9.4087725552667205e+00 4.0010061471994575e+01 0 -1 0
3243 1 8.1314258717608539e+00 1.0645157643983808e+01 3.9203801854947017e+01 -1 0 -1
3624 1 1.0463523559458842e+01 9.5539699666432263e+00 4.0078371001313641e+01 2 1 -1
1988 1 1.5796409519344619e+00 1.1678989848141657e+00 4.2238852760772062e+01 0 0 -1
139 1 3.6555317250287738e+00 2.6367613410375421e+00 4.3402383500372309e+01 -3 2 -1
4849 1 5.8690086675931061e+00 1.4969295348280531e+00 4.2336994345635205e+01 -3 1 -1
5123 1 8.1194981512759909e+00 2.7943765037909696e+00 4.3407534923998313e+01 1 2 -1
3226 1 1.0608059265906977e+01 1.4885279674623497e+00 4.2619202756550393e+01 -2 -2 0
536 1 1.5180124264462866e+00 6.5120130868119945e+00 4.3747001755179042e+01 -4 2 0
1563 1 3.6998019355407208e+00 5.3230871857446385e+00 4.2688697176971729e+01 -1 3 0
2865 1 5.8102657410954803e+00 6.5169899686167696e+00 4.3979687424293957e+01 -2 3 0
3695 1 8.3595543651390489e+00 5.4922965517087565e+00 4.2876600136963759e+01 2 4 0
229 1 1.0501504129109627e+01 6.7961594388707818e+00 4.3567437337069109e+01 -3 1 -1
3196 1 1.9069425092847536e+00 9.0051885073850642e+00 4.2579283467689592e+01 2 0 0
5108 1 3.7938027393714799e+00 1.0950280827962152e+01 4.3774657277525620e+01 -4 5 -1
1617 1 7.9866560274031224e+00 1.0491254948884992e+01 4.3637076051659662e+01 0 -1 0
5030 1 5.6924199333890071e+00 9.2557351670115491e+00 4.2836424404817706e+01 0 0 -1
52 1 1.0474138007889927e+01 9.3816705123830832e+00 4.2843541532242469e+01 0 1 0
3700 1 3.7031999476399573e+00 2.7154780004793921e+00 4.6151419117917641e+01 -3 0 0
4717 1 3.4750652803356390e+00 2.4441505169983890e+00 5.0877558143973474e+01 2 1 -1
3046 1 8.0756953090945682e+00 2.3249080212238300e+00 4.6085552549821799e+01 1 3 -1
206 1 6.1614883848422677e+00 3.7497906148389868e+00 4.7283425412660236e+01 -1 1 -1
3438 1 3.4339883222297609e+00 1.0277481550218919e+01 5.1159237899135562e+01 -2 0 0
1657 1 1.0370543134328123e+01 3.8516037023550695e+00 4.6912503261826657e+01 2 -1 -1
6148 1 1.0197025609339525e+01 6.2093905827560443e+00 5.1047726100088923e+01 0 2 -1
3252 1 1.5206678065424717e+00 3.9824049874018526e+00 4.7300682966672170e+01 -2 2 -1
1851 1 1.6070207170170199e+00 6.7073133316012452e+00 4.6563047040137349e+01 -2 0 -1
3538 1 3.9981883103498514e+00 8.0553918221885752e+00 4.7646893355115097e+01 -2 0 -1
2923 1 5.9413468521882047e+00 6.2998026890842214e+00 4.6738225356945833e+01 0 -1 0
1295 1 8.0922850257093728e+00 7.9788922351752189e+00 4.7367096419703586e+01 1 -2 0
353 1 1.0390069898509918e+01 6.5262869131341334e+00 4.6375540468233851e+01 -1 -4 -1
126 1 4.1761796063084384e+00 1.0631263456043081e+01 4.6562597267820067e+01 0 -2 -1
177 1 1.5203769173338646e+00 1.1902477545856254e+01 5.0002394457069798e+01 -1 0 -1
1873 1 8.0973646715405749e+00 1.0676509441548314e+01 4.6532598490217424e+01 -1 -1 0
4641 1 7.7453150306017529e+00 2.2375633114281803e+00 5.0797740616920080e+01 1 2 0
4489 1 5.5677317654554290e+00 1.1966368002492310e+01 5.0475477347259130e+01 1 1 0
3274 1 1.4032570947198226e+00 6.5115746178384946e+00 5.1130438158330065e+01 5 2 -1
6295 1 6.1218065283374141e+00 6.3434722719563679e+00 5.1019180042907053e+01 -2 -1 0
6071 1 1.3981630766704090e+00 4.0647806049937873e+00 4.9970656247705193e+01 1 0 0
5171 1 1.7416150473595575e+00 1.2191480112078454e+01 4.7402438883303617e+01 0 0 -1
2905 1 5.6956135833328885e+00 3.7626648918019039e+00 5.0080179126443511e+01 -2 0 0
3042 1 1.0026812850997006e+01 3.4828099200716811e+00 4.9846795922456053e+01 0 -3 0
5010 1 1.0286364192125765e+01 1.1873389297738187e+01 5.0095636000964376e+01 0 2 -1
1746 1 3.7884974886296083e+00 7.7559607337611451e+00 5.0355027761452988e+01 1 0 -1
6066 1 8.1866546060095917e+00 7.9521351305603156e+00 5.0194624608097087e+01 1 1 0
5238 1 3.6269917787703543e+00 4.0909674808526253e-02 4.9760374025477560e+01 1 0 0
2159 1 3.5322257293987591e+00 1.0926845855388821e-01 4.7070381466517304e+01 0 0 0
1641 1 6.1919164235241828e+00 1.2150334454800573e+01 4.7785364586972676e+01 1 2 0
2127 1 1.0731440428211178e+01 1.1883385729329728e+01 4.7343137793150476e+01 2 3 0
3508 1 7.9385566045522049e+00 1.0549152443452909e+01 5.1020853831673946e+01 0 2 -1