LAMMPS data file via write_data, version 16 Mar 2018, timestep = 100000

4560 atoms
2 atom types

0.0000000000000000e+00 4.9219999999999999e+01 xlo xhi
0.0000000000000000e+00 4.9019635930410494e+01 ylo yhi
1.1996838596374264e+00 3.2740316140362559e+01 zlo zhi

Masses

1 18.015
2 12.01

Atoms # atomic

147 2 0.0000000000000000e+00 2.8417180249513345e+00 3.2904970319127931e+00 0 0 0
149 2 0.0000000000000000e+00 0.0000000000000000e+00 3.2904970319127931e+00 0 0 0
151 2 1.2305000000000001e+00 7.1042950623783474e-01 3.2904970319127931e+00 0 0 0
158 2 1.2305000000000001e+00 2.1312885187134998e+00 3.2904970319127931e+00 0 0 0
160 2 2.4610000000000003e+00 2.8417180249513345e+00 3.2904970319127931e+00 0 0 0
162 2 2.4610000000000003e+00 0.0000000000000000e+00 3.2904970319127931e+00 0 0 0
164 2 3.6915000000000004e+00 7.1042950623783474e-01 3.2904970319127931e+00 0 0 0
179 2 3.6914999999999996e+00 2.1312885187134998e+00 3.2904970319127931e+00 0 0 0
181 2 4.9220000000000006e+00 2.8417180249513332e+00 3.2904970319127931e+00 0 0 0
183 2 4.9220000000000006e+00 0.0000000000000000e+00 3.2904970319127931e+00 0 0 0
185 2 6.1524999999999999e+00 7.1042950623783407e-01 3.2904970319127931e+00 0 0 0
208 2 6.1524999999999999e+00 2.1312885187134989e+00 3.2904970319127931e+00 0 0 0
210 2 7.3829999999999991e+00 2.8417180249513345e+00 3.2904970319127931e+00 0 0 0
212 2 7.3829999999999991e+00 0.0000000000000000e+00 3.2904970319127931e+00 0 0 0
214 2 8.6134999999999984e+00 7.1042950623783407e-01 3.2904970319127931e+00 0 0 0
245 2 8.6134999999999984e+00 2.1312885187135002e+00 3.2904970319127931e+00 0 0 0
247 2 9.8440000000000012e+00 2.8417180249513332e+00 3.2904970319127931e+00 0 0 0
249 2 9.8440000000000012e+00 0.0000000000000000e+00 3.2904970319127931e+00 0 0 0
251 2 1.1074500000000002e+01 7.1042950623783330e-01 3.2904970319127931e+00 0 0 0
290 2 1.1074500000000002e+01 2.1312885187135002e+00 3.2904970319127931e+00 0 0 0
154 2 0.0000000000000000e+00 4.2625770374269996e+00 3.2904970319127931e+00 0 0 0
156 2 1.2305000000000001e+00 4.9730065436648339e+00 3.2904970319127931e+00 0 0 0
171 2 1.2305000000000001e+00 6.3938655561404980e+00 3.2904970319127931e+00 0 0 0
175 2 2.4610000000000003e+00 4.2625770374269996e+00 3.2904970319127931e+00 0 0 0
177 2 3.6914999999999996e+00 4.9730065436648339e+00 3.2904970319127931e+00 0 0 0
200 2 3.6914999999999996e+00 6.3938655561404980e+00 3.2904970319127931e+00 0 0 0
152 2 0.0000000000000000e+00 7.1042950623783341e+00 3.2904970319127931e+00 0 0 0
173 2 2.4610000000000003e+00 7.1042950623783341e+00 3.2904970319127931e+00 0 0 0
204 2 4.9220000000000006e+00 4.2625770374269978e+00 3.2904970319127931e+00 0 0 0
206 2 6.1524999999999999e+00 4.9730065436648339e+00 3.2904970319127931e+00 0 0 0
237 2 6.1524999999999999e+00 6.3938655561404980e+00 3.2904970319127931e+00 0 0 0
241 2 7.3829999999999991e+00 4.2625770374269996e+00 3.2904970319127931e+00 0 0 0
202 2 4.9220000000000006e+00 7.1042950623783341e+00 3.2904970319127931e+00 0 0 0
239 2 7.3830000000000009e+00 7.1042950623783341e+00 3.2904970319127931e+00 0 0 0
243 2 8.6135000000000002e+00 4.9730065436648339e+00 3.2904970319127931e+00 0 0 0
282 2 8.6135000000000002e+00 6.3938655561404980e+00 3.2904970319127931e+00 0 0 0
286 2 9.8440000000000012e+00 4.2625770374270004e+00 3.2904970319127931e+00 0 0 0
288 2 1.1074500000000002e+01 4.9730065436648339e+00 3.2904970319127931e+00 0 0 0
329 2 1.1074500000000002e+01 6.3938655561404980e+00 3.2904970319127931e+00 0 0 0
284 2 9.8440000000000012e+00 7.1042950623783341e+00 3.2904970319127931e+00 0 0 0
167 2 0.0000000000000000e+00 8.5251540748539991e+00 3.2904970319127931e+00 0 0 0
169 2 1.2305000000000001e+00 9.2355835810918343e+00 3.2904970319127931e+00 0 0 0
196 2 2.4610000000000003e+00 8.5251540748539991e+00 3.2904970319127931e+00 0 0 0
198 2 3.6915000000000004e+00 9.2355835810918343e+00 3.2904970319127931e+00 0 0 0
165 2 0.0000000000000000e+00 1.1366872099805333e+01 3.2904970319127931e+00 0 0 0
192 2 1.2305000000000001e+00 1.0656442593567498e+01 3.2904970319127931e+00 0 0 0
194 2 2.4610000000000003e+00 1.1366872099805333e+01 3.2904970319127931e+00 0 0 0
229 2 3.6914999999999996e+00 1.0656442593567499e+01 3.2904970319127931e+00 0 0 0
233 2 4.9220000000000006e+00 8.5251540748539991e+00 3.2904970319127931e+00 0 0 0
235 2 6.1524999999999999e+00 9.2355835810918343e+00 3.2904970319127931e+00 0 0 0
278 2 7.3830000000000009e+00 8.5251540748539991e+00 3.2904970319127931e+00 0 0 0
231 2 4.9220000000000006e+00 1.1366872099805333e+01 3.2904970319127931e+00 0 0 0
274 2 6.1524999999999999e+00 1.0656442593567499e+01 3.2904970319127931e+00 0 0 0
276 2 7.3829999999999991e+00 1.1366872099805333e+01 3.2904970319127931e+00 0 0 0
280 2 8.6134999999999984e+00 9.2355835810918343e+00 3.2904970319127931e+00 0 0 0
325 2 9.8440000000000012e+00 8.5251540748539956e+00 3.2904970319127931e+00 0 0 0
327 2 1.1074500000000002e+01 9.2355835810918343e+00 3.2904970319127931e+00 0 0 0
321 2 8.6134999999999984e+00 1.0656442593567498e+01 3.2904970319127931e+00 0 0 0
323 2 9.8440000000000012e+00 1.1366872099805333e+01 3.2904970319127931e+00 0 0 0
368 2 1.1074500000000002e+01 1.0656442593567498e+01 3.2904970319127931e+00 0 0 0
370 2 1.2304999999999998e+01 1.1366872099805333e+01 3.2904970319127931e+00 0 0 0
148 2 0.0000000000000000e+00 1.4208590124756650e+00 6.2906312733937568e+00 0 0 0
150 2 0.0000000000000000e+00 0.0000000000000000e+00 6.2906312733937568e+00 0 0 0
159 2 1.2305000000000001e+00 2.1312885187134998e+00 6.2906312733937568e+00 0 0 0
161 2 2.4610000000000003e+00 1.4208590124756650e+00 6.2906312733937568e+00 0 0 0
163 2 2.4610000000000003e+00 0.0000000000000000e+00 6.2906312733937568e+00 0 0 0
180 2 3.6914999999999996e+00 2.1312885187134998e+00 6.2906312733937568e+00 0 0 0
157 2 1.2305000000000001e+00 3.5521475311891644e+00 6.2906312733937568e+00 0 0 0
178 2 3.6914999999999996e+00 3.5521475311891644e+00 6.2906312733937568e+00 0 0 0
182 2 4.9220000000000006e+00 1.4208590124756650e+00 6.2906312733937568e+00 0 0 0
184 2 4.9220000000000006e+00 0.0000000000000000e+00 6.2906312733937568e+00 0 0 0
209 2 6.1524999999999999e+00 2.1312885187134989e+00 6.2906312733937568e+00 0 0 0
211 2 7.3829999999999991e+00 1.4208590124756659e+00 6.2906312733937568e+00 0 0 0
213 2 7.3829999999999991e+00 0.0000000000000000e+00 6.2906312733937568e+00 0 0 0
207 2 6.1524999999999999e+00 3.5521475311891644e+00 6.2906312733937568e+00 0 0 0
246 2 8.6134999999999984e+00 2.1312885187135002e+00 6.2906312733937568e+00 0 0 0
248 2 9.8440000000000012e+00 1.4208590124756659e+00 6.2906312733937568e+00 0 0 0
250 2 9.8440000000000012e+00 0.0000000000000000e+00 6.2906312733937568e+00 0 0 0
291 2 1.1074500000000002e+01 2.1312885187135002e+00 6.2906312733937568e+00 0 0 0
244 2 8.6134999999999984e+00 3.5521475311891657e+00 6.2906312733937568e+00 0 0 0
289 2 1.1074500000000002e+01 3.5521475311891644e+00 6.2906312733937568e+00 0 0 0
153 2 0.0000000000000000e+00 5.6834360499026637e+00 6.2906312733937568e+00 0 0 0
155 2 0.0000000000000000e+00 4.2625770374269996e+00 6.2906312733937568e+00 0 0 0
172 2 1.2305000000000001e+00 6.3938655561404980e+00 6.2906312733937568e+00 0 0 0
174 2 2.4610000000000003e+00 5.6834360499026637e+00 6.2906312733937568e+00 0 0 0
176 2 2.4610000000000003e+00 4.2625770374269996e+00 6.2906312733937568e+00 0 0 0
201 2 3.6914999999999996e+00 6.3938655561404980e+00 6.2906312733937568e+00 0 0 0
170 2 1.2305000000000001e+00 7.8147245686161639e+00 6.2906312733937568e+00 0 0 0
199 2 3.6914999999999996e+00 7.8147245686161639e+00 6.2906312733937568e+00 0 0 0
203 2 4.9220000000000006e+00 5.6834360499026637e+00 6.2906312733937568e+00 0 0 0
205 2 4.9220000000000006e+00 4.2625770374269978e+00 6.2906312733937568e+00 0 0 0
238 2 6.1524999999999999e+00 6.3938655561404980e+00 6.2906312733937568e+00 0 0 0
240 2 7.3829999999999991e+00 5.6834360499026637e+00 6.2906312733937568e+00 0 0 0
242 2 7.3829999999999991e+00 4.2625770374269996e+00 6.2906312733937568e+00 0 0 0
236 2 6.1524999999999999e+00 7.8147245686161639e+00 6.2906312733937568e+00 0 0 0
283 2 8.6135000000000002e+00 6.3938655561404980e+00 6.2906312733937568e+00 0 0 0
285 2 9.8440000000000012e+00 5.6834360499026637e+00 6.2906312733937568e+00 0 0 0
287 2 9.8440000000000012e+00 4.2625770374270004e+00 6.2906312733937568e+00 0 0 0
330 2 1.1074500000000002e+01 6.3938655561404980e+00 6.2906312733937568e+00 0 0 0
281 2 8.6135000000000002e+00 7.8147245686161639e+00 6.2906312733937568e+00 0 0 0
328 2 1.1074500000000002e+01 7.8147245686161639e+00 6.2906312733937568e+00 0 0 0
166 2 0.0000000000000000e+00 9.9460130873296642e+00 6.2906312733937568e+00 0 0 0
168 2 0.0000000000000000e+00 8.5251540748539991e+00 6.2906312733937568e+00 0 0 0
195 2 2.4610000000000003e+00 9.9460130873296642e+00 6.2906312733937568e+00 0 0 0
197 2 2.4610000000000003e+00 8.5251540748539991e+00 6.2906312733937568e+00 0 0 0
191 2 1.2305000000000001e+00 1.2077301606043163e+01 6.2906312733937568e+00 0 0 0
193 2 1.2305000000000001e+00 1.0656442593567498e+01 6.2906312733937568e+00 0 0 0
228 2 3.6914999999999996e+00 1.2077301606043163e+01 6.2906312733937568e+00 0 0 0
230 2 3.6914999999999996e+00 1.0656442593567499e+01 6.2906312733937568e+00 0 0 0
232 2 4.9220000000000006e+00 9.9460130873296642e+00 6.2906312733937568e+00 0 0 0
234 2 4.9220000000000006e+00 8.5251540748539991e+00 6.2906312733937568e+00 0 0 0
277 2 7.3830000000000009e+00 9.9460130873296642e+00 6.2906312733937568e+00 0 0 0
279 2 7.3830000000000009e+00 8.5251540748539991e+00 6.2906312733937568e+00 0 0 0
273 2 6.1524999999999999e+00 1.2077301606043163e+01 6.2906312733937568e+00 0 0 0
275 2 6.1524999999999999e+00 1.0656442593567499e+01 6.2906312733937568e+00 0 0 0
322 2 8.6134999999999984e+00 1.0656442593567498e+01 6.2906312733937568e+00 0 0 0
367 2 1.1074500000000002e+01 1.2077301606043163e+01 6.2906312733937568e+00 0 0 0
369 2 1.1074500000000002e+01 1.0656442593567498e+01 6.2906312733937568e+00 0 0 0
324 2 9.8440000000000012e+00 9.9460130873296642e+00 6.2906312733937568e+00 0 0 0
326 2 9.8440000000000012e+00 8.5251540748539956e+00 6.2906312733937568e+00 0 0 0
320 2 8.6135000000000002e+00 1.2077301606043163e+01 6.2906312733937568e+00 0 0 0
476 2 0.0000000000000000e+00 2.8417180249513345e+00 9.2907655148737245e+00 0 0 0
477 2 0.0000000000000000e+00 0.0000000000000000e+00 9.2907655148737245e+00 0 0 0
478 2 1.2305000000000001e+00 7.1042950623783474e-01 9.2907655148737245e+00 0 0 0
482 2 1.2305000000000001e+00 2.1312885187134998e+00 9.2907655148737245e+00 0 0 0
483 2 2.4610000000000003e+00 2.8417180249513345e+00 9.2907655148737245e+00 0 0 0
484 2 2.4610000000000003e+00 0.0000000000000000e+00 9.2907655148737245e+00 0 0 0
485 2 3.6915000000000004e+00 7.1042950623783474e-01 9.2907655148737245e+00 0 0 0
493 2 3.6914999999999996e+00 2.1312885187134998e+00 9.2907655148737245e+00 0 0 0
3298 1 4.5983767455724611e-01 1.9929547902367764e+00 1.1750945461960997e+01 1 -1 0
494 2 4.9220000000000006e+00 2.8417180249513332e+00 9.2907655148737245e+00 0 0 0
495 2 4.9220000000000006e+00 0.0000000000000000e+00 9.2907655148737245e+00 0 0 0
496 2 6.1524999999999999e+00 7.1042950623783407e-01 9.2907655148737245e+00 0 0 0
508 2 6.1524999999999999e+00 2.1312885187134989e+00 9.2907655148737245e+00 0 0 0
509 2 7.3829999999999991e+00 2.8417180249513345e+00 9.2907655148737245e+00 0 0 0
510 2 7.3829999999999991e+00 0.0000000000000000e+00 9.2907655148737245e+00 0 0 0
2078 1 7.3524709402084873e+00 4.2419214584585356e+00 1.1692212987699881e+01 2 0 0
2148 1 1.0879930202539891e+01 5.4165838560339283e+00 1.6486700341971982e+01 1 1 0
511 2 8.6134999999999984e+00 7.1042950623783407e-01 9.2907655148737245e+00 0 0 0
527 2 8.6134999999999984e+00 2.1312885187135002e+00 9.2907655148737245e+00 0 0 0
528 2 9.8440000000000012e+00 2.8417180249513332e+00 9.2907655148737245e+00 0 0 0
529 2 9.8440000000000012e+00 0.0000000000000000e+00 9.2907655148737245e+00 0 0 0
530 2 1.1074500000000002e+01 7.1042950623783330e-01 9.2907655148737245e+00 0 0 0
550 2 1.1074500000000002e+01 2.1312885187135002e+00 9.2907655148737245e+00 0 0 0
4469 1 7.6840214856700187e-02 8.9535602462432635e+00 1.1860134790014394e+01 1 1 0
3484 1 1.0549898545487975e+01 7.3351997565586533e+00 1.4604321436872896e+01 0 0 0
480 2 0.0000000000000000e+00 4.2625770374269996e+00 9.2907655148737245e+00 0 0 0
481 2 1.2305000000000001e+00 4.9730065436648339e+00 9.2907655148737245e+00 0 0 0
489 2 1.2305000000000001e+00 6.3938655561404980e+00 9.2907655148737245e+00 0 0 0
491 2 2.4610000000000003e+00 4.2625770374269996e+00 9.2907655148737245e+00 0 0 0
492 2 3.6914999999999996e+00 4.9730065436648339e+00 9.2907655148737245e+00 0 0 0
504 2 3.6914999999999996e+00 6.3938655561404980e+00 9.2907655148737245e+00 0 0 0
479 2 0.0000000000000000e+00 7.1042950623783341e+00 9.2907655148737245e+00 0 0 0
490 2 2.4610000000000003e+00 7.1042950623783341e+00 9.2907655148737245e+00 0 0 0
4439 1 1.1932823199787992e+00 4.6871033357518490e+00 1.2434194647258241e+01 0 1 0
2205 1 3.5020211092054740e+00 5.7110728250566085e+00 1.2077988534957148e+01 0 1 0
3531 1 5.1687218582592411e+00 3.8105228855628321e+00 1.3605645489444006e+01 0 1 0
506 2 4.9220000000000006e+00 4.2625770374269978e+00 9.2907655148737245e+00 0 0 0
507 2 6.1524999999999999e+00 4.9730065436648339e+00 9.2907655148737245e+00 0 0 0
523 2 6.1524999999999999e+00 6.3938655561404980e+00 9.2907655148737245e+00 0 0 0
525 2 7.3829999999999991e+00 4.2625770374269996e+00 9.2907655148737245e+00 0 0 0
505 2 4.9220000000000006e+00 7.1042950623783341e+00 9.2907655148737245e+00 0 0 0
524 2 7.3830000000000009e+00 7.1042950623783341e+00 9.2907655148737245e+00 0 0 0
841 1 8.8400257926080492e+00 1.7211446212054509e+00 1.1626275697292934e+01 0 0 0
3190 1 1.1059450453087416e+01 1.2007216082259919e+01 1.2044573499847424e+01 0 0 0
526 2 8.6135000000000002e+00 4.9730065436648339e+00 9.2907655148737245e+00 0 0 0
546 2 8.6135000000000002e+00 6.3938655561404980e+00 9.2907655148737245e+00 0 0 0
548 2 9.8440000000000012e+00 4.2625770374270004e+00 9.2907655148737245e+00 0 0 0
549 2 1.1074500000000002e+01 4.9730065436648339e+00 9.2907655148737245e+00 0 0 0
570 2 1.1074500000000002e+01 6.3938655561404980e+00 9.2907655148737245e+00 0 0 0
547 2 9.8440000000000012e+00 7.1042950623783341e+00 9.2907655148737245e+00 0 0 0
2073 1 1.0777250252599906e+01 1.0010530743598453e+01 1.4667587697636561e+01 1 1 0
487 2 0.0000000000000000e+00 8.5251540748539991e+00 9.2907655148737245e+00 0 0 0
488 2 1.2305000000000001e+00 9.2355835810918343e+00 9.2907655148737245e+00 0 0 0
502 2 2.4610000000000003e+00 8.5251540748539991e+00 9.2907655148737245e+00 0 0 0
503 2 3.6915000000000004e+00 9.2355835810918343e+00 9.2907655148737245e+00 0 0 0
486 2 0.0000000000000000e+00 1.1366872099805333e+01 9.2907655148737245e+00 0 0 0
500 2 1.2305000000000001e+00 1.0656442593567498e+01 9.2907655148737245e+00 0 0 0
501 2 2.4610000000000003e+00 1.1366872099805333e+01 9.2907655148737245e+00 0 0 0
519 2 3.6914999999999996e+00 1.0656442593567499e+01 9.2907655148737245e+00 0 0 0
4296 1 3.4398803606831061e+00 1.8070177684783248e+00 1.2533342890532580e+01 1 0 0
2206 1 7.9886154929358923e+00 6.8097022034753065e+00 1.2195048543109962e+01 0 0 0
521 2 4.9220000000000006e+00 8.5251540748539991e+00 9.2907655148737245e+00 0 0 0
522 2 6.1524999999999999e+00 9.2355835810918343e+00 9.2907655148737245e+00 0 0 0
544 2 7.3830000000000009e+00 8.5251540748539991e+00 9.2907655148737245e+00 0 0 0
520 2 4.9220000000000006e+00 1.1366872099805333e+01 9.2907655148737245e+00 0 0 0
542 2 6.1524999999999999e+00 1.0656442593567499e+01 9.2907655148737245e+00 0 0 0
543 2 7.3829999999999991e+00 1.1366872099805333e+01 9.2907655148737245e+00 0 0 0
863 1 6.8134799441144960e+00 9.3145661689855412e+00 1.2069813303986605e+01 0 0 0
928 1 1.1608337562625270e+01 1.5828786641218771e+00 1.2149993853779311e+01 0 1 0
545 2 8.6134999999999984e+00 9.2355835810918343e+00 9.2907655148737245e+00 0 0 0
568 2 9.8440000000000012e+00 8.5251540748539956e+00 9.2907655148737245e+00 0 0 0
569 2 1.1074500000000002e+01 9.2355835810918343e+00 9.2907655148737245e+00 0 0 0
566 2 8.6134999999999984e+00 1.0656442593567498e+01 9.2907655148737245e+00 0 0 0
567 2 9.8440000000000012e+00 1.1366872099805333e+01 9.2907655148737245e+00 0 0 0
590 2 1.1074500000000002e+01 1.0656442593567498e+01 9.2907655148737245e+00 0 0 0
591 2 1.2304999999999998e+01 1.1366872099805333e+01 9.2907655148737245e+00 0 0 0
2090 1 7.8907640612270242e+00 9.8108929347065175e+00 1.4699034758343394e+01 0 1 0
3275 1 3.0353203806061315e+00 6.4486861026717408e+00 1.6947135532930155e+01 -1 0 0
3541 1 1.0080881975962743e+00 4.8595479630609946e+00 1.5465562987793115e+01 1 0 0
1973 1 3.2363046208385153e+00 1.1799423337666594e+01 1.4650019621633744e+01 1 0 0
3443 1 1.0676809392687046e+01 6.6939504822510889e+00 1.1865501720224358e+01 -1 0 0
2198 1 8.8003376120592520e+00 3.7288769190489366e+00 1.5340557180825948e+01 0 0 0
3465 1 4.5087017655697332e+00 1.1183866078771013e+01 1.2144881352271280e+01 0 0 0
71 1 2.5150629956369794e+00 8.8903636606480632e+00 1.5049611748618009e+01 0 0 0
2330 1 7.0934756687554312e+00 1.5595324673220761e+00 1.3696260777122570e+01 1 0 0
3544 1 4.9825098869893516e+00 7.6022209767665245e+00 1.4023313221353913e+01 1 0 0
3199 1 7.7062514278343626e+00 6.3653794884035104e+00 1.5046127956240364e+01 0 0 -1
4555 1 8.1910778913747677e+00 1.1810951392664371e+01 1.1993397540442229e+01 1 -1 -1
1193 1 4.9089850406515270e+00 4.6437963807557328e+00 1.6299461653279053e+01 0 0 1
1010 1 2.7984001110426346e+00 8.6586946948225965e+00 1.2131141099635759e+01 0 0 0
3280 1 1.1926548250480694e+01 9.2862584628922420e+00 1.1753715904447695e+01 -1 0 -1
2028 1 1.2050707017172099e+01 3.0616299334068758e-01 1.5665050294499917e+01 1 1 -1
29 1 5.5198543886967757e+00 2.9324827365823758e-01 1.1623034699269141e+01 1 1 0
99 1 1.2120820736824093e+01 4.6103587192705175e+00 1.2148890258594109e+01 1 1 0
1963 1 1.2214021522917518e+01 3.1167312222829171e+00 1.4922424930160268e+01 1 0 0
1168 1 2.7027744885148555e+00 1.5059537506170515e-02 1.4744124627922210e+01 0 0 0
2402 1 7.6614318301295725e-03 7.6255578765320982e+00 1.5849728762570242e+01 0 -1 1
2005 1 3.4247106500630053e+00 4.0133647573477171e+00 2.0136807509022077e+01 1 1 0
2176 1 3.8627794965064877e+00 4.4295972982845120e+00 2.4744447966549650e+01 -1 0 -1
4461 1 9.3400829428082854e+00 1.9170535629801380e+00 2.1922500590921004e+01 0 1 0
902 1 1.2485272117807489e+00 1.5668113763516469e+00 1.7241984443997467e+01 0 1 0
1230 1 1.2143077062003469e+01 4.8043403255853994e+00 2.0623283019189138e+01 0 0 0
3397 1 3.3428776301510044e+00 7.0339847806280336e+00 2.1585693552492422e+01 0 0 0
96 1 1.5028638278872162e+00 5.6910752809948164e+00 1.9100026443326904e+01 0 0 0
2260 1 4.2897876652301328e+00 8.1947406682937540e+00 1.9175684834994954e+01 1 1 -1
2143 1 6.2501147306158273e+00 6.0818582531546372e+00 2.1170072220763288e+01 0 1 0
2328 1 6.7437702926062144e+00 5.4524399024041488e+00 1.8122338598578153e+01 0 0 0
3174 1 7.9180791483846908e+00 8.3133642230952418e+00 1.7121845921811698e+01 0 0 -1
1008 1 9.6122306948416050e+00 6.5528460854583619e+00 1.8995347964931341e+01 0 0 0
989 1 1.0150762797034917e+01 2.9161187462811999e+00 1.9467912690835981e+01 0 0 0
2307 1 6.2518454919795108e+00 1.0785419852220752e+00 1.8601938040866443e+01 0 0 0
2188 1 1.0137890159563739e+01 1.1937650528762569e+01 1.8253121331344566e+01 0 1 0
4267 1 1.0656283794000206e+01 4.3981048973680376e-01 1.8204013264634064e+01 0 1 0
875 1 6.3457278525393424e+00 1.0134168947413563e+01 1.8967092593616876e+01 0 0 0
4399 1 7.9775365211751224e+00 3.1702133035431284e+00 1.8061585582115960e+01 1 0 0
3442 1 1.8915767871222922e+00 1.1729046870808068e+01 1.7674366190063679e+01 1 0 -1
1013 1 1.6546551256359439e+00 1.8730652821052711e+00 2.0454756459249722e+01 1 1 -1
850 1 6.3217707909878396e+00 1.1542741026486065e+00 2.1739515756873089e+01 1 1 0
906 1 4.1116239585093011e+00 2.2546994633553141e+00 1.7807451152954414e+01 0 1 0
2174 1 9.4083073048568622e+00 3.7106792228919101e+00 2.4056553116126139e+01 0 0 0
2138 1 1.9562680638204368e+00 9.7540887481831664e+00 1.9373684522223265e+01 1 1 0
3202 1 1.2207333937093242e+01 8.5653746837821849e+00 2.3447917755304154e+01 0 0 -1
3200 1 1.2845263839773959e+00 4.9148298932443923e+00 2.2470375357850529e+01 0 -1 0
1112 1 1.9818444868086675e+00 1.8056292165290464e+00 2.3245985257173068e+01 0 0 0
3262 1 5.2423446855237499e+00 3.7120243676792080e+00 2.2338405936235112e+01 1 0 0
2088 1 1.5486732595323152e+00 1.1715143394438220e+01 2.1575854677882731e+01 0 -1 0
2420 1 1.0397123041935789e+01 7.0921419782912007e+00 2.1745301099773933e+01 -1 0 0
4339 1 8.0899422843988464e+00 6.0480627102831939e+00 2.3225231362333780e+01 0 -1 0
4550 1 3.0322894438587742e+00 1.0640643223537278e+01 2.3823657183260948e+01 0 0 0
901 1 1.0342427705319825e+01 9.5750623498240337e+00 2.0611231756937521e+01 0 1 0
2134 1 4.5381560682965771e+00 8.2892217918318494e+00 2.3502818286015149e+01 0 1 0
4468 1 7.0971609864230825e+00 8.7177180554452516e+00 2.2922439263187691e+01 0 0 0
2049 1 1.0673174942600726e+01 9.2597995277749217e+00 1.7747231133050910e+01 0 0 0
1241 1 7.7936135106747626e+00 1.0671778905338426e+01 2.1196331741516104e+01 1 1 0
78 1 1.1648297827367285e+01 5.1888897692485196e+00 3.1998468275766442e+01 0 0 0
32 1 6.5649010522114501e+00 5.7093106336785020e+00 2.5694925673145022e+01 0 0 0
2267 1 3.1191593128664410e+00 5.3051517600276359e+00 2.9448569199271041e+01 0 1 0
4257 1 3.1853025524791212e+00 1.0905482963856448e+00 2.7601232092438394e+01 1 1 0
2256 1 8.9303626155530544e+00 2.7549518599371186e+00 2.7843259020221829e+01 0 -1 0
983 1 4.5723108979034830e+00 1.6630302961591594e+00 2.5264293225251841e+01 0 0 0
1007 1 3.6789799324970240e+00 7.1263894117942037e+00 2.6131265600247090e+01 1 1 -1
2346 1 9.7164796057241247e+00 9.6402892896161383e+00 3.1821107129388423e+01 1 0 0
3555 1 5.8587046927806297e+00 7.9353607541509037e+00 2.7712561849121855e+01 1 0 0
3551 1 1.0087898686269945e+01 7.2990816478399534e+00 2.5477491551762157e+01 1 1 0
3418 1 7.1905016667467780e+00 2.7756380459287482e+00 2.5499320518925899e+01 -1 0 0
2168 1 1.0660111293428962e+01 5.0627988403420554e+00 2.7018329780592119e+01 0 1 0
1252 1 4.7033232130669489e-01 1.1752160925233067e+01 2.7367055546727720e+01 0 0 0
2031 1 1.0067654161861519e+01 8.2665589570218501e+00 2.9354949521529008e+01 0 1 0
3229 1 7.6310636613067411e+00 9.3649018304902274e+00 2.5578698271697306e+01 -1 0 0
2268 1 4.5524671618113706e+00 1.5855193984500466e+00 3.2450059518899515e+01 1 1 0
4374 1 1.7561277843078926e+00 9.2833174706271144e+00 2.6052190257520458e+01 2 1 -1
4366 1 1.1307170797163739e+01 9.2621510614307798e+00 2.6979974767448773e+01 1 1 0
123 1 6.8347012940410030e+00 9.0390696008099223e+00 3.2167720950129542e+01 0 0 0
3215 1 2.7743057462516574e-01 2.5804853302578805e+00 3.1597131293167990e+01 0 0 0
4356 1 1.8234413858962060e+00 3.4730786592268208e+00 2.7803650035775064e+01 0 0 0
3577 1 5.1803914437184417e+00 8.4218433540063220e-01 2.9462342407578099e+01 0 0 1
4278 1 2.6314054969383753e+00 3.6085470692308976e+00 3.2253464137732536e+01 1 0 0
3124 1 7.4309618712992052e+00 2.4156213217811775e+00 3.2331619269525973e+01 0 -1 0
4235 1 6.9517045258511461e+00 1.1850234330005831e+01 2.5886228060809735e+01 0 0 0
4254 1 6.7936996953210755e+00 2.9670314493784131e+00 2.9709369113068561e+01 0 0 0
4234 1 1.1036530106741393e+00 5.1096410224962749e+00 2.5561606883793971e+01 1 0 -1
2175 1 1.8821830235658235e+00 7.7537826747610845e+00 2.9015862764408823e+01 0 0 0
973 1 3.3100120348803799e+00 6.2651424293543636e+00 3.2256461740735055e+01 1 1 0
1140 1 2.0402244074759381e+00 8.6675810394413713e+00 3.1785609583223618e+01 0 0 0
1035 1 6.3107673160600068e+00 6.4968173564982026e+00 3.1867873426363829e+01 1 1 0
4348 1 5.7474341592709299e+00 5.5381298381463155e+00 2.9517920656083717e+01 1 0 0
2057 1 9.0091649325354339e+00 5.6628867437525896e+00 2.9564944810757311e+01 -1 0 -1
2215 1 8.6675348570937096e+00 5.0072703236250602e+00 3.2332289725951235e+01 0 1 0
1293 1 4.0944667588118886e+00 9.7141178379603286e+00 2.9169022192255063e+01 0 1 0
913 1 4.5511484424276247e+00 1.0374074981433314e+01 3.1828201208672290e+01 0 0 0
897 1 7.6096045620558943e+00 9.4819650104720949e+00 2.9216703780854239e+01 1 0 0
4446 1 1.0521270287444862e+01 1.2092729481029014e+01 2.6750532749186505e+01 0 0 0
3508 1 1.2115948985650418e+01 1.1174213440750493e+00 2.5614809398313639e+01 1 0 0
1136 1 1.1718092709693744e+01 5.6305769272048012e-01 3.1784436715514147e+01 1 0 0
4527 1 1.2254057094420510e+01 5.5098123791453952e+00 2.9143464998472112e+01 1 0 -1
4359 1 4.2122393452536020e+00 1.2139833530747195e+01 2.5977408189231411e+01 -1 0 0
3346 1 8.6625051488022358e+00 1.2145607581377933e+01 3.1322571711708882e+01 1 1 0
1147 1 9.7205366412961389e+00 1.7937346885600494e-01 2.7465575938152689e+01 0 0 -1
188 2 0.0000000000000000e+00 1.2787731112280996e+01 3.2904970319127931e+00 0 0 0
190 2 1.2305000000000001e+00 1.3498160618518829e+01 3.2904970319127931e+00 0 0 0
225 2 2.4610000000000003e+00 1.2787731112280996e+01 3.2904970319127931e+00 0 0 0
227 2 3.6915000000000004e+00 1.3498160618518829e+01 3.2904970319127931e+00 0 0 0
186 2 0.0000000000000000e+00 1.5629449137232333e+01 3.2904970319127931e+00 0 0 0
221 2 1.2305000000000001e+00 1.4919019630994494e+01 3.2904970319127931e+00 0 0 0
223 2 2.4610000000000003e+00 1.5629449137232328e+01 3.2904970319127931e+00 0 0 0
266 2 3.6915000000000004e+00 1.4919019630994494e+01 3.2904970319127931e+00 0 0 0
270 2 4.9220000000000006e+00 1.2787731112280996e+01 3.2904970319127931e+00 0 0 0
272 2 6.1524999999999990e+00 1.3498160618518829e+01 3.2904970319127931e+00 0 0 0
317 2 7.3829999999999991e+00 1.2787731112280996e+01 3.2904970319127931e+00 0 0 0
268 2 4.9220000000000006e+00 1.5629449137232333e+01 3.2904970319127931e+00 0 0 0
313 2 6.1524999999999990e+00 1.4919019630994494e+01 3.2904970319127931e+00 0 0 0
315 2 7.3829999999999991e+00 1.5629449137232333e+01 3.2904970319127931e+00 0 0 0
319 2 8.6135000000000002e+00 1.3498160618518835e+01 3.2904970319127931e+00 0 0 0
364 2 9.8440000000000012e+00 1.2787731112280996e+01 3.2904970319127931e+00 0 0 0
366 2 1.1074500000000002e+01 1.3498160618518829e+01 3.2904970319127931e+00 0 0 0
360 2 8.6135000000000002e+00 1.4919019630994494e+01 3.2904970319127931e+00 0 0 0
362 2 9.8440000000000012e+00 1.5629449137232328e+01 3.2904970319127931e+00 0 0 0
402 2 1.1074500000000002e+01 1.4919019630994494e+01 3.2904970319127931e+00 0 0 0
217 2 0.0000000000000000e+00 1.7050308149707998e+01 3.2904970319127931e+00 0 0 0
262 2 2.4610000000000003e+00 1.7050308149707998e+01 3.2904970319127931e+00 0 0 0
215 2 0.0000000000000000e+00 1.9892026174659328e+01 3.2904970319127931e+00 0 0 0
219 2 1.2305000000000001e+00 1.7760737655945832e+01 3.2904970319127931e+00 0 0 0
258 2 1.2305000000000001e+00 1.9181596668421495e+01 3.2904970319127931e+00 0 0 0
260 2 2.4610000000000003e+00 1.9892026174659328e+01 3.2904970319127931e+00 0 0 0
264 2 3.6914999999999996e+00 1.7760737655945832e+01 3.2904970319127931e+00 0 0 0
305 2 3.6914999999999996e+00 1.9181596668421495e+01 3.2904970319127931e+00 0 0 0
309 2 4.9220000000000006e+00 1.7050308149707998e+01 3.2904970319127931e+00 0 0 0
356 2 7.3830000000000009e+00 1.7050308149707998e+01 3.2904970319127931e+00 0 0 0
307 2 4.9220000000000006e+00 1.9892026174659328e+01 3.2904970319127931e+00 0 0 0
311 2 6.1524999999999999e+00 1.7760737655945832e+01 3.2904970319127931e+00 0 0 0
352 2 6.1524999999999999e+00 1.9181596668421495e+01 3.2904970319127931e+00 0 0 0
354 2 7.3829999999999991e+00 1.9892026174659328e+01 3.2904970319127931e+00 0 0 0
398 2 9.8440000000000012e+00 1.7050308149707998e+01 3.2904970319127931e+00 0 0 0
432 2 1.2304999999999998e+01 1.7050308149707998e+01 3.2904970319127931e+00 0 0 0
358 2 8.6134999999999984e+00 1.7760737655945832e+01 3.2904970319127931e+00 0 0 0
394 2 8.6135000000000002e+00 1.9181596668421495e+01 3.2904970319127931e+00 0 0 0
396 2 9.8440000000000012e+00 1.9892026174659335e+01 3.2904970319127931e+00 0 0 0
400 2 1.1074500000000002e+01 1.7760737655945835e+01 3.2904970319127931e+00 0 0 0
428 2 1.1074500000000002e+01 1.9181596668421495e+01 3.2904970319127931e+00 0 0 0
252 2 0.0000000000000000e+00 2.4154603212086325e+01 3.2904970319127931e+00 0 0 0
254 2 0.0000000000000000e+00 2.1312885187134999e+01 3.2904970319127931e+00 0 0 0
256 2 1.2304999999999993e+00 2.2023314693372832e+01 3.2904970319127931e+00 0 0 0
297 2 1.2304999999999993e+00 2.3444173705848499e+01 3.2904970319127931e+00 0 0 0
299 2 2.4610000000000003e+00 2.4154603212086325e+01 3.2904970319127931e+00 0 0 0
301 2 2.4610000000000003e+00 2.1312885187134995e+01 3.2904970319127931e+00 0 0 0
303 2 3.6914999999999996e+00 2.2023314693372832e+01 3.2904970319127931e+00 0 0 0
344 2 3.6915000000000004e+00 2.3444173705848499e+01 3.2904970319127931e+00 0 0 0
346 2 4.9220000000000006e+00 2.4154603212086325e+01 3.2904970319127931e+00 0 0 0
348 2 4.9220000000000006e+00 2.1312885187134995e+01 3.2904970319127931e+00 0 0 0
350 2 6.1524999999999990e+00 2.2023314693372832e+01 3.2904970319127931e+00 0 0 0
386 2 6.1524999999999999e+00 2.3444173705848499e+01 3.2904970319127931e+00 0 0 0
388 2 7.3830000000000009e+00 2.4154603212086336e+01 3.2904970319127931e+00 0 0 0
390 2 7.3829999999999991e+00 2.1312885187134999e+01 3.2904970319127931e+00 0 0 0
392 2 8.6135000000000002e+00 2.2023314693372832e+01 3.2904970319127931e+00 0 0 0
420 2 8.6134999999999984e+00 2.3444173705848499e+01 3.2904970319127931e+00 0 0 0
422 2 9.8440000000000012e+00 2.4154603212086336e+01 3.2904970319127931e+00 0 0 0
424 2 9.8440000000000012e+00 2.1312885187134999e+01 3.2904970319127931e+00 0 0 0
426 2 1.1074500000000002e+01 2.2023314693372832e+01 3.2904970319127931e+00 0 0 0
446 2 1.1074500000000002e+01 2.3444173705848499e+01 3.2904970319127931e+00 0 0 0
189 2 0.0000000000000000e+00 1.2787731112280996e+01 6.2906312733937568e+00 0 0 0
226 2 2.4610000000000003e+00 1.2787731112280996e+01 6.2906312733937568e+00 0 0 0
187 2 0.0000000000000000e+00 1.4208590124756663e+01 6.2906312733937568e+00 0 0 0
222 2 1.2305000000000001e+00 1.4919019630994494e+01 6.2906312733937568e+00 0 0 0
224 2 2.4610000000000003e+00 1.4208590124756663e+01 6.2906312733937568e+00 0 0 0