LAMMPS data file via write_data, version 16 Mar 2018, timestep = 100000

4065 atoms
2 atom types

0.0000000000000000e+00 4.9219999999999999e+01 xlo xhi
0.0000000000000000e+00 4.9019635930410494e+01 ylo yhi
1.9861324113356087e+00 2.5854699834949368e+01 zlo zhi

Masses

1 18.015
2 12.01

Atoms # atomic

83 2 0.0000000000000000e+00 2.8417180249513345e+00 3.4238619739906264e+00 0 0 0
85 2 0.0000000000000000e+00 0.0000000000000000e+00 3.4238619739906264e+00 0 0 0
87 2 1.2305000000000001e+00 7.1042950623783474e-01 3.4238619739906264e+00 0 0 0
94 2 1.2305000000000001e+00 2.1312885187134998e+00 3.4238619739906264e+00 0 0 0
96 2 2.4610000000000003e+00 2.8417180249513345e+00 3.4238619739906264e+00 0 0 0
98 2 2.4610000000000003e+00 0.0000000000000000e+00 3.4238619739906264e+00 0 0 0
100 2 3.6915000000000004e+00 7.1042950623783474e-01 3.4238619739906264e+00 0 0 0
115 2 3.6914999999999996e+00 2.1312885187134998e+00 3.4238619739906264e+00 0 0 0
117 2 4.9220000000000006e+00 2.8417180249513332e+00 3.4238619739906264e+00 0 0 0
119 2 4.9220000000000006e+00 0.0000000000000000e+00 3.4238619739906264e+00 0 0 0
121 2 6.1524999999999999e+00 7.1042950623783407e-01 3.4238619739906264e+00 0 0 0
144 2 6.1524999999999999e+00 2.1312885187134989e+00 3.4238619739906264e+00 0 0 0
146 2 7.3829999999999991e+00 2.8417180249513345e+00 3.4238619739906264e+00 0 0 0
148 2 7.3829999999999991e+00 0.0000000000000000e+00 3.4238619739906264e+00 0 0 0
90 2 0.0000000000000000e+00 4.2625770374269996e+00 3.4238619739906264e+00 0 0 0
92 2 1.2305000000000001e+00 4.9730065436648339e+00 3.4238619739906264e+00 0 0 0
107 2 1.2305000000000001e+00 6.3938655561404980e+00 3.4238619739906264e+00 0 0 0
111 2 2.4610000000000003e+00 4.2625770374269996e+00 3.4238619739906264e+00 0 0 0
113 2 3.6914999999999996e+00 4.9730065436648339e+00 3.4238619739906264e+00 0 0 0
136 2 3.6914999999999996e+00 6.3938655561404980e+00 3.4238619739906264e+00 0 0 0
88 2 0.0000000000000000e+00 7.1042950623783341e+00 3.4238619739906264e+00 0 0 0
109 2 2.4610000000000003e+00 7.1042950623783341e+00 3.4238619739906264e+00 0 0 0
140 2 4.9220000000000006e+00 4.2625770374269978e+00 3.4238619739906264e+00 0 0 0
142 2 6.1524999999999999e+00 4.9730065436648339e+00 3.4238619739906264e+00 0 0 0
173 2 6.1524999999999999e+00 6.3938655561404980e+00 3.4238619739906264e+00 0 0 0
177 2 7.3829999999999991e+00 4.2625770374269996e+00 3.4238619739906264e+00 0 0 0
138 2 4.9220000000000006e+00 7.1042950623783341e+00 3.4238619739906264e+00 0 0 0
175 2 7.3830000000000009e+00 7.1042950623783341e+00 3.4238619739906264e+00 0 0 0
103 2 0.0000000000000000e+00 8.5251540748539991e+00 3.4238619739906264e+00 0 0 0
105 2 1.2305000000000001e+00 9.2355835810918343e+00 3.4238619739906264e+00 0 0 0
132 2 2.4610000000000003e+00 8.5251540748539991e+00 3.4238619739906264e+00 0 0 0
134 2 3.6915000000000004e+00 9.2355835810918343e+00 3.4238619739906264e+00 0 0 0
101 2 0.0000000000000000e+00 1.1366872099805333e+01 3.4238619739906264e+00 0 0 0
128 2 1.2305000000000001e+00 1.0656442593567498e+01 3.4238619739906264e+00 0 0 0
130 2 2.4610000000000003e+00 1.1366872099805333e+01 3.4238619739906264e+00 0 0 0
165 2 3.6914999999999996e+00 1.0656442593567499e+01 3.4238619739906264e+00 0 0 0
169 2 4.9220000000000006e+00 8.5251540748539991e+00 3.4238619739906264e+00 0 0 0
171 2 6.1524999999999999e+00 9.2355835810918343e+00 3.4238619739906264e+00 0 0 0
214 2 7.3830000000000009e+00 8.5251540748539991e+00 3.4238619739906264e+00 0 0 0
167 2 4.9220000000000006e+00 1.1366872099805333e+01 3.4238619739906264e+00 0 0 0
210 2 6.1524999999999999e+00 1.0656442593567499e+01 3.4238619739906264e+00 0 0 0
212 2 7.3829999999999991e+00 1.1366872099805333e+01 3.4238619739906264e+00 0 0 0
84 2 0.0000000000000000e+00 1.4208590124756650e+00 6.2993210993005766e+00 0 0 0
86 2 0.0000000000000000e+00 0.0000000000000000e+00 6.2993210993005766e+00 0 0 0
95 2 1.2305000000000001e+00 2.1312885187134998e+00 6.2993210993005766e+00 0 0 0
97 2 2.4610000000000003e+00 1.4208590124756650e+00 6.2993210993005766e+00 0 0 0
99 2 2.4610000000000003e+00 0.0000000000000000e+00 6.2993210993005766e+00 0 0 0
412 2 0.0000000000000000e+00 2.8417180249513345e+00 9.1747802246099077e+00 0 0 0
413 2 0.0000000000000000e+00 0.0000000000000000e+00 9.1747802246099077e+00 0 0 0
414 2 1.2305000000000001e+00 7.1042950623783474e-01 9.1747802246099077e+00 0 0 0
418 2 1.2305000000000001e+00 2.1312885187134998e+00 9.1747802246099077e+00 0 0 0
419 2 2.4610000000000003e+00 2.8417180249513345e+00 9.1747802246099077e+00 0 0 0
420 2 2.4610000000000003e+00 0.0000000000000000e+00 9.1747802246099077e+00 0 0 0
116 2 3.6914999999999996e+00 2.1312885187134998e+00 6.2993210993005766e+00 0 0 0
421 2 3.6915000000000004e+00 7.1042950623783474e-01 9.1747802246099077e+00 0 0 0
429 2 3.6914999999999996e+00 2.1312885187134998e+00 9.1747802246099077e+00 0 0 0
93 2 1.2305000000000001e+00 3.5521475311891644e+00 6.2993210993005766e+00 0 0 0
114 2 3.6914999999999996e+00 3.5521475311891644e+00 6.2993210993005766e+00 0 0 0
118 2 4.9220000000000006e+00 1.4208590124756650e+00 6.2993210993005766e+00 0 0 0
120 2 4.9220000000000006e+00 0.0000000000000000e+00 6.2993210993005766e+00 0 0 0
145 2 6.1524999999999999e+00 2.1312885187134989e+00 6.2993210993005766e+00 0 0 0
430 2 4.9220000000000006e+00 2.8417180249513332e+00 9.1747802246099077e+00 0 0 0
431 2 4.9220000000000006e+00 0.0000000000000000e+00 9.1747802246099077e+00 0 0 0
432 2 6.1524999999999999e+00 7.1042950623783407e-01 9.1747802246099077e+00 0 0 0
444 2 6.1524999999999999e+00 2.1312885187134989e+00 9.1747802246099077e+00 0 0 0
147 2 7.3829999999999991e+00 1.4208590124756659e+00 6.2993210993005766e+00 0 0 0
149 2 7.3829999999999991e+00 0.0000000000000000e+00 6.2993210993005766e+00 0 0 0
445 2 7.3829999999999991e+00 2.8417180249513345e+00 9.1747802246099077e+00 0 0 0
446 2 7.3829999999999991e+00 0.0000000000000000e+00 9.1747802246099077e+00 0 0 0
143 2 6.1524999999999999e+00 3.5521475311891644e+00 6.2993210993005766e+00 0 0 0
89 2 0.0000000000000000e+00 5.6834360499026637e+00 6.2993210993005766e+00 0 0 0
91 2 0.0000000000000000e+00 4.2625770374269996e+00 6.2993210993005766e+00 0 0 0
108 2 1.2305000000000001e+00 6.3938655561404980e+00 6.2993210993005766e+00 0 0 0
110 2 2.4610000000000003e+00 5.6834360499026637e+00 6.2993210993005766e+00 0 0 0
112 2 2.4610000000000003e+00 4.2625770374269996e+00 6.2993210993005766e+00 0 0 0
416 2 0.0000000000000000e+00 4.2625770374269996e+00 9.1747802246099077e+00 0 0 0
417 2 1.2305000000000001e+00 4.9730065436648339e+00 9.1747802246099077e+00 0 0 0
425 2 1.2305000000000001e+00 6.3938655561404980e+00 9.1747802246099077e+00 0 0 0
427 2 2.4610000000000003e+00 4.2625770374269996e+00 9.1747802246099077e+00 0 0 0
137 2 3.6914999999999996e+00 6.3938655561404980e+00 6.2993210993005766e+00 0 0 0
428 2 3.6914999999999996e+00 4.9730065436648339e+00 9.1747802246099077e+00 0 0 0
440 2 3.6914999999999996e+00 6.3938655561404980e+00 9.1747802246099077e+00 0 0 0
106 2 1.2305000000000001e+00 7.8147245686161639e+00 6.2993210993005766e+00 0 0 0
415 2 0.0000000000000000e+00 7.1042950623783341e+00 9.1747802246099077e+00 0 0 0
426 2 2.4610000000000003e+00 7.1042950623783341e+00 9.1747802246099077e+00 0 0 0
135 2 3.6914999999999996e+00 7.8147245686161639e+00 6.2993210993005766e+00 0 0 0
139 2 4.9220000000000006e+00 5.6834360499026637e+00 6.2993210993005766e+00 0 0 0
141 2 4.9220000000000006e+00 4.2625770374269978e+00 6.2993210993005766e+00 0 0 0
174 2 6.1524999999999999e+00 6.3938655561404980e+00 6.2993210993005766e+00 0 0 0
442 2 4.9220000000000006e+00 4.2625770374269978e+00 9.1747802246099077e+00 0 0 0
443 2 6.1524999999999999e+00 4.9730065436648339e+00 9.1747802246099077e+00 0 0 0
459 2 6.1524999999999999e+00 6.3938655561404980e+00 9.1747802246099077e+00 0 0 0
176 2 7.3829999999999991e+00 5.6834360499026637e+00 6.2993210993005766e+00 0 0 0
178 2 7.3829999999999991e+00 4.2625770374269996e+00 6.2993210993005766e+00 0 0 0
461 2 7.3829999999999991e+00 4.2625770374269996e+00 9.1747802246099077e+00 0 0 0
172 2 6.1524999999999999e+00 7.8147245686161639e+00 6.2993210993005766e+00 0 0 0
441 2 4.9220000000000006e+00 7.1042950623783341e+00 9.1747802246099077e+00 0 0 0
460 2 7.3830000000000009e+00 7.1042950623783341e+00 9.1747802246099077e+00 0 0 0
102 2 0.0000000000000000e+00 9.9460130873296642e+00 6.2993210993005766e+00 0 0 0
104 2 0.0000000000000000e+00 8.5251540748539991e+00 6.2993210993005766e+00 0 0 0
131 2 2.4610000000000003e+00 9.9460130873296642e+00 6.2993210993005766e+00 0 0 0
133 2 2.4610000000000003e+00 8.5251540748539991e+00 6.2993210993005766e+00 0 0 0
423 2 0.0000000000000000e+00 8.5251540748539991e+00 9.1747802246099077e+00 0 0 0
424 2 1.2305000000000001e+00 9.2355835810918343e+00 9.1747802246099077e+00 0 0 0
438 2 2.4610000000000003e+00 8.5251540748539991e+00 9.1747802246099077e+00 0 0 0
439 2 3.6915000000000004e+00 9.2355835810918343e+00 9.1747802246099077e+00 0 0 0
127 2 1.2305000000000001e+00 1.2077301606043163e+01 6.2993210993005766e+00 0 0 0
129 2 1.2305000000000001e+00 1.0656442593567498e+01 6.2993210993005766e+00 0 0 0
422 2 0.0000000000000000e+00 1.1366872099805333e+01 9.1747802246099077e+00 0 0 0
436 2 1.2305000000000001e+00 1.0656442593567498e+01 9.1747802246099077e+00 0 0 0
437 2 2.4610000000000003e+00 1.1366872099805333e+01 9.1747802246099077e+00 0 0 0
164 2 3.6914999999999996e+00 1.2077301606043163e+01 6.2993210993005766e+00 0 0 0
166 2 3.6914999999999996e+00 1.0656442593567499e+01 6.2993210993005766e+00 0 0 0
455 2 3.6914999999999996e+00 1.0656442593567499e+01 9.1747802246099077e+00 0 0 0
168 2 4.9220000000000006e+00 9.9460130873296642e+00 6.2993210993005766e+00 0 0 0
170 2 4.9220000000000006e+00 8.5251540748539991e+00 6.2993210993005766e+00 0 0 0
457 2 4.9220000000000006e+00 8.5251540748539991e+00 9.1747802246099077e+00 0 0 0
458 2 6.1524999999999999e+00 9.2355835810918343e+00 9.1747802246099077e+00 0 0 0
213 2 7.3830000000000009e+00 9.9460130873296642e+00 6.2993210993005766e+00 0 0 0
215 2 7.3830000000000009e+00 8.5251540748539991e+00 6.2993210993005766e+00 0 0 0
480 2 7.3830000000000009e+00 8.5251540748539991e+00 9.1747802246099077e+00 0 0 0
209 2 6.1524999999999999e+00 1.2077301606043163e+01 6.2993210993005766e+00 0 0 0
211 2 6.1524999999999999e+00 1.0656442593567499e+01 6.2993210993005766e+00 0 0 0
456 2 4.9220000000000006e+00 1.1366872099805333e+01 9.1747802246099077e+00 0 0 0
478 2 6.1524999999999999e+00 1.0656442593567499e+01 9.1747802246099077e+00 0 0 0
479 2 7.3829999999999991e+00 1.1366872099805333e+01 9.1747802246099077e+00 0 0 0
3944 1 1.8723187081890851e+00 4.3492917384807468e+00 1.1752930473658864e+01 1 0 0
3882 1 4.0948476258627657e+00 6.5735981317715586e+00 1.1775692213854951e+01 0 0 1
2029 1 3.4177905936128026e+00 9.0320807898889353e+00 1.2296419797412460e+01 0 2 0
3829 1 6.6267986506918648e+00 2.3955567667355124e+00 1.1604426231240849e+01 0 1 0
848 1 7.1656204195559301e+00 6.7860705908462080e+00 1.1940887718119155e+01 1 1 0
993 1 1.5129159541486676e+00 1.4429806966762617e+00 1.2248730150947958e+01 1 0 0
3890 1 4.7775175894872088e+00 3.9617135864476252e+00 1.3130889000949557e+01 1 1 0
2824 1 7.3217912696649057e+00 9.0410708949947711e+00 1.3862858001150032e+01 0 0 -1
1082 1 5.5580424576343623e-01 9.7436979678188020e+00 1.1796619565738867e+01 1 1 0
900 1 5.8834425858487958e+00 1.0304188132215495e+01 1.1710936597963130e+01 0 1 1
3906 1 5.9048301680789859e+00 1.1953325436095952e-02 1.2384613893879417e+01 1 0 -1
950 1 5.5921702744088382e+00 3.5168212592322203e+00 1.7794246845687102e+01 1 0 0
3143 1 2.8705959215129866e+00 5.4956959988952061e+00 1.4805136473808178e+01 1 1 1
3013 1 1.0746933230837923e+00 2.7753024710834202e+00 1.7010467399814210e+01 0 0 -1
947 1 6.2518974580211806e+00 1.0638484881446400e+01 2.2832915991427420e+01 1 0 -1
840 1 2.8383080514632897e+00 1.6186142265948893e+00 1.4801045600136154e+01 1 1 1
2853 1 1.0938263192269111e+00 7.7075792666069880e+00 1.4203251517447562e+01 0 0 1
922 1 4.2325646092632647e+00 6.5356399503380747e+00 1.6873253470696501e+01 0 0 -1
2072 1 7.9991143603898260e+00 7.7235638065396683e+00 1.8489325821192466e+01 0 0 0
1076 1 7.8426684182490360e+00 1.1969649548168103e+01 2.4737365602510181e+01 0 0 0
831 1 6.5971561397994218e+00 7.5660767325055884e+00 1.6308942536001062e+01 0 0 0
2061 1 1.7828042649084760e-01 6.1356270148244780e+00 2.0143642052624614e+01 1 1 1
2022 1 2.8202698372119226e+00 1.1092213866345816e+01 1.9197936847958921e+01 1 1 0
2872 1 8.0371408778929467e+00 3.5909596950366507e+00 2.1492765116232526e+01 1 0 0
880 1 6.2619382742867318e+00 1.0773616462287933e+01 1.6147728345081717e+01 0 0 0
2822 1 3.0139092317123870e+00 7.6984051645834253e+00 2.1962014723742186e+01 0 0 0
789 1 7.5221599099509255e+00 5.2763541857220551e+00 1.4329073000846790e+01 0 1 0
1101 1 5.3428006237290280e+00 9.2525152045073771e+00 2.5157323456746710e+01 0 1 -1
1871 1 2.9179703592936597e+00 3.0479984456441418e+00 1.8971151248645832e+01 0 1 0
1065 1 1.6122306451629485e+00 1.9673862433515128e+00 2.1305522237097769e+01 2 1 0
3121 1 7.3034517296115355e+00 3.7276382533224472e-01 2.1769371417855787e+01 0 0 0
3073 1 4.5432465713231425e+00 2.0427900902456564e+00 2.1795782116634179e+01 1 1 -1
1966 1 2.9780342076951238e+00 5.8198315835746532e+00 1.9338871052794332e+01 0 1 -2
1798 1 5.9889282291088453e+00 1.0455356054013429e+00 1.8821297346029311e+01 1 0 0
783 1 7.2236450616506742e+00 7.1649805151548609e+00 2.4853123251418715e+01 0 1 -1
1056 1 2.7070831688803745e+00 8.8459694891562819e+00 1.7229009212560051e+01 2 1 0
2113 1 5.7364703799641781e+00 1.0916114842275201e+01 1.8981772291182438e+01 1 0 1
2829 1 5.3515041039018145e+00 5.1984705363509374e+00 2.1432533435672880e+01 0 0 1
1945 1 7.0443884073018754e+00 2.0860902758307109e-01 2.4408506808093804e+01 0 0 0
853 1 3.9599023954964725e+00 1.0088128454445638e+01 1.4995787554545929e+01 0 2 0
873 1 7.5401826662318259e+00 7.6316547896677642e+00 2.2207718697920200e+01 2 1 -1
2082 1 3.9368898223208757e+00 1.0259918923932082e+01 2.1630118180040043e+01 0 2 1
1954 1 3.7258649177930172e+00 2.7053350840739214e+00 2.4622828188323304e+01 1 1 0
3114 1 1.0339617722099357e+00 2.6509386705792499e+00 2.3906230323518400e+01 1 1 0
2861 1 2.5228709865647825e-01 8.7976414113089376e+00 2.1551271240663425e+01 1 0 0
2038 1 5.9056403266761590e+00 2.4787779118989910e+00 1.5231585728213789e+01 0 1 -1
3896 1 3.0289138964897693e+00 1.1241450636670363e+01 2.4404298321706442e+01 0 1 0
1867 1 5.4098214822991553e-01 7.4835672221458207e+00 2.4892875051473872e+01 1 0 0
3810 1 5.7130924646250145e+00 8.0111943945940070e+00 2.0009480824776745e+01 0 1 0
2032 1 5.3110234783469501e+00 5.1652795796362838e+00 2.4373142566698448e+01 0 1 0
3947 1 3.3679679477398157e+00 7.2804657230892689e+00 2.4596512979873964e+01 1 0 -1
802 1 7.8564592984527444e+00 3.2757285039688067e+00 2.4589594234029363e+01 1 0 1
1904 1 8.0031880301026597e+00 1.1198440317261689e+01 2.0621259553497310e+01 0 1 0
898 1 8.1555319074778438e+00 4.6223071177220483e+00 1.8583271942816033e+01 0 1 0
124 2 0.0000000000000000e+00 1.2787731112280996e+01 3.4238619739906264e+00 0 0 0
126 2 1.2305000000000001e+00 1.3498160618518829e+01 3.4238619739906264e+00 0 0 0
161 2 2.4610000000000003e+00 1.2787731112280996e+01 3.4238619739906264e+00 0 0 0
163 2 3.6915000000000004e+00 1.3498160618518829e+01 3.4238619739906264e+00 0 0 0
122 2 0.0000000000000000e+00 1.5629449137232333e+01 3.4238619739906264e+00 0 0 0
157 2 1.2305000000000001e+00 1.4919019630994494e+01 3.4238619739906264e+00 0 0 0
159 2 2.4610000000000003e+00 1.5629449137232328e+01 3.4238619739906264e+00 0 0 0
202 2 3.6915000000000004e+00 1.4919019630994494e+01 3.4238619739906264e+00 0 0 0
206 2 4.9220000000000006e+00 1.2787731112280996e+01 3.4238619739906264e+00 0 0 0
208 2 6.1524999999999990e+00 1.3498160618518829e+01 3.4238619739906264e+00 0 0 0
253 2 7.3829999999999991e+00 1.2787731112280996e+01 3.4238619739906264e+00 0 0 0
204 2 4.9220000000000006e+00 1.5629449137232333e+01 3.4238619739906264e+00 0 0 0
249 2 6.1524999999999990e+00 1.4919019630994494e+01 3.4238619739906264e+00 0 0 0
251 2 7.3829999999999991e+00 1.5629449137232333e+01 3.4238619739906264e+00 0 0 0
153 2 0.0000000000000000e+00 1.7050308149707998e+01 3.4238619739906264e+00 0 0 0
198 2 2.4610000000000003e+00 1.7050308149707998e+01 3.4238619739906264e+00 0 0 0
151 2 0.0000000000000000e+00 1.9892026174659328e+01 3.4238619739906264e+00 0 0 0
155 2 1.2305000000000001e+00 1.7760737655945832e+01 3.4238619739906264e+00 0 0 0
194 2 1.2305000000000001e+00 1.9181596668421495e+01 3.4238619739906264e+00 0 0 0
196 2 2.4610000000000003e+00 1.9892026174659328e+01 3.4238619739906264e+00 0 0 0
200 2 3.6914999999999996e+00 1.7760737655945832e+01 3.4238619739906264e+00 0 0 0
241 2 3.6914999999999996e+00 1.9181596668421495e+01 3.4238619739906264e+00 0 0 0
245 2 4.9220000000000006e+00 1.7050308149707998e+01 3.4238619739906264e+00 0 0 0
292 2 7.3830000000000009e+00 1.7050308149707998e+01 3.4238619739906264e+00 0 0 0
243 2 4.9220000000000006e+00 1.9892026174659328e+01 3.4238619739906264e+00 0 0 0
247 2 6.1524999999999999e+00 1.7760737655945832e+01 3.4238619739906264e+00 0 0 0
288 2 6.1524999999999999e+00 1.9181596668421495e+01 3.4238619739906264e+00 0 0 0
290 2 7.3829999999999991e+00 1.9892026174659328e+01 3.4238619739906264e+00 0 0 0
188 2 0.0000000000000000e+00 2.4154603212086325e+01 3.4238619739906264e+00 0 0 0
190 2 0.0000000000000000e+00 2.1312885187134999e+01 3.4238619739906264e+00 0 0 0
192 2 1.2304999999999993e+00 2.2023314693372832e+01 3.4238619739906264e+00 0 0 0
233 2 1.2304999999999993e+00 2.3444173705848499e+01 3.4238619739906264e+00 0 0 0
235 2 2.4610000000000003e+00 2.4154603212086325e+01 3.4238619739906264e+00 0 0 0
237 2 2.4610000000000003e+00 2.1312885187134995e+01 3.4238619739906264e+00 0 0 0
239 2 3.6914999999999996e+00 2.2023314693372832e+01 3.4238619739906264e+00 0 0 0
280 2 3.6915000000000004e+00 2.3444173705848499e+01 3.4238619739906264e+00 0 0 0
282 2 4.9220000000000006e+00 2.4154603212086325e+01 3.4238619739906264e+00 0 0 0
284 2 4.9220000000000006e+00 2.1312885187134995e+01 3.4238619739906264e+00 0 0 0
286 2 6.1524999999999990e+00 2.2023314693372832e+01 3.4238619739906264e+00 0 0 0
322 2 6.1524999999999999e+00 2.3444173705848499e+01 3.4238619739906264e+00 0 0 0
324 2 7.3830000000000009e+00 2.4154603212086336e+01 3.4238619739906264e+00 0 0 0
326 2 7.3829999999999991e+00 2.1312885187134999e+01 3.4238619739906264e+00 0 0 0
125 2 0.0000000000000000e+00 1.2787731112280996e+01 6.2993210993005766e+00 0 0 0
162 2 2.4610000000000003e+00 1.2787731112280996e+01 6.2993210993005766e+00 0 0 0
434 2 0.0000000000000000e+00 1.2787731112280996e+01 9.1747802246099077e+00 0 0 0
435 2 1.2305000000000001e+00 1.3498160618518829e+01 9.1747802246099077e+00 0 0 0
453 2 2.4610000000000003e+00 1.2787731112280996e+01 9.1747802246099077e+00 0 0 0
454 2 3.6915000000000004e+00 1.3498160618518829e+01 9.1747802246099077e+00 0 0 0
123 2 0.0000000000000000e+00 1.4208590124756663e+01 6.2993210993005766e+00 0 0 0
158 2 1.2305000000000001e+00 1.4919019630994494e+01 6.2993210993005766e+00 0 0 0
160 2 2.4610000000000003e+00 1.4208590124756663e+01 6.2993210993005766e+00 0 0 0
433 2 0.0000000000000000e+00 1.5629449137232333e+01 9.1747802246099077e+00 0 0 0
451 2 1.2305000000000001e+00 1.4919019630994494e+01 9.1747802246099077e+00 0 0 0
452 2 2.4610000000000003e+00 1.5629449137232328e+01 9.1747802246099077e+00 0 0 0
203 2 3.6915000000000004e+00 1.4919019630994494e+01 6.2993210993005766e+00 0 0 0
474 2 3.6915000000000004e+00 1.4919019630994494e+01 9.1747802246099077e+00 0 0 0
207 2 4.9220000000000006e+00 1.2787731112280996e+01 6.2993210993005766e+00 0 0 0
476 2 4.9220000000000006e+00 1.2787731112280996e+01 9.1747802246099077e+00 0 0 0
477 2 6.1524999999999990e+00 1.3498160618518829e+01 9.1747802246099077e+00 0 0 0
254 2 7.3829999999999991e+00 1.2787731112280996e+01 6.2993210993005766e+00 0 0 0
500 2 7.3829999999999991e+00 1.2787731112280996e+01 9.1747802246099077e+00 0 0 0
205 2 4.9220000000000006e+00 1.4208590124756663e+01 6.2993210993005766e+00 0 0 0
250 2 6.1524999999999990e+00 1.4919019630994494e+01 6.2993210993005766e+00 0 0 0
475 2 4.9220000000000006e+00 1.5629449137232333e+01 9.1747802246099077e+00 0 0 0
498 2 6.1524999999999990e+00 1.4919019630994494e+01 9.1747802246099077e+00 0 0 0
252 2 7.3830000000000009e+00 1.4208590124756663e+01 6.2993210993005766e+00 0 0 0
499 2 7.3829999999999991e+00 1.5629449137232333e+01 9.1747802246099077e+00 0 0 0
154 2 0.0000000000000000e+00 1.7050308149707998e+01 6.2993210993005766e+00 0 0 0
156 2 1.2305000000000001e+00 1.6339878643470165e+01 6.2993210993005766e+00 0 0 0
199 2 2.4610000000000003e+00 1.7050308149707998e+01 6.2993210993005766e+00 0 0 0
449 2 0.0000000000000000e+00 1.7050308149707998e+01 9.1747802246099077e+00 0 0 0
472 2 2.4610000000000003e+00 1.7050308149707998e+01 9.1747802246099077e+00 0 0 0
201 2 3.6915000000000004e+00 1.6339878643470165e+01 6.2993210993005766e+00 0 0 0
152 2 0.0000000000000000e+00 1.8471167162183658e+01 6.2993210993005766e+00 0 0 0
195 2 1.2305000000000001e+00 1.9181596668421495e+01 6.2993210993005766e+00 0 0 0
197 2 2.4610000000000003e+00 1.8471167162183658e+01 6.2993210993005766e+00 0 0 0
448 2 0.0000000000000000e+00 1.9892026174659328e+01 9.1747802246099077e+00 0 0 0
450 2 1.2305000000000001e+00 1.7760737655945832e+01 9.1747802246099077e+00 0 0 0
470 2 1.2305000000000001e+00 1.9181596668421495e+01 9.1747802246099077e+00 0 0 0
471 2 2.4610000000000003e+00 1.9892026174659328e+01 9.1747802246099077e+00 0 0 0
242 2 3.6914999999999996e+00 1.9181596668421495e+01 6.2993210993005766e+00 0 0 0
473 2 3.6914999999999996e+00 1.7760737655945832e+01 9.1747802246099077e+00 0 0 0
494 2 3.6914999999999996e+00 1.9181596668421495e+01 9.1747802246099077e+00 0 0 0
246 2 4.9220000000000006e+00 1.7050308149707998e+01 6.2993210993005766e+00 0 0 0
248 2 6.1524999999999999e+00 1.6339878643470165e+01 6.2993210993005766e+00 0 0 0
496 2 4.9220000000000006e+00 1.7050308149707998e+01 9.1747802246099077e+00 0 0 0
293 2 7.3830000000000009e+00 1.7050308149707998e+01 6.2993210993005766e+00 0 0 0
520 2 7.3830000000000009e+00 1.7050308149707998e+01 9.1747802246099077e+00 0 0 0
244 2 4.9220000000000006e+00 1.8471167162183658e+01 6.2993210993005766e+00 0 0 0
289 2 6.1524999999999999e+00 1.9181596668421495e+01 6.2993210993005766e+00 0 0 0
495 2 4.9220000000000006e+00 1.9892026174659328e+01 9.1747802246099077e+00 0 0 0
497 2 6.1524999999999999e+00 1.7760737655945832e+01 9.1747802246099077e+00 0 0 0
518 2 6.1524999999999999e+00 1.9181596668421495e+01 9.1747802246099077e+00 0 0 0
291 2 7.3829999999999991e+00 1.8471167162183658e+01 6.2993210993005766e+00 0 0 0
519 2 7.3829999999999991e+00 1.9892026174659328e+01 9.1747802246099077e+00 0 0 0
193 2 1.2305000000000001e+00 2.0602455680897162e+01 6.2993210993005766e+00 0 0 0
240 2 3.6915000000000004e+00 2.0602455680897162e+01 6.2993210993005766e+00 0 0 0
189 2 0.0000000000000000e+00 2.2733744199610655e+01 6.2993210993005766e+00 0 0 0
191 2 0.0000000000000000e+00 2.1312885187134999e+01 6.2993210993005766e+00 0 0 0
234 2 1.2304999999999993e+00 2.3444173705848499e+01 6.2993210993005766e+00 0 0 0
236 2 2.4610000000000003e+00 2.2733744199610655e+01 6.2993210993005766e+00 0 0 0
238 2 2.4610000000000003e+00 2.1312885187134995e+01 6.2993210993005766e+00 0 0 0
467 2 0.0000000000000000e+00 2.4154603212086325e+01 9.1747802246099077e+00 0 0 0
468 2 0.0000000000000000e+00 2.1312885187134999e+01 9.1747802246099077e+00 0 0 0
469 2 1.2304999999999993e+00 2.2023314693372832e+01 9.1747802246099077e+00 0 0 0
490 2 1.2304999999999993e+00 2.3444173705848499e+01 9.1747802246099077e+00 0 0 0
491 2 2.4610000000000003e+00 2.4154603212086325e+01 9.1747802246099077e+00 0 0 0
492 2 2.4610000000000003e+00 2.1312885187134995e+01 9.1747802246099077e+00 0 0 0
281 2 3.6915000000000004e+00 2.3444173705848499e+01 6.2993210993005766e+00 0 0 0
493 2 3.6914999999999996e+00 2.2023314693372832e+01 9.1747802246099077e+00 0 0 0
514 2 3.6915000000000004e+00 2.3444173705848499e+01 9.1747802246099077e+00 0 0 0
287 2 6.1524999999999999e+00 2.0602455680897162e+01 6.2993210993005766e+00 0 0 0
283 2 4.9220000000000006e+00 2.2733744199610655e+01 6.2993210993005766e+00 0 0 0
285 2 4.9220000000000006e+00 2.1312885187134995e+01 6.2993210993005766e+00 0 0 0
323 2 6.1524999999999999e+00 2.3444173705848499e+01 6.2993210993005766e+00 0 0 0
515 2 4.9220000000000006e+00 2.4154603212086325e+01 9.1747802246099077e+00 0 0 0
516 2 4.9220000000000006e+00 2.1312885187134995e+01 9.1747802246099077e+00 0 0 0
517 2 6.1524999999999990e+00 2.2023314693372832e+01 9.1747802246099077e+00 0 0 0
535 2 6.1524999999999999e+00 2.3444173705848499e+01 9.1747802246099077e+00 0 0 0
325 2 7.3829999999999991e+00 2.2733744199610655e+01 6.2993210993005766e+00 0 0 0
327 2 7.3829999999999991e+00 2.1312885187134999e+01 6.2993210993005766e+00 0 0 0
536 2 7.3830000000000009e+00 2.4154603212086336e+01 9.1747802246099077e+00 0 0 0
537 2 7.3829999999999991e+00 2.1312885187134999e+01 9.1747802246099077e+00 0 0 0
874 1 4.2347994906973596e-01 1.4712592268278772e+01 1.1940795621875704e+01 1 0 0
2002 1 4.3121230709339420e+00 1.2789244772388502e+01 1.1693792161375983e+01 0 -1 0
59 1 4.6621980623684953e+00 1.5659562308704784e+01 1.1804915481183288e+01 1 0 1
3819 1 6.0904942267808471e+00 1.8359340770833800e+01 1.2105622106283564e+01 0 1 0
2961 1 2.1863302465135379e+00 1.6699564159904380e+01 1.1855819916744004e+01 1 1 -1
827 1 1.6759875336382839e+00 1.9263501433446905e+01 1.1802864469513034e+01 0 0 1
1903 1 4.2329963292673307e+00 2.3544072928324066e+01 1.1502907028046367e+01 1 -1 -2
3918 1 4.0727991609018641e+00 2.0606382095302532e+01 1.2064261313578857e+01 1 0 -1
796 1 7.8177704218659319e+00 1.5550694682585760e+01 1.1888788245215579e+01 0 1 0
788 1 7.6717715902124635e+00 1.2785998768278057e+01 1.1736648079010854e+01 0 0 -1
1899 1 6.7562067371001202e+00 2.4151129711891762e+01 1.2059891365757395e+01 0 1 0
3085 1 1.5409159780002744e+00 1.2296431351903362e+01 1.1941176489229431e+01 0 0 1
1030 1 1.7930346534536323e+00 2.2536313128217049e+01 1.8054010816604062e+01 0 0 -1
1927 1 1.3053948919351186e+00 1.2860436349708808e+01 1.6481304742476517e+01 0 0 0
2863 1 5.2857270947971813e+00 1.5363599501028499e+01 1.4632078020375253e+01 0 0 0
982 1 5.2953813646632168e+00 1.7730691084727294e+01 1.8763612223304527e+01 0 0 -1
1882 1 3.4686597133339364e-01 1.7336270334977709e+01 1.5723179766404900e+01 1 1 1
1875 1 4.6458484859233673e+00 2.3130386092562304e+01 1.8942834367309615e+01 1 0 -1
875 1 3.7249223610905018e+00 2.3938213700181340e+01 1.4128048633215707e+01 1 0 -1
2027 1 7.6486371587074293e+00 2.1806329706324760e+01 1.6531155582540030e+01 0 -1 0
1917 1 8.7644128055793180e-01 1.7991344725120683e+01 1.8458803096822685e+01 0 0 -1
4050 1 3.5411210059011373e+00 1.8007166815201039e+01 1.4376833034073828e+01 0 0 0
2069 1 4.0972124019697134e+00 2.0838865319930370e+01 1.4977670414206814e+01 1 0 1
1836 1 5.4652846026384818e+00 2.0652801078725826e+01 1.7398313273678809e+01 0 0 0
2044 1 7.4927875736589922e+00 1.8384017540750175e+01 1.4590392283522103e+01 1 0 -2
4046 1 1.4765604619044981e+00 2.2381675193797559e+01 1.5367405462624431e+01 -1 0 0
975 1 2.7735276205766310e+00 1.4097931747310238e+01 1.8404768015505169e+01 1 -1 0
991 1 5.7744296294490089e+00 1.7961042097657977e+01 2.4828873475205043e+01 0 0 -1
3868 1 3.1538260053133680e+00 1.9773002437345802e+01 1.8994683177982942e+01 1 -1 0
2074 1 4.6098379706772885e+00 2.4412588664827240e+01 2.4680066214731156e+01 1 0 0
888 1 5.7474704044602225e+00 2.1693993613237968e+01 2.4817080477556324e+01 0 1 0
3032 1 3.2253056769597457e+00 1.6578295777150217e+01 1.6907749420603267e+01 1 1 1
973 1 5.9194368122410417e+00 1.4682918038938992e+01 2.2129044899779863e+01 0 0 -1
3917 1 1.5794823379306662e+00 1.6969483033854150e+01 2.2133132009763926e+01 0 -1 0
963 1 3.3773345456767654e+00 1.3205306968324871e+01 2.1714402987716468e+01 0 1 0
26 1 4.5689017606745752e+00 1.7257341508431431e+01 2.1967544917009334e+01 1 -1 1
3871 1 7.8708526339178695e+00 1.8590547524159891e+01 1.8076289864531773e+01 1 0 -1
779 1 8.0585529280087498e-01 1.5622004431207305e+01 1.9930999739375672e+01 0 1 0
3062 1 5.2923036131504357e+00 2.3684343431325743e+01 2.1895677268699203e+01 1 0 0
812 1 5.1942251646222015e-01 1.3128417423222212e+01 2.1751268697843763e+01 0 1 -1
1098 1 7.4221505531486107e+00 1.8327440385509146e+01 2.1618975893790271e+01 0 0 1
2956 1 6.5665545675127506e+00 1.5360613206228269e+01 1.7391799418461883e+01 0 1 -1
1819 1 5.4438189025909685e+00 2.1059140862507192e+01 2.2335461761501421e+01 0 0 0
1869 1 7.2493619190673488e+00 1.3023265612309983e+01 1.4757471557640079e+01 1 1 0
826 1 1.0696633623316536e+00 1.5378045336779605e+01 2.4582157598207473e+01 0 1 -1
2972 1 8.4710093234782524e-01 1.9757505016897355e+01 1.4426845411351936e+01 1 0 0
2996 1 3.8248276693905621e+00 1.5782476905856916e+01 2.4559293838932717e+01 1 1 0
2901 1 5.0550523407088654e+00 1.3296305693049895e+01 2.4606719180851279e+01 -1 0 -1
2064 1 1.1350107262066771e+00 2.2531964426323974e+01 2.1977375403632884e+01 1 1 0
3961 1 2.8883359777531732e+00 2.0284023868503748e+01 2.1836311206992953e+01 0 0 -1
65 1 3.4830370367592720e+00 1.9773499045191343e+01 2.4870153245301324e+01 1 0 -1
7 1 2.7863416056900964e-01 1.4779962287032387e+01 1.4584775452035581e+01 1 0 0
1918 1 5.3543018545717675e+00 1.3687971549459350e+01 1.9452019908529074e+01 0 0 0
3930 1 8.0130734966464470e+00 1.5813216070990475e+01 2.0128194786264004e+01 -1 0 0
1851 1 6.4368905395499576e+00 2.4266783430371838e+01 1.6361828410295310e+01 0 -1 0
4007 1 3.5018106925860568e+00 1.2920177515373064e+01 1.4387985388884186e+01 1 0 0
3025 1 8.9695526706945888e-02 1.9494471067589444e+01 2.2488479222227845e+01 0 0 -1
3959 1 1.8633562785172364e-02 1.2469952909961670e+01 2.4450525291745016e+01 0 1 -1
1130 2 0.0000000000000000e+00 2.5575462224561992e+01 3.4238619739906264e+00 0 0 0
1132 2 1.2305000000000001e+00 2.6285891730799833e+01 3.4238619739906264e+00 0 0 0
1140 2 1.2305000000000010e+00 2.7706750743275496e+01 3.4238619739906264e+00 0 0 0
1144 2 2.4610000000000003e+00 2.5575462224561992e+01 3.4238619739906264e+00 0 0 0