
# Create simulation box and atoms

read_data data.ML_graphite_1atm_240K
  orthogonal box = (0 0 2.08296) to (49.22 49.0196 25.7579)
  6 by 4 by 2 MPI processor grid
  reading atoms ...
  4065 atoms
  reading velocities ...
  4065 velocities
group water type 1
1305 atoms in group water
group graphite type 2
2760 atoms in group graphite

# Define potential

pair_style sw
pair_coeff * * MLC_e.sw mW C


# Fix graphite atoms in place

fix 5 graphite setforce 0.0 0.0 0.0
velocity graphite set 0.0 0.0 0.0


# Equilibration of molecular water

# Add velocity/set timestep

velocity	    water create ${TEMP} ${SEED} rot yes dist gaussian
velocity	    water create 240 ${SEED} rot yes dist gaussian
velocity	    water create 240 29320 rot yes dist gaussian
timestep	    5.0

# Define output

compute			1 water msd
compute			3 water temp
thermo	    	50
thermo_style	custom step temp press vol etotal ke pe c_1[4] c_3

# Neighbor lists

neigh_modify    delay 0 every 1 check yes

# Set fixes

fix             1 water momentum 10 linear 1 1 1 rescale
fix             2 water nve
fix             3 water temp/csvr ${TEMP} ${TEMP} 500.0 ${SEED}
fix             3 water temp/csvr 240 ${TEMP} 500.0 ${SEED}
fix             3 water temp/csvr 240 240 500.0 ${SEED}
fix             3 water temp/csvr 240 240 500.0 29320
fix             4 water press/berendsen z ${PRES} ${PRES} 1000.0 modulus 20000
fix             4 water press/berendsen z 1 ${PRES} 1000.0 modulus 20000
fix             4 water press/berendsen z 1 1 1000.0 modulus 20000

# Run 0.5 ns equilibration

dump		    1 all atom 2000 ${DIR}/eq.${NAME}-${TEMP}.dump
dump		    1 all atom 2000 run_3/eq.${NAME}-${TEMP}.dump
dump		    1 all atom 2000 run_3/eq.het_freeze_3-${TEMP}.dump
dump		    1 all atom 2000 run_3/eq.het_freeze_3-240.dump

reset_timestep  0

run	            100000
Neighbor list info ...
  update every 1 steps, delay 0 steps, check yes
  max neighbors/atom: 2000, page size: 100000
  master list distance cutoff = 6.67472
  ghost atom cutoff = 6.67472
  binsize = 3.33736, bins = 15 15 8
  1 neighbor lists, perpetual/occasional/extra = 1 0 0
  (1) pair sw, perpetual
      attributes: full, newton on
      pair build: full/bin/atomonly
      stencil: full/bin/3d
      bin: standard
Per MPI rank memory allocation (min/avg/max) = 4.1 | 4.287 | 4.475 Mbytes
Step Temp Press Volume TotEng KinEng PotEng c_1[4] c_3 
       0    77.007874   -452.08497    57121.581   -12745.801    932.87431   -13678.675            0          240 
      50    77.030753   -425.91812    57194.076   -12730.437    933.15147   -13663.589   0.52430193     240.0713 
     100    76.856166   -884.37158    57222.463   -12735.869    931.03652   -13666.906   0.85800742    239.52719 
     150    77.124906   -777.92236    57190.939   -12748.434    934.29204   -13682.726    1.0535627    240.36474 
     200    77.374843   -204.18909    57265.796   -12750.528    937.31978   -13687.848    1.2579843    241.14368 
     250    77.315599   -338.83358    57270.178   -12741.666     936.6021   -13678.268    1.5199094    240.95905 
     300    77.081989   -631.21816    57298.249   -12764.083    933.77214   -13697.855    1.7523576    240.23098 
     350    76.719392   -451.32992    57323.904   -12737.993    929.37964   -13667.373    2.0153128    239.10093 
     400    78.356969    -440.5025    57351.556   -12719.984    949.21726   -13669.201    2.3239235    244.20454 
     450    78.149208    78.232386    57347.204   -12747.773    946.70044   -13694.473    2.5118281    243.55704 
     500    75.992888   -751.31969    57343.911   -12769.973    920.57876   -13690.552    2.7261558    236.83673 
     550    77.825781   -810.88627    57334.107   -12784.078    942.78245    -13726.86    2.8969765    242.54906 
     600    75.627606   -719.92249    57321.724   -12770.466    916.15373   -13686.619    3.1219726    235.69831 
     650    74.719504   -861.54739    57324.364   -12765.454    905.15297   -13670.607    3.2580366    232.86815 
     700    78.726474   -581.16729    57327.892   -12740.862    953.69345   -13694.556    3.4760915    245.35613 
     750    75.575017   -290.20806     57310.28   -12762.682    915.51667   -13678.199    3.7384747    235.53441 
     800    75.010118   -477.84945    57376.128   -12792.889    908.67347   -13701.562    4.0234993    233.77386 
     850    76.172106   -607.34227    57479.292   -12795.949    922.74981   -13718.699    4.2580852    237.39528 
     900    73.998676   -423.94224    57490.752   -12800.174    896.42086   -13696.595    4.5752413    230.62164 
     950    75.137326   -725.36466    57531.818   -12837.401    910.21447   -13747.615    4.7564087    234.17032 
    1000    74.851124   -707.02098     57541.07   -12839.181    906.74742   -13745.928     4.852325    233.27835 
    1050    75.737869   -481.13021    57469.423   -12824.378    917.48946   -13741.867    4.9901011    236.04195 
    1100    77.692562   -641.55596    57486.394   -12789.665    941.16863   -13730.834    5.1537292    242.13387 
    1150    74.452841   -313.65563    57518.851   -12804.257    901.92261    -13706.18    5.4093891    232.03707 
    1200    74.142984   -442.46684    57491.416   -12817.895    898.16901   -13716.064    5.6745533    231.07139 
    1250    75.682218    -734.9474    57532.221   -12803.232     916.8153   -13720.047    5.9962129    235.86851 
    1300    75.941226   -280.99516    57537.826       -12829    919.95293   -13748.953    6.1717096    236.67572 
    1350    76.498143   -383.70743    57529.046   -12807.704    926.69942   -13734.403    6.3764132    238.41139 
    1400    81.031609   -201.76632    57548.843   -12771.295    981.61789   -13752.913     6.649083    252.54023 
    1450     77.68617   -394.62491    57616.631   -12794.678     941.0912   -13735.769    6.7419825    242.11395 
    1500    78.609645   -126.35757    57642.176   -12779.878    952.27818   -13732.156    6.7993568    244.99202 
    1550    76.795212   -663.26677    57695.147   -12790.002    930.29812     -13720.3    6.9838844    239.33723 
    1600    78.133785   -569.42132    57731.386   -12750.713    946.51361   -13697.226    7.1438145    243.50897 
    1650    80.446216   -911.37185    57694.544   -12735.391    974.52643   -13709.917    7.3279966    250.71582 
    1700    79.185518   -1097.0749    57687.282   -12734.533    959.25432   -13693.787    7.5248509    246.78677 
    1750    80.484607   -757.27984    57669.898   -12727.202     974.9915   -13702.194    7.6704448    250.83546 
    1800    80.667409   -459.35114    57704.144   -12733.846    977.20596   -13711.052    7.8087575    251.40518 
    1850    79.593929   -181.25602    57739.943   -12725.129    964.20181   -13689.331    7.9945201    248.05961 
    1900    78.507552   -750.70366    57780.258   -12750.217    951.04143   -13701.259    8.2672549    244.67384 
    1950    77.071931   -558.50558    57763.539   -12737.667     933.6503   -13671.317     8.439455    240.19964 
    2000    76.433149   -449.21996     57728.97   -12773.426    925.91209   -13699.338    8.6342546    238.20883 
    2050    77.562228   -356.96623     57745.14   -12775.661    939.58976   -13715.251    8.9843519    241.72768 
    2100    75.459026   -234.43413    57792.561   -12749.067    914.11155   -13663.178     9.299562    235.17292 
    2150    80.157716   -779.22975    57830.847   -12766.483    971.03154   -13737.515    9.3017191    249.81669 
    2200    76.092446    -730.3475    57814.458   -12784.617    921.78481   -13706.402    9.3569498    237.14701 
    2250     75.81248   -859.05829    57807.726   -12794.135     918.3933   -13712.528    9.4350165    236.27448 
    2300    75.965622   -555.19125    57847.901   -12767.064    920.24846   -13687.312     9.685634    236.75175 
    2350    75.662305   -1027.4469    57834.179   -12765.889    916.57408   -13682.463     9.826627    235.80645 
    2400    80.454705    -125.4137    57835.031   -12753.527    974.62926   -13728.156    9.8046802    250.74227 
    2450     78.50261   -825.03768    57889.231   -12773.863    950.98156   -13724.845    10.053913    244.65844 
    2500    78.160801   -384.85809    57983.276    -12763.94    946.84088   -13710.781    10.481708    243.59317 
    2550    75.103208   -834.21319      57993.6   -12774.057    909.80116   -13683.858     10.67656    234.06399 
    2600    75.946838   -592.76987    57984.071   -12763.825    920.02091   -13683.845    10.933909    236.69321 
    2650    80.036604   -821.24826    57968.929   -12743.114    969.56438   -13712.678    11.014327    249.43923 
    2700    76.272929   -1068.7985    57861.277   -12764.584    923.97118   -13688.556    11.152924     237.7095 
    2750    77.536363   -928.57439    57774.404   -12727.165    939.27644   -13666.442    11.295235    241.64707 
    2800    75.862098   -566.30078    57733.311   -12730.872    918.99437   -13649.866    11.388036    236.42912 
    2850     75.73321    -1096.998    57669.806   -12750.427    917.43302    -13667.86    11.499057    236.02743 
    2900    77.976343   -524.18172    57697.254   -12739.003    944.60635    -13683.61    11.721664    243.01829 
    2950    78.039337   -626.87411    57782.115   -12728.081    945.36947   -13673.451    11.973388    243.21462 
    3000    77.920791   -356.27532    57788.439    -12722.94     943.9334   -13666.873    12.185035    242.84516 
    3050    79.347694   -981.39479    57801.569   -12717.315    961.21892   -13678.534    12.455511     247.2922 
    3100    74.382486   -700.67545    57844.777   -12761.537    901.07033   -13662.608    12.698928    231.81781 
    3150    77.252119   -626.38549    57839.294   -12756.087    935.83309    -13691.92    12.901366     240.7612 
    3200    72.914665   -738.41004    57826.289   -12792.622    883.28914   -13675.911    13.153696    227.24325 
    3250    72.533377   -887.91507    57781.884   -12784.114    878.67021   -13662.784    13.280353    226.05494 
    3300    75.645416   -612.02065    57735.264   -12775.065    916.36948   -13691.435    13.538885    235.75381 
    3350    78.702013   -668.22117     57718.09   -12761.785    953.39713   -13715.182      13.8489    245.27989 
    3400    76.957962   -860.73079    57691.168   -12745.725    932.26968   -13677.995    14.230081    239.84445 
    3450    77.719137   -682.25651    57696.416   -12734.326    941.49056   -13675.816    14.396614     242.2167 
    3500    78.385954   -500.88916    57736.733    -12726.89    949.56839   -13676.458    14.575969    244.29487 
    3550    77.119525   -1002.8719    57730.246   -12771.719    934.22685   -13705.946    14.552052    240.34797 
    3600    72.988586   -461.53858    57779.646   -12782.965    884.18461   -13667.149     14.61723    227.47363 
    3650    78.134053   -766.18577    57799.076   -12778.493    946.51685    -13725.01    15.071351    243.50981 
    3700    73.836167   -953.44104    57836.268   -12819.845    894.45222   -13714.298    15.328823    230.11517 
    3750    75.038264   -452.19042    57879.344   -12841.413    909.01443   -13750.427    15.366235    233.86158 
    3800    74.449316   -579.35466    57913.609   -12812.718    901.87991   -13714.598    15.546004    232.02609 
    3850    71.365664    -557.4489    57883.663   -12835.163    864.52452   -13699.688    15.883991    222.41569 
    3900    76.806906   -594.94127    57855.414   -12787.867    930.43978   -13718.307     16.24862    239.37367 
    3950    76.400225   -541.61042    57814.692   -12808.865    925.51324   -13734.378    16.476451    238.10622 
    4000    77.479478   -1098.0311    57773.639   -12789.343    938.58733    -13727.93    16.625296    241.46979 
    4050    78.546314   -917.58442    57727.159    -12786.36    951.51099   -13737.871    16.809304    244.79465 
    4100    77.125048   -947.11331    57666.168   -12770.302    934.29376   -13704.596    17.003412    240.36518 
    4150    77.605629   -866.71006    57653.836   -12775.461    940.11552   -13715.577    17.156617    241.86294 
    4200    76.234557   -1068.6234    57630.504   -12819.318    923.50634   -13742.824    17.430389    237.58991 
    4250    76.932535   -1018.7215    57580.079   -12800.027    931.96166   -13731.989     17.74117     239.7652 
    4300    75.233789   -690.18809    57528.985   -12797.845    911.38303   -13709.228    18.114523    234.47095 
    4350    78.109077   -817.30428    57480.355   -12775.199    946.21429   -13721.413    18.403762    243.43197 
    4400    79.190876   -593.65195    57457.131   -12757.603    959.31923   -13716.922     18.57737    246.80347 
    4450     77.70437   -580.25979    57455.547    -12731.12    941.31167   -13672.432    18.660431    242.17067 
    4500    76.316743   -318.88489    57526.755   -12729.876    924.50195   -13654.378     18.85639    237.84605 
    4550     76.97256   -477.97622    57538.805   -12741.153    932.44652     -13673.6    19.037256    239.88994 
    4600    78.162699   -442.81955    57616.254   -12767.814    946.86387   -13714.678    19.149642    243.59909 
    4650    75.902247   -478.91625    57578.665   -12792.509    919.48074    -13711.99    19.174612    236.55424 
    4700    75.808372   -611.37659    57587.392   -12795.522    918.34353   -13713.866    19.146677    236.26167 
    4750     80.48703   -408.77477    57617.013    -12796.72    975.02085   -13771.741    19.467309    250.84301 
    4800    76.842905   -652.98674    57565.805   -12802.269    930.87588   -13733.145    19.586168    239.48586 
    4850    78.285637   -882.50782    57560.738   -12784.646    948.35315       -13733    19.839731    243.98223 
    4900    74.663713   -365.65972    57548.667   -12824.378    904.47712   -13728.855    20.094537    232.69427 
    4950    74.033191   -468.48129    57586.289   -12824.019    896.83897   -13720.858    20.236567    230.72921 
    5000    77.860348   -601.19478    57592.826   -12777.134     943.2012   -13720.335    20.414039    242.65679 
    5050    77.777723   -310.78691     57569.11   -12782.666    942.20027   -13724.866    20.749711    242.39928 
    5100    81.453459   -552.34875    57536.132   -12784.408    986.72819   -13771.136     21.00536    253.85495 
    5150    76.996007    -679.0751    57488.998   -12816.734    932.73056   -13749.465    21.307355    239.96302 
    5200    74.028985   -908.41849    57434.217    -12809.91    896.78801   -13706.698    21.542826     230.7161 
    5250    75.279187   -736.56727    57380.765   -12812.828    911.93297   -13724.761    21.657005    234.61243 
    5300    76.535097    -412.4331     57370.07   -12819.114    927.14708   -13746.261    22.012758    238.52656 
    5350    75.031778    -633.9731      57420.4   -12800.346    908.93586   -13709.282    22.065895    233.84137 
    5400    78.176181   -651.59368    57391.311   -12766.639    947.02719   -13713.667    22.284012     243.6411 
    5450    76.166112   -838.73385    57402.264   -12784.729     922.6772   -13707.406    22.663767     237.3766 
    5500    79.867918   -293.13241    57440.882   -12747.175    967.52092   -13714.696    22.738605    248.91351 
    5550    78.642051   -443.76822    57467.447   -12752.522    952.67075   -13705.193    22.846708    245.09302 
    5600    77.084394   -755.11316    57522.463   -12757.915    933.80127   -13691.716    23.067245    240.23848 
    5650    76.049562   -582.81512    57524.764   -12758.666    921.26531   -13679.931    23.389499    237.01336 
    5700    74.971343   -665.27509    57568.109   -12786.738    908.20376   -13694.942     23.78601    233.65302 
    5750    77.140496   -67.391102    57570.236   -12805.264     934.4809   -13739.745    24.093085    240.41333 
    5800    75.983458   -336.83764    57577.718   -12794.672    920.46452   -13715.136    24.239416    236.80734 
    5850    75.388841    -414.7638    57689.723   -12799.387    913.26133   -13712.649    24.587674    234.95418 
    5900    75.211085    -563.3665    57690.167   -12826.702    911.10799    -13737.81    24.760353    234.40019 
    5950    74.319521   -414.84992    57749.794   -12815.619    900.30757   -13715.926    24.778027    231.62157 
    6000     75.46768   -520.62913    57800.331   -12844.857    914.21638   -13759.073    24.918061    235.19989 
    6050    73.454502   -579.90476    57820.606   -12827.841    889.82872    -13717.67     24.80659    228.92569 
    6100    76.987636   -232.84377    57840.426   -12814.742    932.62915   -13747.372    24.978638    239.93693 
    6150    76.206549   -600.56923     57869.53   -12806.496    923.16706   -13729.663    25.209196    237.50262 
    6200    77.085303   -517.50432    57898.866   -12793.181    933.81229   -13726.993    25.643998    240.24131 
    6250    76.501847   -847.64582    57947.946   -12819.337     926.7443   -13746.081    25.620784    238.42293 
    6300    74.614576   -177.15845    57942.267   -12811.897    903.88188   -13715.778    25.605568    232.54113 
    6350    76.273037   -671.77609    57918.723   -12797.333    923.97249   -13721.306    25.406285    237.70983 
    6400      77.3891   -664.29223    57882.605   -12804.163    937.49249   -13741.656    25.286231    241.18812 
    6450     74.74774    -785.1382    57829.365   -12795.976    905.49503   -13701.471    25.484479    232.95615 
    6500    78.472227   -886.96992    57809.955   -12825.988     950.6135   -13776.601    25.777126    244.56375 
    6550    75.465922   -524.33929    57816.204   -12838.046    914.19508   -13752.241    25.967244    235.19441 
    6600    75.399996   -220.12358    57892.252   -12823.723    913.39646   -13737.119    26.028479    234.98894 
    6650    76.270116   -257.37934    57967.887   -12811.681     923.9371   -13735.618    26.384072    237.70073 
    6700    73.898992   -361.08084    57964.624   -12820.278    895.21328   -13715.492    26.770558    230.31097 
    6750    72.731392    -197.7011    58025.943   -12850.967    881.06896   -13732.036    26.860033    226.67207 
    6800    73.156683   -637.14653    58023.032   -12842.588    886.22094   -13728.809    26.855702    227.99752 
    6850    74.551311   -877.73439    58062.009   -12847.641    903.11548   -13750.757    26.867609    232.34396 
    6900    73.326063   -698.56502    58046.631   -12831.314    888.27281   -13719.587    27.067431     228.5254 
    6950    75.648682   -307.74001    58007.476   -12807.422    916.40904   -13723.832    27.578163    235.76399 
    7000    74.825976   -655.07682    58004.623   -12819.789    906.44277   -13726.232    27.680318    233.19997 
    7050    76.238256   -591.50048    57993.294   -12832.439    923.55115   -13755.991    27.673479    237.60144 
    7100    74.160541   -654.50795    57945.911   -12871.745    898.38169   -13770.127    27.902521     231.1261 
    7150    74.362879   -333.40605    57879.601   -12838.048    900.83281   -13738.881    28.093469     231.7567 
    7200    72.812994   -473.54654    57796.809    -12867.86    882.05749   -13749.917    28.087715    226.92639 
    7250    74.720071   -793.75672    57765.391   -12896.561    905.15984   -13801.721     28.14325    232.86991 
    7300    72.281445   -445.88545    57696.831   -12881.838    875.61829   -13757.456    28.603307    225.26978 
    7350    74.668873   -621.43259    57634.685   -12878.251    904.53963    -13782.79    28.934157    232.71035 
    7400    76.663872   -869.25061    57644.651   -12860.252    928.70707   -13788.959    29.394656    238.92789 
    7450    75.289856   -749.04768    57609.651   -12820.918    912.06222    -13732.98    29.728347    234.64569 
    7500    73.395187   -317.98696    57602.149   -12830.393    889.11018   -13719.503    29.943735    228.74083 
    7550    75.632726   -505.65844    57646.207   -12841.162    916.21575   -13757.378    29.758544    235.71426 
    7600    75.242839   -662.20306    57676.911   -12833.291    911.49266   -13744.784    29.717292    234.49915 
    7650    77.976409   -386.52673    57746.931   -12815.621    944.60716   -13760.228    29.650042     243.0185 
    7700    75.355725   -373.77784    57780.928   -12824.284    912.86016   -13737.144    29.805272    234.85097 
    7750    74.922377   -723.58364    57840.779   -12802.572    907.61058   -13710.182     30.31496    233.50041 
    7800    75.900047   -361.56245    57862.118       -12817    919.45408   -13736.454    30.694861    236.54738 
    7850    75.074294   -628.75334    57843.349    -12824.61    909.45091   -13734.061    31.040536    233.97387 
    7900    75.005529   -574.49141    57820.672   -12843.158    908.61788   -13751.776    31.325142    233.75956 
    7950    72.724266   -652.79093    57754.286   -12853.859    880.98263   -13734.842    31.449006    226.64986 
    8000    74.945518   -573.32629    57700.417   -12849.929    907.89091    -13757.82    31.424179    233.57253 
    8050    76.312609   -573.49801    57705.884   -12816.573    924.45187   -13741.025    31.570799    237.83316 
    8100    77.865972   -599.88356    57740.844   -12782.294    943.26932   -13725.563    31.776977    242.67432 
    8150    76.002136   -584.59609    57697.961     -12793.5     920.6908   -13714.191     32.30251    236.86555 
    8200    76.308296   -691.15332    57736.034   -12782.658    924.39961   -13707.057    32.327678    237.81972 
    8250    76.282059   -411.10004    57790.466   -12770.236    924.08178   -13694.318    32.329396    237.73795 
    8300    76.306098   -733.48204    57800.265   -12781.666    924.37299   -13706.039    32.404704    237.81287 
    8350    77.052713   -276.50161    57832.316     -12744.9    933.41749   -13678.317    32.353611    240.13974 
    8400    77.161798   -460.14515    57854.702   -12735.756    934.73896   -13670.495    32.331091    240.47972 
    8450    80.368661   -720.52145    57858.345   -12727.712    973.58693   -13701.299    32.432857    250.47411 
    8500     80.71091    -550.7494    57901.308   -12683.052    977.73293   -13660.785    32.651555    251.54075 
    8550    80.297916   -540.68584    57947.439   -12676.684    972.72992   -13649.414    32.957289    250.25363 
    8600    77.146742   -635.86683    57948.888   -12702.914    934.55656   -13637.471     33.09472    240.43279 
    8650    76.298773   -462.05323    57928.756   -12683.753    924.28425   -13608.038    33.583812    237.79004 
    8700    79.212029    -1005.197    57918.986   -12679.097    959.57548   -13638.672    33.759036    246.86939 
    8750    79.617681   -706.28181    57921.423   -12699.199    964.48955   -13663.689    33.784636    248.13363 
    8800    76.322161   -747.16086    57902.195   -12740.777    924.56758   -13665.345    33.917441    237.86293 
    8850    79.967131    -915.5353     57849.74   -12734.811    968.72278   -13703.534    34.060581    249.22271 
    8900    76.197784   -657.41018    57828.665   -12730.913    923.06087   -13653.973    34.400995     237.4753 
    8950    77.851428   -973.62278     57774.42   -12742.857    943.09314   -13685.951    34.470292    242.62899 
    9000    78.368845   -627.13904    57734.073   -12728.129    949.36113    -13677.49    34.633282    244.24155 
    9050    78.899703   -1033.2861    57652.732   -12725.667    955.79195   -13681.459      34.8806    245.89601 
    9100    79.286002   -534.36112    57671.216   -12714.959    960.47158    -13675.43    35.333561    247.09993 
    9150    76.428097   -203.14522    57658.059   -12735.846    925.85089   -13661.697     35.80194    238.19309 
    9200    79.313305   -262.20725    57731.401   -12748.627    960.80233   -13709.429    36.366918    247.18502 
    9250    77.458206   -502.56384    57702.245    -12784.75    938.32965   -13723.079    36.733999    241.40349 
    9300    73.886525   -303.71776    57725.585   -12796.441    895.06225   -13691.504    36.861869    230.27211 
    9350    76.329674   -680.88644    57771.443   -12814.073     924.6586   -13738.732    36.926537    237.88635 
    9400    75.255427   -376.20488    57725.067   -12802.643    911.64515   -13714.288    37.084453    234.53839 
    9450    77.874419   -361.00689    57735.112   -12772.729    943.37165   -13716.101    37.351015    242.70064 
    9500    76.398755   -476.43717    57760.333   -12794.242    925.49544   -13719.738    37.621844    238.10164 
    9550    76.615976   -499.10905    57741.902   -12796.369    928.12685   -13724.496    37.616524    238.77862 
    9600    76.990587   -329.60536    57721.768   -12796.008     932.6649   -13728.673    37.930557    239.94613 
    9650    80.156985   -176.99756    57732.022   -12780.884    971.02268   -13751.907    38.074222    249.81441 
    9700    77.793235   -706.67266     57767.56    -12779.77    942.38819   -13722.159    38.395704    242.44763 
    9750    74.653387   -754.98166    57787.042   -12828.889    904.35204   -13733.241    38.597935    232.66209 
    9800    79.103921   -634.10977    57768.216   -12786.878    958.26585   -13745.144    38.923811    246.53246 
    9850    78.945249     -786.665    57781.719   -12768.824     956.3437   -13725.167    39.385236    246.03795 
    9900    77.072715   -318.38277    57770.466   -12796.422     933.6598   -13730.082    39.871728    240.20208 
    9950    76.661161   -831.80767    57748.365   -12781.354    928.67422   -13710.028     40.81878    238.91945 
   10000    75.848677   -246.53867    57765.564   -12810.554    918.83178   -13729.386    41.047606    236.38729 
   10050      77.3003   -842.76636    57787.979   -12787.827    936.41676   -13724.243     41.25544    240.91136 
   10100     77.20151   -804.26099    57763.268   -12787.755    935.22003   -13722.975     41.47517    240.60348 
   10150    76.087933   -660.10603      57735.9   -12783.024    921.73014   -13704.754    41.499236    237.13294 
   10200    79.982113   -713.08455    57752.186   -12755.047    968.90427   -13723.952    41.447021    249.26941 
   10250    76.080108    -687.9504    57720.859   -12791.644    921.63535    -13713.28    41.842959    237.10856 
   10300    75.869169   -506.04188    57703.236   -12780.021    919.08003   -13699.101    42.376833    236.45115 
   10350    75.362718   -858.21636    57651.308    -12798.94    912.94487   -13711.885    42.798403    234.87276 
   10400    80.194832   -588.96505    57594.626   -12783.138    971.48116   -13754.619    42.925661    249.93236 
   10450    77.228671   -859.63525    57564.746   -12797.238    935.54905   -13732.787    42.890443    240.68813 
   10500    77.240559   -644.18195    57533.556   -12823.832    935.69306   -13759.525    42.843385    240.72518 
   10550    76.243811    -762.6082    57544.184   -12808.029    923.61845   -13731.647     43.12703    237.61875 
   10600    78.518813    -369.1879    57555.276   -12808.319    951.17784   -13759.497    42.964931    244.70894 
   10650    78.210053   -871.39502    57554.362    -12799.67    947.43752   -13747.107    43.232554    243.74667 
   10700    79.270275    67.322333    57580.044   -12774.358    960.28107   -13734.639    43.186214    247.05092 
   10750    77.116342   -509.72221    57641.417   -12748.812     934.1883       -13683    43.406866    240.33805 
   10800    77.278003   -466.81268    57669.519   -12754.671    936.14666   -13690.818    43.283444    240.84187 
   10850    77.454035    -550.7204    57683.683   -12784.632    938.27911   -13722.911    43.058411    241.39049 
   10900    80.140568   -962.72236    57628.845   -12771.379     970.8238   -13742.203    42.878192    249.76324 
   10950    78.437975    -644.1242     57587.98   -12758.571    950.19858    -13708.77    43.068745      244.457 
   11000    77.560404   -522.84955    57617.988   -12762.495    939.56766   -13702.063    43.405122    241.72199 
   11050    79.986015   -936.84315    57666.513   -12766.381    968.95155   -13735.332     43.57722    249.28157 
   11100    78.196044   -757.80599    57649.039   -12771.664    947.26781   -13718.932    43.749429    243.70301 
   11150    79.791281   -866.24257    57606.438   -12785.436    966.59254   -13752.029    43.947667    248.67467 
   11200    78.274934   -286.03322    57627.096   -12770.026     948.2235   -13718.249    44.189272    243.94887 
   11250      78.9445   -384.18104    57653.437   -12744.439    956.33463   -13700.774    44.360073    246.03562 
   11300    77.577871   -535.26854    57700.335   -12777.497    939.77927   -13717.276     44.48096    241.77643 
   11350    77.675561   -622.43142     57686.28    -12764.36    940.96268   -13705.322    44.823003    242.08089 
   11400    79.529761   -1100.1187    57696.475    -12763.05    963.42449   -13726.475    45.169174    247.85962 
   11450    78.189753   -559.15082    57728.585   -12789.705    947.19161   -13736.897    45.282831     243.6834 
   11500    76.878907   -455.49646    57754.152   -12786.899      931.312   -13718.211     45.68525    239.59807 
   11550     80.66642   -590.53537    57796.447   -12790.113    977.19399   -13767.307    45.995875     251.4021 
   11600    78.009662   -825.89872    57763.025   -12793.013    945.00999   -13738.023    45.950443    243.12214 
   11650    78.181455   -688.23533    57723.243   -12786.021    947.09108   -13733.112    46.035644    243.65754 
   11700    75.094198   -652.14351    57696.506   -12825.978    909.69202    -13735.67    46.362159    234.03591 
   11750    75.278478    -980.2266    57628.533   -12845.078    911.92439   -13757.002    46.743412    234.61023 
   11800    75.131155    -514.8189     57608.37    -12830.15    910.13972    -13740.29     46.98659    234.15109 
   11850     76.65125   -855.86394      57577.9   -12859.961    928.55417   -13788.515    47.070356    238.88856 
   11900     76.10683   -339.56882    57537.351   -12864.905    921.95905   -13786.864    47.249316    237.19184 
   11950    75.613239   -741.72208    57529.301   -12834.774    915.97969   -13750.754    47.766208    235.65353 
   12000    77.139144   -758.87126     57517.59   -12834.835    934.46452     -13769.3    47.655025    240.40911 
   12050    77.885682   -702.44265    57489.842   -12825.232    943.50809    -13768.74    47.685183    242.73574 
   12100    74.732433   -426.59988    57503.834   -12835.233    905.30959   -13740.543     47.79342    232.90844 
   12150    74.801462   -595.57763    57539.763   -12839.189    906.14581   -13745.335      47.7815    233.12357 
   12200    78.911674   -310.70704    57547.915   -12826.698    955.93697   -13782.635    47.944726    245.93331 
   12250    75.734704   -232.86351    57582.672   -12830.198    917.45111   -13747.649      47.9937    236.03208 
   12300    77.991426   -651.34792    57633.247   -12827.718    944.78907   -13772.507    48.234812     243.0653 
   12350    74.425434   -482.94206     57644.04   -12812.369     901.5906   -13713.959    48.217584    231.95166 
   12400    74.708248   -980.05271    57625.144    -12810.51    905.01662   -13715.527    48.337073    232.83307 
   12450    75.197724   -867.37443    57579.395    -12823.02    910.94614   -13733.966    48.487123    234.35855 
   12500    78.673166   -595.86863    57525.169   -12801.199    953.04768   -13754.246    48.764325    245.18999 
   12550    78.621214   -203.44898    57559.267   -12790.262    952.41833    -13742.68    48.632224    245.02808 
   12600    75.702855   -704.32799    57574.161   -12783.089     917.0653   -13700.154    48.846725    235.93282 
   12650    77.845287   -401.11014    57582.791   -12776.751    943.01875   -13719.769    49.406906    242.60985 
   12700    79.960018   -417.09301    57593.818   -12769.519    968.63662   -13738.156    49.743579    249.20055 
   12750    78.256459   -845.29324    57575.693   -12788.778    947.99969   -13736.777    49.868955     243.8913 
   12800    75.984568   -824.52328    57549.661   -12763.662    920.47797    -13684.14    50.241933     236.8108 
   12850    79.309355   -433.03394    57557.861   -12742.443    960.75448   -13703.198    50.511486    247.17271 
   12900    77.633535    -866.7985    57574.958   -12744.223    940.45358   -13684.677    51.122819    241.94991 
   12950    76.818329   -673.85244    57572.597   -12731.379    930.57816   -13661.958    51.263983    239.40927 
   13000     76.34969   -441.93299    57555.739   -12745.702    924.90107   -13670.603    51.459283    237.94873 
   13050    78.026785   -699.64744     57556.21   -12742.931    945.21742   -13688.148     51.79132     243.1755 
   13100    80.077732   -334.27769    57592.545   -12718.169    970.06261   -13688.232    52.326748    249.56741 
   13150    80.732361   -654.55667    57616.611   -12700.734    977.99279   -13678.727    52.721171     251.6076 
   13200     78.76851   -250.89427    57578.053   -12718.937    954.20267   -13673.139    53.163209    245.48713 
   13250    79.185363   -565.91686    57624.648   -12701.089    959.25245   -13660.342    53.267689    246.78629 
   13300    78.199803   -397.52751    57674.221   -12687.179    947.31336   -13634.493    53.537018    243.71472 
   13350    77.662909    -414.4121     57769.65   -12714.004    940.80941   -13654.813    54.077331    242.04146 
   13400    77.633107   -495.45559    57814.404   -12743.457    940.44839   -13683.906    54.008896    241.94858 
   13450    80.753377   -701.41923    57801.406   -12713.647    978.24738   -13691.895    54.087976     251.6731 
   13500    79.200976   -539.43765    57828.541   -12679.489    959.44157   -13638.931    54.241677    246.83494 
   13550    77.689268   -712.11015    57900.312   -12675.204    941.12873   -13616.333    54.130573    242.12361 
   13600    75.532029   -823.81055    57885.811   -12705.471    914.99591   -13620.467    54.293799    235.40044 
   13650    77.915465   -451.97499    57871.923    -12698.55    943.86888   -13642.419    54.501777    242.82857 
   13700    77.235666   -446.79014    57846.866   -12749.068    935.63378   -13684.702    54.798673    240.70993 
   13750     76.33731   -422.19591    57826.588   -12735.828    924.75109   -13660.579    55.178292    237.91014 
   13800    77.578609   -717.61354    57871.047   -12718.852     939.7882    -13658.64    55.447249    241.77873 
   13850    74.139356   -800.49021    57913.131   -12695.167    898.12505   -13593.292    55.824037    231.06008 
   13900    78.197282   -796.57312    57862.799   -12708.273    947.28281   -13655.556    55.471779    243.70687 
   13950    76.998445   -786.49988    57741.232   -12721.763    932.76009   -13654.523     55.74756    239.97061 
   14000    75.424265   -678.50507    57696.856   -12744.764    913.69046   -13658.454    56.031086    235.06458 
   14050    75.619823   -671.59623    57707.712   -12742.772    916.05945   -13658.832    56.148086    235.67405 
   14100    76.900319   -697.36879    57712.593   -12737.003    931.57139   -13668.574    56.272283     239.6648 
   14150     76.18836   -861.19575    57741.044   -12746.327    922.94671   -13669.274    56.562661    237.44593 
   14200    75.662972   -560.21005    57747.121   -12753.501    916.58216   -13670.083    56.561591    235.80853 
   14250    75.961792   -829.95293     57692.08   -12746.657    920.20207   -13666.859    56.795425    236.73982 
   14300    78.191667   -334.82779    57681.763   -12744.008    947.21479   -13691.223    57.107692    243.68937 
   14350    77.335924    -759.7361    57695.961   -12749.796    936.84832   -13686.644    57.484155    241.02239 
   14400    78.729571   -970.77698    57676.454   -12747.707    953.73097   -13701.438    57.635966    245.36578 
   14450    73.769932   -375.06672    57670.395   -12752.978    893.64984   -13646.628    57.867694    229.90874 
   14500    78.687207   -730.31995    57649.145   -12772.817    953.21777   -13726.035    57.817575    245.23375 
   14550    76.084576   -419.27075    57614.453   -12760.853    921.68947   -13682.543    58.026011    237.12248 
   14600    78.930479    -719.2549    57650.849   -12739.113    956.16478   -13695.278    57.894912    245.99192 
   14650    79.452281     -576.904    57654.434    -12738.94    962.48589   -13701.426     57.96495    247.61815 
   14700     76.38044   -1005.0345    57678.619   -12740.606    925.27357    -13665.88    58.371822    238.04456 
   14750     78.38538   -679.64805    57640.013   -12730.731    949.56144   -13680.292    58.802485    244.29309 
   14800    78.055763   -507.07434    57641.615   -12736.672    945.56845    -13682.24    59.018498    243.26581 
   14850    79.332428   -595.93091    57682.121   -12760.511    961.03399   -13721.545    59.478243    247.24462 
   14900    76.707428   -761.53977    57718.478   -12760.943    929.23471   -13690.178     60.09084    239.06364 
   14950    77.523638   -531.04056    57730.769   -12771.356    939.12229   -13710.478    60.435802    241.60741 
   15000    77.285715   -559.62428    57775.646   -12735.553    936.24008   -13671.793    61.081745    240.86591 
   15050    75.896973   -426.74716    57787.041   -12752.208    919.41685   -13671.625    61.923661    236.53781 
   15100    75.964698   -767.60353    57763.968   -12755.671    920.23727   -13675.908    61.726348    236.74887 
   15150    78.396166   -747.86518    57721.701   -12778.741     949.6921   -13728.433    61.582408     244.3267 
   15200    77.328767   -702.97652    57673.893   -12784.003    936.76162   -13720.765    61.547006    241.00008 
   15250    76.532843   -781.44154    57627.967    -12821.86    927.11979    -13748.98    61.198333    238.51954 
   15300    77.209288   -486.53252    57631.507   -12789.206    935.31424    -13724.52    61.119172    240.62772 
   15350    75.532693   -596.37188    57650.125   -12794.924    915.00395   -13709.927    61.130848     235.4025 
   15400    75.975521   -738.79268    57666.507   -12786.283    920.36837   -13706.652    61.437239     236.7826 
   15450    77.725035   -398.74643    57673.003   -12801.908    941.56201    -13743.47     61.50525    242.23508 
   15500    79.357594   -255.07408    57736.681   -12767.614    961.33885   -13728.953    62.192015    247.32305 
   15550    76.679527   -601.00853    57761.199   -12756.736    928.89672   -13685.633    62.793318    238.97669 
   15600    77.460999   -574.95665    57766.967    -12759.13    938.36347   -13697.494    63.075241    241.41219 
   15650    77.658364   -589.74807    57805.409   -12764.382    940.75436   -13705.136    62.773209    242.02729 
   15700    76.643342   -995.15099    57760.513   -12753.209    928.45837   -13681.667    62.820206    238.86391 
   15750     79.04144   -878.42308    57789.715   -12751.761    957.50896    -13709.27    62.575893    246.33774 
   15800    77.570086   -783.13479    57784.049    -12752.81    939.68496   -13692.495    62.297024    241.75217 
   15850     75.75396   -909.06566    57825.209    -12763.58    917.68438   -13681.264    62.413928     236.0921 
   15900    76.031221    -1035.715    57780.911   -12792.691    921.04313   -13713.734    62.508756     236.9562 
   15950    76.926214     -778.554    57764.763   -12774.855    931.88508    -13706.74    62.805486     239.7455 
   16000    77.090579   -600.45463     57683.79   -12759.048     933.8762   -13692.924    63.179779    240.25775 
   16050    79.466195   -405.95318    57656.552   -12744.204    962.65445   -13706.858     63.50757    247.66152 
   16100    78.735546   -423.64331    57653.148   -12765.064    953.80335   -13718.868    63.036197     245.3844 
   16150    77.102603   -819.88607    57725.413   -12766.632    934.02186   -13700.654    63.070208    240.29523 
   16200    77.101721   -504.44445    57695.138   -12770.163    934.01118   -13704.174    63.167607    240.29248 
   16250    76.867041   -476.42298    57682.914     -12798.5    931.16826   -13729.669     63.53645    239.56108 
   16300    76.247314   -491.75679    57761.117   -12805.321    923.66088   -13728.982    63.882949    237.62966 
   16350    77.720395   -800.90681     57728.39   -12775.434     941.5058    -13716.94    64.455642    242.22062 
   16400    74.922746   -581.03777    57730.959   -12806.666    907.61505   -13714.281    64.819335    233.50157 
   16450    76.262891    -276.7417    57669.719   -12840.297    923.84959   -13764.147    65.248773    237.67821 
   16500      76.0713   -462.50275    57628.624   -12811.386    921.52865   -13732.914    65.835048    237.08111 
   16550    72.762432   -349.48516    57625.284   -12803.503    881.44498   -13684.948    65.985199    226.76881 
   16600    75.995806   -431.37697    57636.303   -12801.562    920.61411   -13722.176    66.307119    236.84583 
   16650    75.338137   -755.57509    57633.284   -12835.246    912.64709   -13747.893    66.643543    234.79616 
   16700    75.842273   -689.05808    57615.903   -12832.174    918.75421   -13750.928    66.705798    236.36733 
   16750     77.67535   -221.78479    57634.441   -12818.852    940.96012   -13759.812    66.566336    242.08023 
   16800    74.265187   -616.40725    57626.565   -12807.172    899.64937   -13706.821     66.52069    231.45224 
   16850    76.919387   -807.73823    57669.174   -12797.488    931.80238    -13729.29    66.797997    239.72422 
   16900    76.716107   -471.85316    57687.725   -12834.153    929.33984   -13763.493    66.943512    239.09069 
   16950    76.186668   -840.35473    57648.677   -12811.838    922.92621   -13734.764    67.247825    237.44066 
   17000    75.771298    -532.3152    57638.332    -12828.62    917.89441   -13746.515    67.233594    236.14613 
   17050    77.539912   -687.64916    57621.352   -12820.021    939.31942    -13759.34    67.377997    241.65813 
   17100    74.632752   -533.14417    57628.408   -12816.928    904.10205    -13721.03    67.209445    232.59778 
   17150    73.468287   -850.34626    57658.617   -12837.795    889.99572   -13727.791    67.627971    228.96865 
   17200    76.650391   -626.90825    57649.818   -12823.953    928.54376   -13752.496    67.890392    238.88588 
   17250    75.260503   -829.50688     57635.01   -12813.194    911.70664     -13724.9    67.936191    234.55421 
   17300    76.251835   -937.53369    57616.074   -12824.414    923.71564   -13748.129    68.057991    237.64375 
   17350    74.959622   -943.29827     57556.95   -12829.544    908.06176   -13737.606    68.606932    233.61649 
   17400    76.049285   -984.13627    57572.651    -12859.77    921.26195   -13781.032     68.74316     237.0125 
   17450    74.344833   -945.72585    57548.171   -12856.128     900.6142   -13756.742    68.985898    231.70046 
   17500    75.514979   -955.83435    57525.474   -12826.199    914.78936   -13740.988     69.58973     235.3473 
   17550    77.261202   -532.05838    57475.021   -12809.837    935.94313    -13745.78    69.461496    240.78951 
   17600    75.909061   -504.80745    57502.902   -12822.579    919.56328   -13742.142    69.432504    236.57548 
   17650    74.944904   -417.15318    57532.592   -12830.725    907.88347   -13738.608     69.67198    233.57062 
   17700    76.864143   -478.85721    57555.848   -12790.966    931.13315   -13722.099    70.431006    239.55205 
   17750     76.47661    -404.8907     57601.29   -12781.904    926.43858   -13708.343    70.645712    238.34428 
   17800    80.366889   -407.82234    57657.352   -12769.318    973.56546   -13742.883    70.789429    250.46859 
   17850    78.429707   -643.16258    57683.906   -12768.085    950.09841   -13718.183     71.49865    244.43123 
   17900    78.889606   -311.42169    57723.568   -12755.091    955.66963    -13710.76    71.704854    245.86454 
   17950    75.749403   -666.12311     57701.28   -12754.471    917.62919     -13672.1    71.950178     236.0779 
   18000    78.745787   -874.58004    57736.562   -12764.664    953.92741   -13718.592    71.849898    245.41632 
   18050    76.655005   -583.33187    57746.639   -12775.432    928.59966   -13704.031    71.970389    238.90026 
   18100    78.516744   -410.43329    57739.038   -12760.706    951.15279   -13711.859    71.893023    244.70249 
   18150    76.144332   -470.36337    57657.506   -12766.968    922.41335   -13689.382    72.055618    237.30872 
   18200    76.439459   -700.07466    57647.061   -12745.492    925.98853    -13671.48    71.990176     238.2285 
   18250    74.359494    19.518969    57629.887   -12757.638     900.7918   -13658.429    71.986394    231.74615 
   18300    76.470551   -610.76943    57640.084    -12749.31    926.36518   -13675.675    72.416587     238.3254 
   18350    76.169759   -753.11181    57664.804   -12753.167    922.72138   -13675.889    72.253498    237.38796 
   18400    73.779921   -707.21251    57669.698   -12770.301    893.77085   -13664.072    72.303984    229.93988 
   18450    78.036552    -389.0011    57646.811   -12755.559    945.33574   -13700.894    72.034578    243.20594 
   18500    76.922397    -688.0245    57655.244   -12735.151    931.83885    -13666.99    72.173213    239.73361 
   18550     78.23333   -213.88662    57602.378   -12768.179     947.7195   -13715.898    72.727805    243.81921 
   18600     74.72541   -696.12651    57642.301   -12783.866    905.22452   -13689.091    72.971483    232.88655 
   18650    76.363612   -566.94337      57558.4   -12793.164    925.06972   -13718.234    73.017975    237.99212 
   18700    77.613352   -360.26991    57505.964   -12764.198    940.20909   -13704.407    73.376395    241.88701 
   18750    77.965031   -579.81224    57526.335   -12745.803    944.46933   -13690.272    73.733716    242.98304 
   18800    77.818391   -408.61764    57562.786   -12737.668    942.69293   -13680.361    74.178205    242.52603 
   18850    77.969944   -677.64344    57604.362   -12755.713    944.52885   -13700.242    74.437638    242.99835 
   18900    77.191143   -411.10991    57670.184   -12752.006    935.09444     -13687.1    74.819064    240.57117 
   18950    78.271862   -460.22807    57691.155   -12715.986    948.18628   -13664.172    75.064535     243.9393 
   19000     79.46431   -490.43406    57742.481   -12718.227    962.63161   -13680.859    75.243916    247.65564 
   19050    77.221808   -608.50475     57760.82   -12708.607    935.46591   -13644.073    75.420405    240.66674 
   19100    79.258622   -849.49352    57717.006   -12688.761     960.1399   -13648.901     75.39361     247.0146 
   19150    78.606291   -413.28218    57711.743   -12730.281    952.23755   -13682.519    75.605992    244.98157 
   19200    78.153218   -624.66186    57688.299   -12720.665    946.74903   -13667.414    75.738509    243.56954 
   19250    75.352903   -699.04423    57671.668    -12742.17    912.82597   -13654.996    75.754593    234.84218 
   19300    78.815104   -854.81866    57634.672   -12725.142    954.76711   -13679.909    75.953932    245.63235 
   19350    78.162367    -939.8167    57600.511   -12766.075    946.85986   -13712.935     76.47192    243.59805 
   19400    77.215742   -549.80813    57566.169   -12774.355    935.39243   -13709.748     76.74076    240.64784 
   19450    76.318365   -684.36713    57570.831   -12761.301    924.52159   -13685.823    77.166039     237.8511 
   19500    76.856028   -476.14193    57580.734   -12741.226    931.03485   -13672.261    77.242342    239.52676 
   19550    73.756106   -604.32553    57595.311   -12754.878    893.48235   -13648.361    77.578586    229.86565 
   19600    74.736131   -425.01278    57633.213   -12759.408     905.3544   -13664.763    77.738633    232.91997 
   19650    76.066441   -593.86666    57654.531   -12774.257    921.46979   -13695.727    77.887076    237.06596 
   19700    76.897366   -631.42627    57626.136   -12762.237    931.53562   -13693.773     78.44809    239.65559 
   19750    76.297003   -445.40133    57615.974    -12743.76    924.26282   -13668.023      78.8293    237.78453 
   19800     78.82832   -687.19184    57614.527   -12787.174    954.92722   -13742.101    79.048367    245.67354 
   19850    74.626646   -933.35756    57569.902   -12798.235    904.02808   -13702.263    79.372938    232.57875 
   19900    74.878674   -927.78894    57537.303   -12785.312    907.08116   -13692.394    79.540854    233.36421 
   19950     75.82295   -841.34613    57497.173   -12774.481    918.52013   -13693.001    79.671907    236.30711 
   20000    77.893682   -546.16117    57510.739   -12774.708    943.60501   -13718.313    79.637146    242.76068 
   20050    75.770297   -415.44238    57516.191   -12779.877    917.88229   -13697.759    79.759882    236.14301 
   20100    77.933643   -899.46579    57551.912   -12763.265    944.08909   -13707.354    80.348338    242.88522 
   20150     77.99499   -512.88567    57561.747    -12725.03    944.83225   -13669.863    80.476512    243.07641 
   20200    77.780868   -181.40094    57576.352   -12728.448    942.23837   -13670.686    80.519321    242.40909 
   20250     79.88939   -342.99147    57602.751   -12739.065    967.78103   -13706.846     80.89118    248.98043 
   20300    79.263081    -464.1173    57600.721    -12726.69    960.19391   -13686.884    81.349867     247.0285 
   20350    80.798768    -765.9894    57599.825   -12736.407    978.79725   -13715.204    82.007838    251.81456 
   20400     79.81233    -394.6744    57635.163   -12769.267    966.84753   -13736.115    82.560725    248.74027 
   20450    79.669629   -625.61074    57664.936   -12724.091    965.11884    -13689.21    83.306375    248.29553 
   20500    74.906469   -554.41467     57689.57   -12732.242    907.41787    -13639.66    83.500386    233.45084 
   20550    81.241222   -455.34113    57717.369   -12700.196    984.15714   -13684.353    83.563702     253.1935 
   20600    79.591881   -411.29409    57688.961   -12685.543      964.177    -13649.72    83.450736    248.05322 
   20650    79.541923   -337.27624    57704.497   -12697.795    963.57182   -13661.367    82.987593    247.89753 
   20700    79.566245   -717.00927    57719.966   -12683.318    963.86645   -13647.184    82.630253    247.97333 
   20750    79.192074   -402.27089    57771.976   -12682.594    959.33373   -13641.928    82.666773     246.8072 
   20800    80.842014   -924.43188    57748.191   -12716.462    979.32113   -13695.783    82.542428    251.94934 
   20850    77.392793   -685.63986    57711.486   -12700.019    937.53722   -13637.556    82.302527    241.19962 
   20900    75.923285   -577.38325    57739.772   -12743.202    919.73559   -13662.938     82.35752    236.61981 
   20950    75.365735   -461.27069    57696.052   -12759.549    912.98142    -13672.53    82.618463    234.88217 
   21000    77.621345   -662.11561    57669.503   -12764.687    940.30591   -13704.993    82.794835    241.91192 
   21050    77.301775   -534.33627    57630.371   -12763.507    936.43463   -13699.942     83.15309    240.91596 
   21100    74.703534    -289.8239    57642.179   -12793.964    904.95951   -13698.924    83.352206    232.81838 
   21150     76.88406   -379.24233    57647.429   -12817.358    931.37443   -13748.732    83.476883    239.61413 
   21200    75.497876   -704.41645    57679.629   -12784.475    914.58218   -13699.057    83.950618    235.29399 
   21250    75.346684    -724.4062    57608.436     -12788.1    912.75064    -13700.85    84.263277     234.8228 
   21300    76.225443   -489.28297    57531.425   -12798.726    923.39593   -13722.122    84.296906     237.5615 
   21350    76.787647   -147.95877    57531.284   -12755.104    930.20648   -13685.311    84.281774    239.31365 
   21400    77.677556   -429.04198    57548.503   -12740.233    940.98685    -13681.22    84.521089    242.08711 
   21450    75.798838   -464.66194    57575.815   -12741.822    918.22804    -13660.05    84.633627    236.23196 
   21500    75.520612    -883.2634    57565.273   -12752.852     914.8576   -13667.709    84.645275    235.36485 
   21550    75.815102   -539.76864    57572.283   -12755.072    918.42506   -13673.497    84.827228    236.28265 
   21600    75.882241   -688.24581    57571.194    -12744.31    919.23838   -13663.548    85.286092    236.49189 
   21650    75.378494   -905.58527    57554.288   -12750.678    913.13598   -13663.814    85.186285    234.92193 
   21700    78.154149   -510.58625    57535.913   -12758.838    946.76031   -13705.598     85.17176    243.57244 
   21750     75.92811   -444.58502    57506.874   -12771.223    919.79404   -13691.017    85.557805    236.63485 
   21800    77.412266   -329.36505     57569.97   -12756.008    937.77312   -13693.781    85.390629    241.26031 
   21850     76.47836   -200.76515    57603.268   -12738.739    926.45978   -13665.198    85.358121    238.34974 
   21900    74.758381   -678.57722    57615.091   -12768.412    905.62393   -13674.036    85.131575    232.98931 
   21950    75.802939   -628.22001    57615.325   -12797.499    918.27772   -13715.777    85.337975    236.24474 
   22000    76.007688   -530.02381    57579.286    -12791.89    920.75805   -13712.648    85.703699    236.88286 
   22050    77.630336   -800.01236    57500.234   -12761.582    940.41483   -13701.997    85.687871    241.93994 
   22100    74.737754   -371.58697    57518.359   -12777.934    905.37405   -13683.308    86.202367    232.92503 
   22150    76.924497   -465.18335    57542.157   -12792.622    931.86429   -13724.486    86.175333    239.74015 
   22200    78.261156   -393.08472    57588.148   -12795.327    948.05659   -13743.384    86.494922    243.90594 
   22250    77.096365   -388.96844    57597.011   -12794.352     933.9463   -13728.299    86.969267    240.27579 
   22300     77.89191   -611.02933    57622.108   -12760.164    943.58354   -13703.747    86.898389    242.75516 
   22350    76.326558   -512.64463    57644.981   -12759.599    924.62084    -13684.22    87.211297    237.87663 
   22400    75.923301   -232.74223    57699.269   -12771.821    919.73578   -13691.557    87.346465    236.61986 
   22450    75.909446   -704.81163    57747.306   -12772.824    919.56795   -13692.392    87.810356    236.57668 
   22500    75.061562   -628.26046    57757.648    -12791.66    909.29667   -13700.957    87.829412    233.93419 
   22550    74.405209    -545.8289    57712.373     -12772.2     901.3456   -13673.545    88.258529    231.88863 
   22600    75.601118   -850.55173    57639.693   -12784.028    915.83286   -13699.861    88.221398    235.61576 
   22650    75.097279   -481.77684    57561.908   -12764.818    909.72935   -13674.547    88.199177    234.04551 
   22700    73.001975   -1056.7716      57519.7   -12794.139    884.34681   -13678.486    88.616085    227.51536 
   22750    76.571114   -289.68633    57496.437   -12791.441    927.58339   -13719.025    88.523198    238.63881 
   22800    77.494714   -289.01311    57513.055   -12770.614     938.7719   -13709.386    89.008222    241.51727 
   22850    76.760419   -212.31929    57496.282   -12759.732    929.87664   -13689.609    89.274383    239.22879 
   22900    77.673642   -426.08808    57506.809   -12763.842    940.93943   -13704.781    89.638749    242.07491 
   22950    77.204854   -599.29142    57513.776   -12749.384    935.26053   -13684.644    89.864725     240.6139 
   23000    77.752941   -802.87293    57477.408   -12766.736    941.90006   -13708.636    90.234436    242.32205 
   23050     77.07379   -356.12718    57536.885   -12741.554    933.67282   -13675.227    90.608989    240.20543 
   23100    79.433341   -1021.2698    57610.724   -12737.329    962.25645   -13699.585    91.003304    247.55912 
   23150    77.087915   -660.30716    57604.065   -12734.745    933.84393   -13668.589    91.222448    240.24945 
   23200    76.116382   -417.18186    57584.301   -12712.536    922.07477   -13634.611    91.654196    237.22161 
   23250    78.070575   -1092.3216    57627.198   -12721.466    945.74788   -13667.214    91.806987    243.31197 
   23300    77.410472   -488.11528    57604.184   -12725.389    937.75138    -13663.14     92.06679    241.25472 
   23350    76.923916   -838.54055    57571.473   -12709.705    931.85725   -13641.562    92.468786    239.73834 
   23400    77.858563   -856.00973    57555.675   -12697.716    943.17957   -13640.896    92.499022    242.65123 
   23450    77.847011   -1145.3452    57577.943   -12689.244    943.03963   -13632.283    93.088932    242.61522 
   23500    77.454812    64.665782    57595.804   -12725.728    938.28853   -13664.016    93.293159    241.39291 
   23550    76.483038   -678.41959     57590.76   -12723.385    926.51644   -13649.901    93.893588    238.36431 
   23600    75.900581   -575.70311    57566.748   -12737.183    919.46056   -13656.644    94.159374    236.54905 
   23650     76.00575   -660.52192    57621.511   -12722.283    920.73457   -13643.017    94.400673    236.87681 
   23700    77.304881    20.723029    57683.825   -12751.995    936.47226   -13688.467    94.853007    240.92564 
   23750    76.031378   -449.00852     57766.57    -12771.06    921.04503   -13692.105    95.160613    236.95669 
   23800    75.518535   -436.25307    57794.062   -12792.568    914.83245   -13707.401    95.380479    235.35838 
   23850    78.277457   -617.38657    57780.487   -12777.867    948.25405   -13726.121    96.019443    243.95674 
   23900    76.262422   -694.97405    57695.348   -12804.901     923.8439   -13728.744    96.008592    237.67675 
   23950    76.043895   -574.28539    57703.111   -12808.531    921.19666   -13729.728    96.061229     236.9957 
   24000    76.805793   -765.36383    57704.043   -12814.321     930.4263   -13744.748    96.997132     239.3702 
   24050    75.692451   -464.26608     57727.29   -12793.864    916.93926   -13710.804     97.43099     235.9004 
   24100    74.098264   -539.55711      57746.2   -12813.593    897.62726    -13711.22    97.693416    230.93201 
   24150    74.357728   -727.45993    57700.344   -12821.971    900.77042   -13722.742    97.547109    231.74065 
   24200    74.082377   -531.26551    57698.738   -12809.561    897.43481   -13706.996     97.29424     230.8825 
   24250    74.901059   -635.13726    57758.199   -12782.562    907.35233   -13689.914    97.347113    233.43398 
   24300    75.496848   -570.87947    57781.456   -12765.545    914.56973   -13680.114    97.616033    235.29079 
   24350    80.063576   -610.47998    57818.965   -12738.485    969.89113   -13708.376    97.736299    249.52329 
   24400    78.963881   -426.68455    57861.729   -12727.164    956.56941   -13683.734    97.538758    246.09602 
   24450    78.959513   -807.83852    57922.446   -12740.537    956.51649   -13697.053    97.447924    246.08241 
   24500    75.673023   -1018.7771    57876.271   -12747.707    916.70391   -13664.411    97.666027    235.83985 
   24550    76.594255   -763.72062    57807.081   -12769.123    927.86373   -13696.987    97.807574    238.71093 
   24600    77.524395   -483.41773    57821.463   -12770.151    939.13146   -13709.282    97.963295    241.60977 
   24650    74.314306   -606.30144     57831.37   -12788.245    900.24439   -13688.489    97.951506    231.60532 
   24700    76.442268   -675.72957    57800.388   -12786.362    926.02255   -13712.384    97.990308    238.23725 
   24750    75.994054    -866.9298    57797.665    -12781.48    920.59288   -13702.073    97.904897    236.84036 
   24800    75.327074    -898.3272    57819.976   -12780.355    912.51309   -13692.868    98.583379    234.76168 
   24850    75.616696   -863.50166     57808.78   -12810.883    916.02156   -13726.905    99.092037     235.6643 
   24900    74.295414   -649.98481    57824.752   -12799.126    900.01554   -13699.142    98.623046    231.54644 
   24950    75.159317   -717.93939    57845.327   -12770.621    910.48087   -13681.102    98.638791    234.23885 
   25000    76.049653   -878.27375    57788.274   -12760.375    921.26641   -13681.641     99.01167    237.01364 
   25050    76.457173   -801.67666    57799.248    -12749.34    926.20312   -13675.543    99.361197    238.28371 
   25100    75.294484   -819.40953    57839.319    -12743.17    912.11829   -13655.288     99.66555    234.66011 
   25150    73.408356   -980.52625    57847.981   -12767.513    889.26971   -13656.782    99.469566    228.78187 
   25200    77.638247   -777.69966    57820.529   -12766.449    940.51066    -13706.96    99.333275     241.9646 
   25250    78.669808   -999.50618    57744.012   -12775.678    953.00701   -13728.685    99.310229    245.17953 
   25300    74.183573   -533.60832    57693.117   -12798.959    898.66069    -13697.62    99.488267    231.19788 
   25350    77.594345   -504.42317    57708.055   -12769.745    939.97883   -13709.724    99.465032    241.82777 
   25400    79.233377   -252.27809    57689.307   -12737.159    959.83408   -13696.993    99.201983    246.93592 
   25450     77.58979   -537.23711    57679.613   -12740.191    939.92366   -13680.114    99.548609    241.81358 
   25500    79.880421   -709.14686    57727.833   -12730.421    967.67239   -13698.094    99.127414    248.95248 
   25550    78.387936    -257.3488    57714.778   -12712.038     949.5924   -13661.631    98.884763    244.30105 
   25600    77.963584    -468.6339    57712.262   -12721.235    944.45179   -13665.687    99.196516    242.97853 
   25650    79.371709   -517.58844    57688.946   -12745.449    961.50984   -13706.958    99.731848    247.36704 
   25700    76.280801   -715.94861    57695.366   -12763.683    924.06654   -13687.749    99.979931    237.73403 
   25750    76.750122   -697.11882    57693.627   -12753.003     929.7519   -13682.755    100.41881     239.1967 
   25800    75.962297   -717.29562    57712.439   -12753.234    920.20819   -13673.442    100.39906    236.74139 
   25850    77.811965   -500.49966    57720.576   -12747.719    942.61508   -13690.334    100.52899      242.506 
   25900    77.585833   -654.03193    57687.327   -12751.956    939.87572   -13691.832    100.92479    241.80125 
   25950    76.504136   -543.80142    57661.673   -12774.411    926.77202   -13701.183    101.11504    238.43007 
   26000    75.314974   -813.45938    57631.221    -12753.33    912.36651   -13665.697     100.8433    234.72397 
   26050    77.712085   -472.45223    57581.958   -12738.595    941.40513       -13680    100.90373    242.19472 
   26100    79.277737   -651.72292    57539.358   -12739.159    960.37147   -13699.531    100.71671    247.07418 
   26150    78.237392   -1231.9864    57539.911   -12720.558    947.76871   -13668.327    100.39805    243.83187 
   26200    77.847926   -625.59278    57526.406   -12740.481    943.05072   -13683.532    100.72547    242.61808 
   26250     78.06816   -815.00945    57539.716   -12715.969    945.71864   -13661.688    100.93983    243.30445 
   26300    77.255564   -807.34191    57494.043   -12731.041    935.87483   -13666.916    100.45108    240.77194 
   26350    75.345466   -326.32553    57465.207    -12747.51    912.73588   -13660.246    101.10601      234.819 
   26400    77.936363   -420.22041    57517.642   -12788.089    944.12205   -13732.211    100.87741     242.8937 
   26450    75.041113   -616.51255    57516.593   -12790.786    909.04895   -13699.835    100.75608    233.87046 
   26500    76.488529   -538.55474    57515.887   -12755.965    926.58296   -13682.548    101.23913    238.38143 
   26550    75.354104   -252.95555    57517.559   -12706.506    912.84052   -13619.347    101.50199    234.84592 
   26600    76.964428   -614.93359    57511.908   -12711.584    932.34801   -13643.932    101.40645     239.8646 
   26650    76.240926   -141.93841    57490.823   -12746.336    923.58349    -13669.92    101.44258    237.60976 
   26700    77.123874   -392.59047    57483.801   -12708.446    934.27954   -13642.725    101.68274    240.36152 
   26750    78.181794   -499.13435    57515.338   -12713.481     947.0952   -13660.576    101.69779     243.6586 
   26800    76.593027   -442.29814    57530.484   -12754.544    927.84885   -13682.393    102.10637     238.7071 
   26850    78.362575   -720.65545    57552.577   -12739.352    949.28517   -13688.637    102.30316    244.22201 
   26900     77.36858   -684.37087    57557.703   -12733.525    937.24391   -13670.769    102.36525    241.12416 
   26950    79.526944   -472.78967    57602.998   -12712.171    963.39036   -13675.561    102.51636    247.85084 
   27000    78.905693   -396.97358    57673.392   -12705.946    955.86451    -13661.81    102.36843    245.91467 
   27050    77.276879   -488.31199    57658.956   -12732.927    936.13304    -13669.06    102.32883    240.83837 
   27100    76.540172   -744.20476    57676.098   -12744.487    927.20856   -13671.696    102.79308    238.54238 
   27150    77.579822   -850.94814    57682.019   -12749.384     939.8029   -13689.187    102.91434    241.78251 
   27200    77.836769   -476.65511    57604.503    -12768.57    942.91555   -13711.486    103.01193     242.5833 
   27250    77.765277    -637.6109    57553.251    -12756.82     942.0495    -13698.87    102.68672    242.36049 
   27300    76.252899   -525.05393    57568.754   -12774.583    923.72854   -13698.312    103.23561    237.64707 
   27350    77.691659   -588.02574    57525.927    -12765.87    941.15769   -13707.027    103.15398    242.13106 
   27400    77.134622   -361.25195    57547.811   -12763.831    934.40974   -13698.241    103.15825    240.39502 
   27450     75.19758   -592.25103    57601.048   -12833.193    910.94439   -13744.138    103.05119     234.3581 
   27500    74.726144   -119.68253    57607.166   -12823.426    905.23341    -13728.66    103.45303    232.88884 
   27550    75.679488    -771.0456    57647.577   -12865.171    916.78223   -13781.954    103.94496       235.86 
   27600    73.777362   -731.87609    57646.422   -12856.975    893.73985   -13750.715    104.00174     229.9319 
   27650     74.74585   -650.98593    57642.358   -12857.237    905.47213   -13762.709    104.51493    232.95026 
   27700    73.902266   -580.15523    57623.819   -12809.963    895.25294   -13705.216    104.89611    230.32117 
   27750    76.428527   -272.30026    57633.204   -12849.293     925.8561   -13775.149    104.87641    238.19443 
   27800    75.019858   -676.99871    57685.403   -12818.188    908.79146    -13726.98     105.3987    233.80422 
   27850    75.002624   -42.089059    57693.843   -12822.915     908.5827   -13731.497    105.57236    233.75051 
   27900    74.486958   -886.77162    57765.266   -12799.565    902.33591     -13701.9     105.5514     232.1434 
   27950    78.097063    -575.2831    57745.203    -12814.33    946.06876   -13760.399    105.59116    243.39453 
   28000     76.45923   -383.38991    57736.627   -12828.363    926.22803   -13754.591    106.16785    238.29011 
   28050     75.51248   -780.93616    57777.005   -12843.339    914.75909   -13758.098    106.24401    235.33951 
   28100    76.125802   -739.75007    57710.613   -12815.003    922.18888   -13737.192    106.53601    237.25096 
   28150    76.728995   -441.13323    57702.659   -12817.207    929.49597   -13746.703    106.54775    239.13086 
   28200    77.267898    -563.4709    57707.175   -12824.795    936.02425   -13760.819      106.644    240.81038 
   28250    76.921257   -658.73172    57673.599   -12820.368    931.82503   -13752.193    107.17827    239.73005 
   28300    79.928907    -554.9155    57659.306   -12808.442    968.25974   -13776.701    107.40159    249.10359 
   28350    78.216479   -870.13173    57670.116    -12791.81    947.51537   -13739.325    107.20431     243.7667 
   28400    77.136931   -380.48033    57671.738    -12812.24    934.43771   -13746.677    106.88503    240.40221 
   28450    76.894648   -269.47144      57673.9    -12790.11     931.5027   -13721.613    106.34078    239.64713 
   28500    77.272464   -502.89136    57694.133   -12773.916    936.07956   -13709.995    106.34255    240.82461 
   28550    76.844199   -472.71506    57687.016   -12793.032    930.89155   -13723.923    106.04436     239.4899 
   28600    77.631002   -455.29477    57686.275    -12776.12    940.42289   -13716.542    106.57656    241.94202 
   28650    75.208851   -242.06284    57728.071   -12775.439    911.08093    -13686.52    106.73364    234.39323 
   28700    76.725654   -538.17976    57766.367   -12767.802     929.4555   -13697.258    106.92849    239.12044 
   28750    76.966266   -432.90124    57771.272    -12751.06    932.37027   -13683.431    107.16978    239.87032 
   28800    79.064251   -862.27683    57811.348   -12754.112    957.78529   -13711.898    107.61917    246.40883 
   28850    76.996675    -406.1307    57834.203   -12778.546    932.73864   -13711.285    107.30797     239.9651 
   28900    75.344555   -667.67513     57805.26   -12823.376    912.72485     -13736.1     107.4341    234.81616 
   28950    77.045081   -534.89593    57789.627   -12800.552    933.32504   -13733.877    107.79766    240.11596 
   29000    75.956579   -898.41565    57788.185   -12816.521    920.13891    -13736.66     108.0529    236.72357 
   29050    75.942003    3.6822996    57795.307   -12847.954    919.96234   -13767.916    108.16704    236.67814 
   29100    73.942306   -570.73453    57822.405   -12847.247    895.73798   -13742.985    108.05713    230.44596 
   29150    75.733871   -651.05665    57791.614    -12847.01    917.44103   -13764.451    108.33558    236.02949 
   29200    78.180946   -529.92844    57768.974    -12814.91    947.08492   -13761.995    108.55062    243.65595 
   29250     74.40012   -522.62421     57807.06   -12810.319    901.28396   -13711.603      108.511    231.87277 
   29300    79.545678   -341.25546    57871.938   -12773.344    963.61731   -13736.962    108.67427    247.90923 
   29350    82.123517    51.356863    57956.993   -12746.186    994.84528   -13741.031    108.95648    255.94323 
   29400    80.945825   -522.28157    57982.813   -12737.743    980.57869   -13718.322    108.74507    252.27288 
   29450    78.820156   -657.06619    57987.595   -12754.171    954.82832   -13708.999    109.34403    245.64809 
   29500    79.211699   -849.07193    57959.624   -12761.686    959.57148   -13721.258    109.64177    246.86836 
   29550    79.000938   -521.57897    57914.757   -12762.802    957.01832    -13719.82     109.2802    246.21151 
   29600    77.389748   -737.68828     57885.34   -12804.989    937.50034    -13742.49    109.82119    241.19014 
   29650    75.765216   -640.11745    57909.493   -12800.796    917.82074   -13718.617    110.10273    236.12718 
   29700    75.986076   -385.29892    57945.788   -12821.119    920.49624   -13741.615    110.47318     236.8155 
   29750    74.239001   -417.90549    57968.857    -12807.67    899.33216   -13707.002    110.85073    231.37063 
   29800    77.008365   -559.01917    57985.889   -12795.908    932.88026   -13728.788    111.09978    240.00153 
   29850    76.948244   -841.32926    57947.264   -12813.463    932.15195   -13745.615    111.01695    239.81416 
   29900    80.228142   -647.00255    57953.857   -12821.898    971.88467   -13793.782     111.3285    250.03617 
   29950    74.976034   -757.23081    57948.498   -12825.718    908.26057   -13733.979     111.6922    233.66764 
   30000    76.032319   -562.93249    57933.793   -12828.486    921.05643   -13749.542    111.78086    236.95962 
   30050    75.623771   -532.49648    57945.753   -12828.127    916.10727   -13744.235    111.46332    235.68635 
   30100    76.434975   -573.35242    57963.219   -12813.973    925.93421   -13739.907    111.44365    238.21452 
   30150    77.930376   -458.43017    57959.543   -12809.736    944.04952   -13753.786    111.36415    242.87504 
   30200    77.577445    -593.0895    57960.053    -12782.13    939.77411   -13721.904    111.78294    241.77511 
   30250    77.200667   -553.38868     57984.11   -12781.011    935.20981   -13716.221     111.7819    240.60085 
   30300    75.693443   -992.15657    57990.489    -12746.98    916.95128   -13663.931    111.34833    235.90349 
   30350    76.903711   -774.61333    57969.443   -12736.191    931.61248   -13667.803    111.57986    239.67537 
   30400    77.089608   -228.35367     57945.13   -12735.056    933.86445   -13668.921    111.81552    240.25473 
   30450    77.548458   -820.89324    57959.917   -12751.873    939.42295   -13691.296    112.34575    241.68476 
   30500    76.409538   -387.10488    57960.322   -12731.059    925.62607   -13656.685    112.40818    238.13525 
   30550    78.487659   -391.41201    57984.676   -12744.184    950.80044   -13694.984     112.4723    244.61184 
   30600    76.345692   -574.23125    57999.733   -12744.682    924.85263   -13669.534    113.18521    237.93627 
   30650    79.664172   -286.07589    57988.699   -12747.603    965.05273   -13712.656    113.37047    248.27852 
   30700    81.475901   -544.86339    57989.094   -12733.061    987.00004   -13720.061    113.89016    253.92489 
   30750    77.543847    -355.9524    57999.739   -12758.924     939.3671   -13698.291    114.29656    241.67039 
   30800    77.752217   -577.11724    57949.361   -12765.719     941.8913    -13707.61    114.71616    242.31979 
   30850    78.763742   -920.54238    57938.466   -12744.511    954.14492   -13698.656    115.28297    245.47228 
   30900    79.808088   -634.42577    57960.897   -12712.677    966.79615   -13679.473    115.76291    248.72705 
   30950    80.685085   -695.40935    57961.145   -12733.034    977.42009   -13710.454    115.92161    251.46026 
   31000    78.974298   -470.55763    57959.347   -12754.254    956.69559   -13710.949    116.07456    246.12849 
   31050     80.76904   -527.32568    57989.082   -12735.384    978.43712   -13713.822    116.29406    251.72191 
   31100    80.330435   -400.37488    57959.297   -12743.296    973.12386   -13716.419    116.08332    250.35498 
   31150    77.405846   -702.24143    57997.268   -12766.178    937.69535   -13703.874     115.9624     241.2403 
   31200    76.255057   -665.09331    57989.797    -12773.78    923.75468   -13697.534    116.72087     237.6538 
   31250    76.215865   -1109.6945    57998.492    -12799.47     923.2799    -13722.75    116.71042    237.53165 
   31300    77.159475   -539.60774    58021.386   -12784.429    934.71081    -13719.14    116.89137    240.47248 
   31350    77.704274   -1069.2284    58065.485   -12804.225    941.31051   -13745.536    117.11642    242.17037 
   31400    78.774941   -441.86856    58114.667   -12790.422    954.28058   -13744.703    117.20686    245.50718 
   31450    76.323152   -587.99901     58057.92   -12823.568    924.57958   -13748.148    117.09847    237.86602 
   31500     74.45664   -616.41984    58061.019       -12830    901.96864   -13731.969    116.67951    232.04892 
   31550    77.112427   -965.36362    58010.656   -12806.924    934.14087   -13741.065    116.64916    240.32585 
   31600    75.959618    -665.8473    57950.033    -12847.48    920.17573   -13767.656    116.74655    236.73304 
   31650    74.310658   -302.45528    57987.094   -12814.277    900.20021   -13714.478    116.91482    231.59395 
   31700    73.608216   -687.95414    58038.628   -12854.552    891.69081   -13746.243    116.67155    229.40475 
   31750    73.320907   -962.62381    57997.487   -12843.081    888.21035   -13731.291    116.36168    228.50933 
   31800    73.968196   -575.29158    58018.788     -12859.4    896.05162   -13755.452    116.42273    230.52665 
   31850    72.905343   -350.51554    58000.239   -12861.727     883.1762   -13744.903     116.5454     227.2142 
   31900    75.776285   -338.52771    57998.154    -12839.63    917.95483   -13757.585    116.87599    236.16167 
   31950     78.72934   -479.43008    58031.028   -12830.859    953.72817   -13784.588    117.54673    245.36506 
   32000    75.970285   -538.11156    58090.828   -12843.661    920.30495   -13763.966    117.98367    236.76629 
   32050    77.510072   -582.56665    58060.108   -12854.842    938.95795   -13793.799    118.22546    241.56513 
   32100    74.883643   -458.06709    58059.105   -12867.305    907.14135   -13774.446    118.32468     233.3797 
   32150    74.079096   -751.64286    58044.049   -12836.236    897.39506   -13733.631    118.78525    230.87228 
   32200    77.359025   -467.45454    58069.076   -12815.111    937.12816   -13752.239    119.11932    241.09438 
   32250    79.916653   -436.54935    58101.866   -12791.857     968.1113   -13759.968    119.51847     249.0654 
   32300    76.596112   -741.79865    58120.005   -12797.295    927.88622   -13725.181    119.33165    238.71672 
   32350    76.794675   -825.38199    58037.793   -12771.633    930.29162   -13701.925    119.03374    239.33555 
   32400    77.779362   -568.62535    58013.175   -12783.172    942.22013   -13725.392    119.35961    242.40439 
   32450    75.924673   -578.75094    58015.114   -12788.197     919.7524    -13707.95    119.69646    236.62413 
   32500    77.131214   -452.93903    58095.572   -12785.172    934.36845    -13719.54    120.16821     240.3844 
   32550    78.784566    -778.1948    58045.831   -12785.784    954.39719   -13740.181    120.66437    245.53718 
   32600    74.936946   -628.28694    57992.091   -12825.066    907.78707   -13732.853    120.74747    233.54582 
   32650    76.745429   -709.86286    57964.774   -12827.729    929.69505   -13757.424    120.97527    239.18207 
   32700    75.409206   -431.30436    57966.123   -12819.799    913.50803   -13733.307    120.96645    235.01765 
   32750    75.171824   -849.42697    57935.711   -12817.484    910.63238   -13728.116    120.77926    234.27783 
   32800    76.618785    -348.1636    57915.983   -12817.404    928.16089   -13745.565    120.94455    238.78738 
   32850    77.183133   -678.73229    57918.693   -12789.735    934.99741   -13724.732     121.2375    240.54621 
   32900    76.825949    -721.0867    57899.349   -12791.657    930.67047   -13722.328    121.35975    239.43302 
   32950    76.197961   -663.62988    57852.008   -12830.244    923.06301   -13753.307    121.67478    237.47585 
   33000    76.899033   -230.10046    57841.235   -12811.999    931.55581   -13743.555    121.77567    239.66079 
   33050    77.074482   -385.38819    57827.144   -12796.008    933.68121    -13729.69    122.15987    240.20759 
   33100    78.378251   -547.59442    57843.159   -12799.739    949.47508   -13749.214     121.9107    244.27087 
   33150    76.799836   -87.643833    57911.108     -12783.4    930.35414   -13713.754    121.86248    239.35164 
   33200    76.894838   -379.90922    57977.728    -12767.83    931.50499   -13699.335    122.26948    239.64772 
   33250    78.637219   -340.90752    58061.585   -12780.772    952.61222   -13733.384    122.52784    245.07796 
   33300     79.64238   -708.51686    58079.736   -12779.882    964.78876   -13744.671    122.35976    248.21061 
   33350    78.707671   -314.24526    58019.143   -12797.871    953.46568   -13751.337    122.95563    245.29753 
   33400    77.105845    -184.3655    58086.239    -12821.15    934.06114   -13755.212    123.28366    240.30533 
   33450    77.229944   -839.35102    58092.223   -12789.868    935.56448   -13725.432    123.99317     240.6921 
   33500     77.56836    -631.1694    58083.725   -12754.108    939.66405   -13693.772    123.88882    241.74679 
   33550    75.034896    -926.6556    58116.152   -12780.686    908.97363    -13689.66    124.29279    233.85109 
   33600    76.418534   -920.48419     58078.54   -12757.668    925.73505   -13683.403    124.87939    238.16329 
   33650    76.744872   -1004.7467    58062.143   -12768.766     929.6883   -13698.455    125.10447    239.18034 
   33700    74.914265   -474.95228    58044.052    -12787.92    907.51231   -13695.433     124.9659    233.47513 
   33750    78.257008   -972.70165    58101.597   -12799.612    948.00634   -13747.618    125.12977    243.89301 
   33800    75.714122   -651.73999    58149.859   -12789.708    917.20179    -13706.91    125.22203    235.96794 
   33850    77.604373   -1207.6481    58144.383    -12809.49    940.10031    -13749.59    125.59315    241.85903 
   33900    76.128074   -765.59356     58118.57   -12775.808    922.21641   -13698.025    125.29168    237.25805 
   33950    77.630448   -903.65536    58052.159   -12771.335    940.41618   -13711.751    125.17422    241.94029 
[...]
   92000    78.173425   -714.36626    57683.978   -12721.483    946.99382   -13668.476    302.10319    243.63252 
   92050    74.899756    -765.0675    57617.537   -12773.748    907.33654   -13681.085    302.05432    233.42991 
   92100    76.556789   -384.48658    57574.048   -12798.589    927.40986   -13725.999    301.85397    238.59416 
   92150    74.405568   -871.43369    57544.712   -12784.682    901.34995   -13686.032    302.06204    231.88975 
   92200    74.037681   -551.53801     57565.34   -12795.786    896.89336    -13692.68    301.94942     230.7432 
   92250    78.758635   -704.91597    57589.343    -12765.71    954.08306   -13719.793    301.99066    245.45636 
   92300    77.407151   -699.26712    57616.349   -12794.733    937.71116   -13732.444    301.98462    241.24437 
   92350    75.346351   -679.91107    57603.102    -12799.11    912.74661   -13711.856    302.54533    234.82176 
   92400    73.424494   -764.11297    57616.185    -12791.25    889.46521   -13680.715    302.47438    228.83217 
   92450    76.581681   -596.83208    57554.019   -12776.485    927.71141   -13704.196    301.76925    238.67174 
   92500    77.495959   -489.59004    57568.135   -12766.969    938.78698   -13705.756    301.99368    241.52115 
   92550    75.122051   -886.22947    57563.773    -12773.18    910.02943   -13683.209    302.49124    234.12271 
   92600    75.119656   -1044.9636    57542.053   -12772.907    910.00042   -13682.907    303.33294    234.11525 
   92650    75.753812   -790.52377    57541.587   -12787.995    917.68259   -13705.678    303.76213    236.09163 
   92700    75.350042   -748.25114    57598.738   -12792.013    912.79132   -13704.804    305.09379    234.83326 
   92750    75.605765   -595.92374    57675.296   -12807.387    915.88915   -13723.276     305.4346    235.63024 
   92800    75.458247   -591.46107    57666.237   -12798.657    914.10211   -13712.759    305.62911    235.17049 
   92850    77.736171   -822.63626    57721.112    -12775.11    941.69692   -13716.807    306.04557    242.26979 
   92900    74.940255   -395.45455    57749.451   -12778.906    907.82715   -13686.733    306.84983    233.55613 
   92950     75.79517   -907.54084    57711.863    -12794.45     918.1836   -13712.634    306.48422    236.22053 
   93000    77.675597   -314.15453    57649.346   -12777.211    940.96312   -13718.174    306.87502      242.081 
   93050    74.664008   -828.33447    57648.541   -12787.136    904.48069   -13691.617    307.77275    232.69519 
   93100    74.659378   -954.81933     57695.88   -12808.726     904.4246    -13713.15    308.95765    232.68076 
   93150    74.358461    -696.4246     57653.42    -12813.08    900.77929   -13713.859    309.04866    231.74293 
   93200    74.962435   -496.81434    57611.752   -12822.692    908.09584   -13730.788    308.75107    233.62526 
   93250    76.949769   -577.21106    57654.289   -12818.466    932.17043   -13750.636    308.65378    239.81891 
   93300    74.884932   -420.58971    57675.536    -12833.62    907.15696   -13740.777    308.76998    233.38371 
   93350    75.317659   -848.05011    57642.757   -12843.206    912.39903   -13755.605    309.15576    234.73234 
   93400    75.363012   -504.97373    57665.343    -12834.22    912.94844   -13747.168    309.28904    234.87368 
   93450    73.777246   -637.69774    57697.681   -12856.282    893.73845    -13750.02    309.11474    229.93154 
   93500    76.829778   -713.58165    57724.091   -12846.993    930.71686    -13777.71    308.96255    239.44495 
   93550     75.01918    -729.8409    57682.142   -12853.988    908.78325   -13762.771    309.66476    233.80211 
   93600     76.43294   -518.47366    57704.597   -12845.917    925.90956   -13771.827    310.09791    238.20818 
   93650    76.230311   -875.61965    57718.191   -12824.858    923.45491   -13748.313    310.93956    237.57668 
   93700    73.532627   -429.29922    57699.458   -12835.276    890.77513   -13726.051    311.19735    229.16917 
   93750    76.798426   -642.06998    57662.821    -12811.51    930.33705   -13741.847    310.66533    239.34724 
   93800    77.556219   -890.80781    57619.482   -12825.135    939.51697   -13764.652    310.36671    241.70895 
   93850    72.563395   -759.50919    57468.771    -12854.84    879.03385   -13733.874    310.34107     226.1485 
   93900    75.892724   -408.16885     57463.31   -12846.014    919.36537    -13765.38     310.4432    236.52456 
   93950    78.112162   -597.05313    57444.834   -12833.306    946.25167   -13779.558    310.62828    243.44158 
   94000    74.989662   -563.45603    57450.429    -12810.69    908.42567   -13719.116    311.37855    233.71011 
   94050    78.089958   -962.06892    57433.013   -12799.927     945.9827   -13745.909    311.20166    243.37239 
   94100    73.885742   -584.78691    57433.938   -12824.175    895.05276   -13719.227    310.91463    230.26967 
   94150    78.316636   -727.11189    57371.313   -12823.799    948.72868   -13772.528    310.78826    244.07884 
   94200    76.104366   -725.66453    57319.793   -12832.542     921.9292   -13754.471     310.9019    237.18416 
   94250    75.100205   -532.30847    57261.635   -12809.077    909.76478   -13718.841    310.85383    234.05463 
   94300    76.735966   -478.91255    57243.415   -12812.055    929.58041   -13741.635    310.62473    239.15258 
   94350    77.368302    -969.0504    57268.543   -12775.698    937.24054   -13712.939    310.30439     241.1233 
   94400    76.855109   -401.35619    57256.572   -12778.335    931.02372   -13709.359    310.36466     239.5239 
   94450     76.88019   -888.76538    57288.464    -12766.86    931.32755   -13698.187    311.53431    239.60206 
   94500    76.711592   -552.88357    57266.628   -12750.348    929.28515   -13679.633    311.47681    239.07662 
   94550    75.823979   -509.86325    57292.156   -12759.448    918.53259    -13677.98    311.91887    236.31031 
   94600    78.212457   -516.69887    57291.589   -12754.654    947.46665   -13702.121    312.23097    243.75416 
   94650    78.801548   -473.66632    57302.437    -12755.73     954.6029   -13710.333    312.60907     245.5901 
   94700    76.742703   -524.47322    57393.427   -12749.698    929.66203    -13679.36    313.06049    239.17358 
   94750    80.120435   -532.75829    57409.172   -12744.768    970.57991   -13715.347    313.12199     249.7005 
   94800    76.306809   -368.80778     57407.04   -12780.947     924.3816   -13705.328    313.08127    237.81508 
   94850    78.324435   -243.19992    57418.546   -12778.298    948.82315   -13727.121    312.97974    244.10315 
   94900    77.318243   -615.65649    57407.153   -12772.459    936.63412   -13709.093    313.95104    240.96728 
   94950    76.879529   -357.36877    57454.108   -12767.457    931.31954   -13698.777    313.37539        239.6 
   95000    76.987579   -1171.3284     57468.39   -12739.385    932.62846   -13672.014    313.90624    239.93675 
   95050    78.762225   -730.35442    57495.145   -12736.411    954.12655   -13690.537    313.27608    245.46755 
   95100    77.958936   -742.07198     57471.31   -12733.152    944.39549   -13677.547    313.89842    242.96405 
   95150    77.862906   -675.89141    57502.823   -12758.614    943.23218   -13701.846    314.41107    242.66476 
   95200    76.860135   -672.35454     57514.33   -12754.997    931.08461   -13686.082    314.35265    239.53956 
   95250    75.312626   -759.07297    57495.054   -12757.044    912.33806   -13669.382    314.30914    234.71665 
   95300    77.619799   -587.59234    57530.259   -12757.043    940.28718    -13697.33    314.03479     241.9071 
   95350    77.877103   -542.58847    57564.826   -12744.559    943.40416   -13687.963    314.49313    242.70901 
   95400    78.194985   -744.65151    57585.877   -12730.017    947.25499   -13677.272    314.16799    243.69971 
   95450     74.86809   -695.00595    57569.174   -12757.873    906.95294   -13664.826    314.23291    233.33123 
   95500     76.62453   -488.74741    57586.248   -12774.755    928.23048   -13702.985    314.61052    238.80528 
   95550    75.499144   -874.06814    57575.313   -12789.358    914.59754   -13703.955    314.58404    235.29795 
   95600    75.910041   -693.49785    57584.381   -12766.517    919.57516   -13686.093    316.00261    236.57853 
   95650    77.552943   -443.17428    57517.147   -12778.734    939.47728   -13718.211    315.22814    241.69874 
   95700    79.032091   -709.27217    57515.698   -12763.649    957.39571   -13721.045    315.23531     246.3086 
   95750    77.149596   -823.98041    57490.275   -12784.737    934.59113   -13719.328    314.76375    240.44169 
   95800    76.723962   -372.71792     57506.22   -12785.036      929.435   -13714.471     314.4295    239.11517 
   95850    76.097068   -639.10154    57482.405   -12795.062     921.8408   -13716.903    314.61694    237.16141 
   95900    79.439349   -721.83065     57499.72   -12798.153    962.32923   -13760.483    315.21119    247.57785 
   95950    79.001495   -40.704952    57532.316   -12770.572    957.02506   -13727.597    315.11829    246.21325 
   96000    74.830687   -872.10455    57522.976   -12803.181    906.49985   -13709.681    315.22162    233.21466 
   96050    77.814639   -407.47623    57553.233   -12799.901    942.64748   -13742.548    315.36449    242.51434 
   96100    78.031102   -627.88254    57557.349   -12789.738    945.26971   -13735.008    315.45304    243.18896 
   96150    76.544534   -831.17159    57575.919   -12813.452     927.2614   -13740.713    314.99342    238.55597 
   96200    79.344105    -932.3318    57595.135   -12790.072    961.17544   -13751.247    315.11093    247.28101 
   96250    75.796061   -617.67945    57607.622   -12798.818    918.19439   -13717.012    315.67583    236.22331 
   96300    75.855005   -722.03838    57596.739   -12796.616    918.90844   -13715.524    315.85777    236.40701 
   96350    76.205894   -1075.1732    57612.665   -12789.944    923.15912   -13713.103    316.14499    237.50058 
   96400     77.20229   -621.10769    57583.754    -12780.26    935.22947    -13715.49    316.35676    240.60591 
   96450     77.27847   -783.29703    57535.502   -12805.033    936.15232   -13741.185    316.59066    240.84333 
   96500    75.537082    -613.8378    57548.768   -12800.401    915.05712   -13715.458     316.0308    235.41618 
   96550    77.279429   -750.72065    57574.195   -12755.001    936.16394   -13691.165     316.7782    240.84632 
   96600    76.840304   -742.56827    57529.624   -12753.642    930.84437   -13684.486    316.72392    239.47776 
   96650    74.575969   -672.69287    57497.877   -12783.224    903.41419   -13686.639    317.12108    232.42081 
   96700    76.517698   -388.33465    57478.245   -12786.081    926.93631   -13713.017    317.15939    238.47233 
   96750    74.615859   -757.25937      57482.6   -12817.809    903.89741   -13721.706    316.15886    232.54513 
   96800    74.265665    -625.5462    57442.099   -12809.271    899.65516   -13708.926    316.69822    231.45373 
   96850    77.227297   -268.50233    57474.942   -12796.183    935.53241   -13731.715    317.79839    240.68385 
   96900    78.306189   -548.27018    57486.749   -12812.912    948.60211   -13761.515    318.40248    244.04628 
   96950    76.313731   -649.05151    57540.056   -12827.005    924.46545    -13751.47     318.2521    237.83666 
   97000    71.977838   -389.22986    57554.669   -12848.357     871.9404   -13720.297    318.74557    224.32357 
   97050     73.87931   -903.87333    57593.698   -12846.318    894.97485   -13741.293    318.65923    230.24963 
   97100    71.418094   -843.14633    57602.276   -12861.905    865.15965   -13727.064    318.62542    222.57909 
   97150    74.601417   -806.78034    57582.972   -12824.935    903.72246   -13728.658    319.12602    232.50012 
   97200    74.251301    -636.1366    57517.523   -12791.349    899.48116   -13690.831    318.91006    231.40896 
   97250    76.980461   -565.60512    57498.126    -12780.12    932.54224   -13712.662    319.39373    239.91457 
   97300    75.544975   -381.02812    57478.021   -12779.427    915.15273    -13694.58    319.14655    235.44078 
   97350    77.321089   -724.53349    57454.022   -12734.506     936.6686   -13671.174    318.70536    240.97615 
   97400    77.263668   -509.27446    57431.124   -12753.495    935.97301   -13689.468    318.14578     240.7972 
   97450    76.475053    -737.5172    57432.784   -12750.366    926.41971   -13676.786    317.61323    238.33943 
   97500    78.891376   -258.90586    57418.763   -12725.914    955.69108   -13681.606    318.38318    245.87006 
   97550    76.325499   -350.11259    57422.476   -12744.839    924.60801   -13669.447    318.52664    237.87333 
   97600    80.129147   -560.04911    57390.975   -12734.603    970.68545   -13705.288    318.23953    249.72765 
   97650    76.317442   -428.74402    57356.696   -12753.354    924.51041   -13677.865    318.86342    237.84822 
   97700     78.45054   -969.55895    57382.185   -12693.803    950.35078   -13644.153    318.20764    244.49616 
   97750      77.6543   -204.77369     57434.94   -12720.076    940.70512   -13660.781    318.86749    242.01463 
   97800    79.754487   -504.87657    57433.747   -12702.739    966.14682   -13668.885    320.13605       248.56 
   97850    75.287624   -450.65914    57430.816   -12718.843    912.03518   -13630.878    320.58869    234.63873 
   97900    76.605327   -267.89756    57478.706   -12710.073    927.99785   -13638.071    321.53351    238.74544 
   97950    78.832198   -599.21159    57521.251   -12710.814     954.9742   -13665.788    321.47489    245.68562 
   98000    80.922804   -244.27582    57526.213   -12658.595    980.29983   -13638.895     321.7671    252.20113 
   98050    79.184683   -497.12621     57536.34   -12662.431    959.24421   -13621.675     322.1532    246.78417 
   98100    78.417589    21.069264    57572.681   -12690.317    949.95161   -13640.269     322.5019    244.39347 
   98150    78.319664   -75.782229    57594.238   -12721.114    948.76536   -13669.879    322.47224    244.08828 
   98200    78.479519   -524.65995     57659.67   -12723.857    950.70184   -13674.558    322.76256    244.58648 
   98250    78.840519   -506.65256    57663.814   -12719.333      955.075   -13674.408    322.99453    245.71156 
   98300    79.109221   -757.84565    57672.361    -12730.53    958.33005   -13688.861    323.02732    246.54898 
   98350    75.603071   -300.50156    57646.368    -12717.55    915.85651   -13633.407    323.48276    235.62184 
   98400    78.560648    -224.4895    57635.424    -12758.68    951.68463   -13710.365    323.38274    244.83932 
   98450     76.34555   -329.66686    57647.126   -12758.927    924.85091   -13683.778    323.11064    237.93582 
   98500    78.101838   -408.72093    57698.881   -12759.233    946.12661    -13705.36    322.91115    243.40941 
   98550    79.575173   -225.53833    57703.973   -12762.211     963.9746   -13726.185    322.13941    248.00115 
   98600    74.842482   -319.02858    57696.389   -12781.659    906.64273   -13688.302    322.21276    233.25142 
   98650    77.935943   -731.02327    57733.295   -12769.638    944.11695   -13713.755    323.32552    242.89239 
   98700    78.203542    -392.6856    57710.675    -12786.17    947.35864   -13733.529    323.51066    243.72637 
   98750    74.979755   -865.39706    57693.899   -12799.619    908.30565   -13707.924    323.41579    233.67924 
   98800    75.740346   -348.99923    57654.623   -12783.824    917.51947   -13701.343    323.23604    236.04967 
   98850     74.75242   -673.04189    57622.568   -12818.812    905.55171   -13724.364     323.9223    232.97073 
   98900    72.084795   -638.87652    57606.892   -12831.793    873.23608   -13705.029     323.8142    224.65691 
   98950    73.810261   -438.82864    57572.396   -12829.266    894.13839   -13723.404    323.86073    230.03443 
   99000    76.768817   -181.48218    57550.471   -12828.401    929.97838    -13758.38    323.54766    239.25496 
   99050    73.559257   -444.02174    57554.269   -12865.194    891.09772   -13756.291    324.40489    229.25216 
   99100    73.771506   -63.160909    57602.085   -12825.284    893.66892   -13718.953    323.65316    229.91365 
   99150    74.638431   -317.56788    57677.579   -12812.201    904.17086   -13716.372    324.09549    232.61548 
   99200    75.187864   -79.858637    57739.374   -12804.694    910.82669   -13715.521    324.29705    234.32782 
   99250    73.693248   -676.18414    57742.196    -12798.66    892.72089   -13691.381    324.63603    229.66975 
   99300    74.269523   -478.06567    57725.859   -12797.782     899.7019   -13697.484     325.7895    231.46575 
   99350    74.281766   -150.36523    57701.434    -12777.33    899.85021    -13677.18    326.27015    231.50391 
   99400    76.006301   -135.13026    57739.661   -12771.437    920.74125   -13692.179    326.16199    236.87853 
   99450    75.288416   -386.95811    57725.827   -12774.444    912.04478   -13686.489    327.02673     234.6412 
   99500    76.631858   -843.64095    57736.539   -12776.019    928.31925   -13704.338    327.33156    238.82812 
   99550    76.418281   -509.66779    57709.222   -12790.276    925.73198   -13716.008    327.64859     238.1625 
   99600    75.604031   -415.48362    57750.878   -12797.809    915.86814   -13713.677    327.44774    235.62483 
   99650    75.723851   -724.62006    57687.173   -12793.669    917.31964   -13710.989    327.70311    235.99826 
   99700    77.484264   -396.50271     57666.75   -12784.607    938.64531   -13723.252    327.67761     241.4847 
   99750    75.859276   -556.09822    57666.078   -12768.863    918.96018   -13687.823    327.51185    236.42032 
   99800    76.906429   -724.21953    57672.849   -12770.369     931.6454   -13702.014    327.18647    239.68384 
   99850    76.453245   -543.54287    57627.323       -12790    926.15553   -13716.156    327.67491    238.27146 
   99900    78.153315   -748.87083    57577.553   -12774.189     946.7502   -13720.939      328.187    243.56984 
   99950    78.519892   -575.83735    57572.283   -12743.195    951.19091   -13694.386    328.59802     244.7123 
  100000    79.382078   -225.42168    57588.802   -12774.548    961.63545   -13736.184    328.66013    247.39936 
Loop time of 64.8661 on 48 procs for 100000 steps with 4065 atoms

Performance: 665.987 ns/day, 0.036 hours/ns, 1541.637 timesteps/s
99.9% CPU use with 48 MPI tasks x no OpenMP threads

MPI task timing breakdown:
Section |  min time  |  avg time  |  max time  |%varavg| %total
---------------------------------------------------------------
Pair    | 35.618     | 39.582     | 45.058     |  57.8 | 61.02
Neigh   | 0.75838    | 1.759      | 3.0982     |  74.2 |  2.71
Comm    | 10.707     | 16.81      | 21.765     | 104.4 | 25.91
Output  | 0.10322    | 0.10723    | 0.19944    |   4.1 |  0.17
Modify  | 4.9917     | 5.8051     | 6.9285     |  18.4 |  8.95
Other   |            | 0.8028     |            |       |  1.24

Nlocal:    84.6875 ave 137 max 39 min
Histogram: 24 0 0 0 0 0 0 5 7 12
Nghost:    859.562 ave 907 max 790 min
Histogram: 7 1 1 4 5 4 9 1 0 16
Neighs:    0 ave 0 max 0 min
Histogram: 48 0 0 0 0 0 0 0 0 0
FullNghs:  9394.17 ave 17755 max 2073 min
Histogram: 24 0 0 0 0 0 0 2 9 13

Total # of neighbors = 450920
Ave neighs/atom = 110.927
Neighbor list builds = 5515
Dangerous builds = 0

write_data		${DIR}/data.eq-${NAME}-${TEMP}
write_data		run_3/data.eq-${NAME}-${TEMP}
write_data		run_3/data.eq-het_freeze_3-${TEMP}
write_data		run_3/data.eq-het_freeze_3-240
undump          1

reset_timestep  0

unfix           2
unfix           3
unfix           4


################################################
#######         Run Simulation         #########
################################################

log				${DIR}/log.run_${NAME}
log				run_3/log.run_${NAME}
log				run_3/log.run_het_freeze_3
