LAMMPS data file via write_data, version 16 Mar 2018, timestep = 100000

4560 atoms
2 atom types

0.0000000000000000e+00 4.9219999999999999e+01 xlo xhi
0.0000000000000000e+00 4.9019635930410494e+01 ylo yhi
1.2185817168269963e+00 3.2721418283173115e+01 zlo zhi

Masses

1 18.015
2 12.01

Atoms # atomic

147 2 0.0000000000000000e+00 2.8417180249513345e+00 3.3068894295804343e+00 0 0 0
149 2 0.0000000000000000e+00 0.0000000000000000e+00 3.3068894295804343e+00 0 0 0
151 2 1.2305000000000001e+00 7.1042950623783474e-01 3.3068894295804343e+00 0 0 0
158 2 1.2305000000000001e+00 2.1312885187134998e+00 3.3068894295804343e+00 0 0 0
160 2 2.4610000000000003e+00 2.8417180249513345e+00 3.3068894295804343e+00 0 0 0
162 2 2.4610000000000003e+00 0.0000000000000000e+00 3.3068894295804343e+00 0 0 0
164 2 3.6915000000000004e+00 7.1042950623783474e-01 3.3068894295804343e+00 0 0 0
179 2 3.6914999999999996e+00 2.1312885187134998e+00 3.3068894295804343e+00 0 0 0
181 2 4.9220000000000006e+00 2.8417180249513332e+00 3.3068894295804343e+00 0 0 0
183 2 4.9220000000000006e+00 0.0000000000000000e+00 3.3068894295804343e+00 0 0 0
185 2 6.1524999999999999e+00 7.1042950623783407e-01 3.3068894295804343e+00 0 0 0
208 2 6.1524999999999999e+00 2.1312885187134989e+00 3.3068894295804343e+00 0 0 0
210 2 7.3829999999999991e+00 2.8417180249513345e+00 3.3068894295804343e+00 0 0 0
212 2 7.3829999999999991e+00 0.0000000000000000e+00 3.3068894295804343e+00 0 0 0
214 2 8.6134999999999984e+00 7.1042950623783407e-01 3.3068894295804343e+00 0 0 0
245 2 8.6134999999999984e+00 2.1312885187135002e+00 3.3068894295804343e+00 0 0 0
247 2 9.8440000000000012e+00 2.8417180249513332e+00 3.3068894295804343e+00 0 0 0
249 2 9.8440000000000012e+00 0.0000000000000000e+00 3.3068894295804343e+00 0 0 0
251 2 1.1074500000000002e+01 7.1042950623783330e-01 3.3068894295804343e+00 0 0 0
290 2 1.1074500000000002e+01 2.1312885187135002e+00 3.3068894295804343e+00 0 0 0
154 2 0.0000000000000000e+00 4.2625770374269996e+00 3.3068894295804343e+00 0 0 0
156 2 1.2305000000000001e+00 4.9730065436648339e+00 3.3068894295804343e+00 0 0 0
171 2 1.2305000000000001e+00 6.3938655561404980e+00 3.3068894295804343e+00 0 0 0
175 2 2.4610000000000003e+00 4.2625770374269996e+00 3.3068894295804343e+00 0 0 0
177 2 3.6914999999999996e+00 4.9730065436648339e+00 3.3068894295804343e+00 0 0 0
200 2 3.6914999999999996e+00 6.3938655561404980e+00 3.3068894295804343e+00 0 0 0
152 2 0.0000000000000000e+00 7.1042950623783341e+00 3.3068894295804343e+00 0 0 0
173 2 2.4610000000000003e+00 7.1042950623783341e+00 3.3068894295804343e+00 0 0 0
204 2 4.9220000000000006e+00 4.2625770374269978e+00 3.3068894295804343e+00 0 0 0
206 2 6.1524999999999999e+00 4.9730065436648339e+00 3.3068894295804343e+00 0 0 0
237 2 6.1524999999999999e+00 6.3938655561404980e+00 3.3068894295804343e+00 0 0 0
241 2 7.3829999999999991e+00 4.2625770374269996e+00 3.3068894295804343e+00 0 0 0
202 2 4.9220000000000006e+00 7.1042950623783341e+00 3.3068894295804343e+00 0 0 0
239 2 7.3830000000000009e+00 7.1042950623783341e+00 3.3068894295804343e+00 0 0 0
243 2 8.6135000000000002e+00 4.9730065436648339e+00 3.3068894295804343e+00 0 0 0
282 2 8.6135000000000002e+00 6.3938655561404980e+00 3.3068894295804343e+00 0 0 0
286 2 9.8440000000000012e+00 4.2625770374270004e+00 3.3068894295804343e+00 0 0 0
288 2 1.1074500000000002e+01 4.9730065436648339e+00 3.3068894295804343e+00 0 0 0
329 2 1.1074500000000002e+01 6.3938655561404980e+00 3.3068894295804343e+00 0 0 0
284 2 9.8440000000000012e+00 7.1042950623783341e+00 3.3068894295804343e+00 0 0 0
167 2 0.0000000000000000e+00 8.5251540748539991e+00 3.3068894295804343e+00 0 0 0
169 2 1.2305000000000001e+00 9.2355835810918343e+00 3.3068894295804343e+00 0 0 0
196 2 2.4610000000000003e+00 8.5251540748539991e+00 3.3068894295804343e+00 0 0 0
198 2 3.6915000000000004e+00 9.2355835810918343e+00 3.3068894295804343e+00 0 0 0
165 2 0.0000000000000000e+00 1.1366872099805333e+01 3.3068894295804343e+00 0 0 0
192 2 1.2305000000000001e+00 1.0656442593567498e+01 3.3068894295804343e+00 0 0 0
194 2 2.4610000000000003e+00 1.1366872099805333e+01 3.3068894295804343e+00 0 0 0
229 2 3.6914999999999996e+00 1.0656442593567499e+01 3.3068894295804343e+00 0 0 0
233 2 4.9220000000000006e+00 8.5251540748539991e+00 3.3068894295804343e+00 0 0 0
235 2 6.1524999999999999e+00 9.2355835810918343e+00 3.3068894295804343e+00 0 0 0
278 2 7.3830000000000009e+00 8.5251540748539991e+00 3.3068894295804343e+00 0 0 0
231 2 4.9220000000000006e+00 1.1366872099805333e+01 3.3068894295804343e+00 0 0 0
274 2 6.1524999999999999e+00 1.0656442593567499e+01 3.3068894295804343e+00 0 0 0
276 2 7.3829999999999991e+00 1.1366872099805333e+01 3.3068894295804343e+00 0 0 0
280 2 8.6134999999999984e+00 9.2355835810918343e+00 3.3068894295804343e+00 0 0 0
325 2 9.8440000000000012e+00 8.5251540748539956e+00 3.3068894295804343e+00 0 0 0
327 2 1.1074500000000002e+01 9.2355835810918343e+00 3.3068894295804343e+00 0 0 0
321 2 8.6134999999999984e+00 1.0656442593567498e+01 3.3068894295804343e+00 0 0 0
323 2 9.8440000000000012e+00 1.1366872099805333e+01 3.3068894295804343e+00 0 0 0
368 2 1.1074500000000002e+01 1.0656442593567498e+01 3.3068894295804343e+00 0 0 0
370 2 1.2304999999999998e+01 1.1366872099805333e+01 3.3068894295804343e+00 0 0 0
148 2 0.0000000000000000e+00 1.4208590124756650e+00 6.3034285555328200e+00 0 0 0
150 2 0.0000000000000000e+00 0.0000000000000000e+00 6.3034285555328200e+00 0 0 0
159 2 1.2305000000000001e+00 2.1312885187134998e+00 6.3034285555328200e+00 0 0 0
161 2 2.4610000000000003e+00 1.4208590124756650e+00 6.3034285555328200e+00 0 0 0
163 2 2.4610000000000003e+00 0.0000000000000000e+00 6.3034285555328200e+00 0 0 0
180 2 3.6914999999999996e+00 2.1312885187134998e+00 6.3034285555328200e+00 0 0 0
157 2 1.2305000000000001e+00 3.5521475311891644e+00 6.3034285555328200e+00 0 0 0
178 2 3.6914999999999996e+00 3.5521475311891644e+00 6.3034285555328200e+00 0 0 0
182 2 4.9220000000000006e+00 1.4208590124756650e+00 6.3034285555328200e+00 0 0 0
184 2 4.9220000000000006e+00 0.0000000000000000e+00 6.3034285555328200e+00 0 0 0
209 2 6.1524999999999999e+00 2.1312885187134989e+00 6.3034285555328200e+00 0 0 0
211 2 7.3829999999999991e+00 1.4208590124756659e+00 6.3034285555328200e+00 0 0 0
213 2 7.3829999999999991e+00 0.0000000000000000e+00 6.3034285555328200e+00 0 0 0
207 2 6.1524999999999999e+00 3.5521475311891644e+00 6.3034285555328200e+00 0 0 0
246 2 8.6134999999999984e+00 2.1312885187135002e+00 6.3034285555328200e+00 0 0 0
248 2 9.8440000000000012e+00 1.4208590124756659e+00 6.3034285555328200e+00 0 0 0
250 2 9.8440000000000012e+00 0.0000000000000000e+00 6.3034285555328200e+00 0 0 0
291 2 1.1074500000000002e+01 2.1312885187135002e+00 6.3034285555328200e+00 0 0 0
244 2 8.6134999999999984e+00 3.5521475311891657e+00 6.3034285555328200e+00 0 0 0
289 2 1.1074500000000002e+01 3.5521475311891644e+00 6.3034285555328200e+00 0 0 0
153 2 0.0000000000000000e+00 5.6834360499026637e+00 6.3034285555328200e+00 0 0 0
155 2 0.0000000000000000e+00 4.2625770374269996e+00 6.3034285555328200e+00 0 0 0
172 2 1.2305000000000001e+00 6.3938655561404980e+00 6.3034285555328200e+00 0 0 0
174 2 2.4610000000000003e+00 5.6834360499026637e+00 6.3034285555328200e+00 0 0 0
176 2 2.4610000000000003e+00 4.2625770374269996e+00 6.3034285555328200e+00 0 0 0
201 2 3.6914999999999996e+00 6.3938655561404980e+00 6.3034285555328200e+00 0 0 0
170 2 1.2305000000000001e+00 7.8147245686161639e+00 6.3034285555328200e+00 0 0 0
199 2 3.6914999999999996e+00 7.8147245686161639e+00 6.3034285555328200e+00 0 0 0
203 2 4.9220000000000006e+00 5.6834360499026637e+00 6.3034285555328200e+00 0 0 0
205 2 4.9220000000000006e+00 4.2625770374269978e+00 6.3034285555328200e+00 0 0 0
238 2 6.1524999999999999e+00 6.3938655561404980e+00 6.3034285555328200e+00 0 0 0
240 2 7.3829999999999991e+00 5.6834360499026637e+00 6.3034285555328200e+00 0 0 0
242 2 7.3829999999999991e+00 4.2625770374269996e+00 6.3034285555328200e+00 0 0 0
236 2 6.1524999999999999e+00 7.8147245686161639e+00 6.3034285555328200e+00 0 0 0
283 2 8.6135000000000002e+00 6.3938655561404980e+00 6.3034285555328200e+00 0 0 0
285 2 9.8440000000000012e+00 5.6834360499026637e+00 6.3034285555328200e+00 0 0 0
287 2 9.8440000000000012e+00 4.2625770374270004e+00 6.3034285555328200e+00 0 0 0
330 2 1.1074500000000002e+01 6.3938655561404980e+00 6.3034285555328200e+00 0 0 0
281 2 8.6135000000000002e+00 7.8147245686161639e+00 6.3034285555328200e+00 0 0 0
328 2 1.1074500000000002e+01 7.8147245686161639e+00 6.3034285555328200e+00 0 0 0
166 2 0.0000000000000000e+00 9.9460130873296642e+00 6.3034285555328200e+00 0 0 0
168 2 0.0000000000000000e+00 8.5251540748539991e+00 6.3034285555328200e+00 0 0 0
195 2 2.4610000000000003e+00 9.9460130873296642e+00 6.3034285555328200e+00 0 0 0
197 2 2.4610000000000003e+00 8.5251540748539991e+00 6.3034285555328200e+00 0 0 0
191 2 1.2305000000000001e+00 1.2077301606043163e+01 6.3034285555328200e+00 0 0 0
193 2 1.2305000000000001e+00 1.0656442593567498e+01 6.3034285555328200e+00 0 0 0
228 2 3.6914999999999996e+00 1.2077301606043163e+01 6.3034285555328200e+00 0 0 0
230 2 3.6914999999999996e+00 1.0656442593567499e+01 6.3034285555328200e+00 0 0 0
232 2 4.9220000000000006e+00 9.9460130873296642e+00 6.3034285555328200e+00 0 0 0
234 2 4.9220000000000006e+00 8.5251540748539991e+00 6.3034285555328200e+00 0 0 0
277 2 7.3830000000000009e+00 9.9460130873296642e+00 6.3034285555328200e+00 0 0 0
279 2 7.3830000000000009e+00 8.5251540748539991e+00 6.3034285555328200e+00 0 0 0
273 2 6.1524999999999999e+00 1.2077301606043163e+01 6.3034285555328200e+00 0 0 0
275 2 6.1524999999999999e+00 1.0656442593567499e+01 6.3034285555328200e+00 0 0 0
369 2 1.1074500000000002e+01 1.0656442593567498e+01 6.3034285555328200e+00 0 0 0
324 2 9.8440000000000012e+00 9.9460130873296642e+00 6.3034285555328200e+00 0 0 0
326 2 9.8440000000000012e+00 8.5251540748539956e+00 6.3034285555328200e+00 0 0 0
320 2 8.6135000000000002e+00 1.2077301606043163e+01 6.3034285555328200e+00 0 0 0
322 2 8.6134999999999984e+00 1.0656442593567498e+01 6.3034285555328200e+00 0 0 0
367 2 1.1074500000000002e+01 1.2077301606043163e+01 6.3034285555328200e+00 0 0 0
476 2 0.0000000000000000e+00 2.8417180249513345e+00 9.2999676814846843e+00 0 0 0
477 2 0.0000000000000000e+00 0.0000000000000000e+00 9.2999676814846843e+00 0 0 0
478 2 1.2305000000000001e+00 7.1042950623783474e-01 9.2999676814846843e+00 0 0 0
482 2 1.2305000000000001e+00 2.1312885187134998e+00 9.2999676814846843e+00 0 0 0
483 2 2.4610000000000003e+00 2.8417180249513345e+00 9.2999676814846843e+00 0 0 0
484 2 2.4610000000000003e+00 0.0000000000000000e+00 9.2999676814846843e+00 0 0 0
485 2 3.6915000000000004e+00 7.1042950623783474e-01 9.2999676814846843e+00 0 0 0
493 2 3.6914999999999996e+00 2.1312885187134998e+00 9.2999676814846843e+00 0 0 0
4265 1 8.4795614333487368e+00 1.1098623297537392e+01 1.4661687760762446e+01 1 1 0
4542 1 1.6722326074087215e+00 2.4186562310186823e+00 1.1937461237926577e+01 0 1 0
494 2 4.9220000000000006e+00 2.8417180249513332e+00 9.2999676814846843e+00 0 0 0
495 2 4.9220000000000006e+00 0.0000000000000000e+00 9.2999676814846843e+00 0 0 0
496 2 6.1524999999999999e+00 7.1042950623783407e-01 9.2999676814846843e+00 0 0 0
508 2 6.1524999999999999e+00 2.1312885187134989e+00 9.2999676814846843e+00 0 0 0
509 2 7.3829999999999991e+00 2.8417180249513345e+00 9.2999676814846843e+00 0 0 0
510 2 7.3829999999999991e+00 0.0000000000000000e+00 9.2999676814846843e+00 0 0 0
3534 1 4.6372642017599279e+00 1.6941119009319443e+00 1.2155410018171942e+01 0 1 0
511 2 8.6134999999999984e+00 7.1042950623783407e-01 9.2999676814846843e+00 0 0 0
527 2 8.6134999999999984e+00 2.1312885187135002e+00 9.2999676814846843e+00 0 0 0
528 2 9.8440000000000012e+00 2.8417180249513332e+00 9.2999676814846843e+00 0 0 0
529 2 9.8440000000000012e+00 0.0000000000000000e+00 9.2999676814846843e+00 0 0 0
530 2 1.1074500000000002e+01 7.1042950623783330e-01 9.2999676814846843e+00 0 0 0
550 2 1.1074500000000002e+01 2.1312885187135002e+00 9.2999676814846843e+00 0 0 0
3557 1 7.3977810398619379e+00 2.9801882383583815e+00 1.1821320631282909e+01 0 1 0
3547 1 6.3232247651021556e+00 1.1091937406973782e+01 1.2253675192669387e+01 1 0 0
965 1 9.4337303884695523e-01 5.3587283289233003e+00 1.2197329735848028e+01 0 0 0
480 2 0.0000000000000000e+00 4.2625770374269996e+00 9.2999676814846843e+00 0 0 0
481 2 1.2305000000000001e+00 4.9730065436648339e+00 9.2999676814846843e+00 0 0 0
489 2 1.2305000000000001e+00 6.3938655561404980e+00 9.2999676814846843e+00 0 0 0
491 2 2.4610000000000003e+00 4.2625770374269996e+00 9.2999676814846843e+00 0 0 0
492 2 3.6914999999999996e+00 4.9730065436648339e+00 9.2999676814846843e+00 0 0 0
504 2 3.6914999999999996e+00 6.3938655561404980e+00 9.2999676814846843e+00 0 0 0
479 2 0.0000000000000000e+00 7.1042950623783341e+00 9.2999676814846843e+00 0 0 0
490 2 2.4610000000000003e+00 7.1042950623783341e+00 9.2999676814846843e+00 0 0 0
2204 1 1.2087308610513501e+01 8.1214523700642829e+00 1.4907893600122314e+01 1 0 0
506 2 4.9220000000000006e+00 4.2625770374269978e+00 9.2999676814846843e+00 0 0 0
507 2 6.1524999999999999e+00 4.9730065436648339e+00 9.2999676814846843e+00 0 0 0
523 2 6.1524999999999999e+00 6.3938655561404980e+00 9.2999676814846843e+00 0 0 0
525 2 7.3829999999999991e+00 4.2625770374269996e+00 9.2999676814846843e+00 0 0 0
505 2 4.9220000000000006e+00 7.1042950623783341e+00 9.2999676814846843e+00 0 0 0
524 2 7.3830000000000009e+00 7.1042950623783341e+00 9.2999676814846843e+00 0 0 0
2000 1 1.2216732815297547e+01 4.2203869250845081e+00 1.2938581591060430e+01 0 0 0
526 2 8.6135000000000002e+00 4.9730065436648339e+00 9.2999676814846843e+00 0 0 0
546 2 8.6135000000000002e+00 6.3938655561404980e+00 9.2999676814846843e+00 0 0 0
548 2 9.8440000000000012e+00 4.2625770374270004e+00 9.2999676814846843e+00 0 0 0
549 2 1.1074500000000002e+01 4.9730065436648339e+00 9.2999676814846843e+00 0 0 0
570 2 1.1074500000000002e+01 6.3938655561404980e+00 9.2999676814846843e+00 0 0 0
547 2 9.8440000000000012e+00 7.1042950623783341e+00 9.2999676814846843e+00 0 0 0
3330 1 3.5691562051807275e+00 6.5787715266971629e+00 1.1929531424776654e+01 2 0 0
487 2 0.0000000000000000e+00 8.5251540748539991e+00 9.2999676814846843e+00 0 0 0
488 2 1.2305000000000001e+00 9.2355835810918343e+00 9.2999676814846843e+00 0 0 0
502 2 2.4610000000000003e+00 8.5251540748539991e+00 9.2999676814846843e+00 0 0 0
503 2 3.6915000000000004e+00 9.2355835810918343e+00 9.2999676814846843e+00 0 0 0
486 2 0.0000000000000000e+00 1.1366872099805333e+01 9.2999676814846843e+00 0 0 0
500 2 1.2305000000000001e+00 1.0656442593567498e+01 9.2999676814846843e+00 0 0 0
501 2 2.4610000000000003e+00 1.1366872099805333e+01 9.2999676814846843e+00 0 0 0
519 2 3.6914999999999996e+00 1.0656442593567499e+01 9.2999676814846843e+00 0 0 0
3433 1 2.3997966908398265e+00 1.1609783007585285e+01 1.5790170639747416e+01 0 0 -1
3224 1 2.1472392743111972e+00 9.0088482950219877e+00 1.2341666168165625e+01 0 0 -1
1177 1 6.5017766985354584e+00 8.2323767761443793e+00 1.2137845775276752e+01 0 1 0
521 2 4.9220000000000006e+00 8.5251540748539991e+00 9.2999676814846843e+00 0 0 0
522 2 6.1524999999999999e+00 9.2355835810918343e+00 9.2999676814846843e+00 0 0 0
544 2 7.3830000000000009e+00 8.5251540748539991e+00 9.2999676814846843e+00 0 0 0
520 2 4.9220000000000006e+00 1.1366872099805333e+01 9.2999676814846843e+00 0 0 0
542 2 6.1524999999999999e+00 1.0656442593567499e+01 9.2999676814846843e+00 0 0 0
543 2 7.3829999999999991e+00 1.1366872099805333e+01 9.2999676814846843e+00 0 0 0
2243 1 9.2531233980924394e+00 7.3493878484725634e+00 1.2011950478139040e+01 0 0 0
4331 1 1.1543223759499543e+01 8.7637815881914705e+00 1.1811969517742892e+01 0 1 0
545 2 8.6134999999999984e+00 9.2355835810918343e+00 9.2999676814846843e+00 0 0 0
568 2 9.8440000000000012e+00 8.5251540748539956e+00 9.2999676814846843e+00 0 0 0
569 2 1.1074500000000002e+01 9.2355835810918343e+00 9.2999676814846843e+00 0 0 0
566 2 8.6134999999999984e+00 1.0656442593567498e+01 9.2999676814846843e+00 0 0 0
567 2 9.8440000000000012e+00 1.1366872099805333e+01 9.2999676814846843e+00 0 0 0
590 2 1.1074500000000002e+01 1.0656442593567498e+01 9.2999676814846843e+00 0 0 0
591 2 1.2304999999999998e+01 1.1366872099805333e+01 9.2999676814846843e+00 0 0 0
2048 1 6.8353258434383699e+00 1.1865672389192399e+01 1.6755958422820093e+01 0 0 -1
144 1 1.7435777977545812e+00 2.2991059319086458e+00 1.4838527311427317e+01 0 1 0
839 1 4.4835770996807716e+00 1.6771908273501706e+00 1.4989959484041721e+01 0 1 0
3514 1 9.2264204257357836e+00 8.2259869207587926e+00 1.4338936326431789e+01 0 0 0
3245 1 9.5193684470360136e+00 4.8555195894557226e+00 1.2008185883569308e+01 1 -1 0
1080 1 7.3400838044218366e+00 2.9290706485597857e+00 1.6740760552891444e+01 0 0 0
1065 1 4.8984705855065309e+00 1.2027530059885368e+01 1.4668893722029727e+01 0 0 -1
1102 1 9.5471043945954037e-01 5.1436400983965171e+00 1.4995225017147890e+01 0 1 -1
4450 1 1.1817536162786380e+01 6.1081403255874422e-01 1.4871762310244273e+01 1 -1 0
2116 1 5.2328140934862573e+00 6.3691648463509871e+00 1.4166422782697698e+01 1 1 0
2325 1 6.2270218066946370e+00 3.8532629149410558e+00 1.4402245818686954e+01 1 0 0
4257 1 8.3893245662039675e+00 2.0646928881692020e-01 1.1686745766998774e+01 1 1 0
4417 1 7.2288149633642824e+00 7.4394897533941986e+00 1.5801597933501137e+01 0 1 0
3546 1 1.8592428855245633e+00 8.8888263166665382e+00 1.5165382102027211e+01 0 0 0
2261 1 1.0903818090222551e+01 1.2235598034758697e+01 1.6089341726565998e+01 1 1 0
3301 1 2.9860464755248524e+00 6.6321676051076714e+00 1.6044822694922438e+01 0 1 0
2239 1 3.4264516314098361e+00 1.1345664963281777e+01 1.1716044148011312e+01 1 1 -1
863 1 8.4049970299159931e+00 3.8863137440435630e-01 1.6079596127199629e+01 0 0 0
4350 1 1.1259687624501536e+01 1.1756728312050885e+01 1.1673140028375679e+01 1 1 0
3280 1 1.0284992469509795e+01 2.5907570947576208e+00 1.6680656548613655e+01 -1 0 -1
4485 1 1.2559082840903968e+00 3.6230657798920007e+00 1.9026932811445420e+01 0 -1 0
4420 1 8.5071505123263211e+00 1.1549677743331946e+01 2.1057836533489496e+01 0 1 0
3343 1 2.3828671128319985e+00 2.1750099607140783e+00 2.1118316904380272e+01 1 0 0
2420 1 5.1803572534937503e+00 1.9295012831673906e+00 1.8105633452157829e+01 -1 0 0
1128 1 6.3818984383053374e+00 3.4847189603617448e+00 2.0375660241798499e+01 0 1 0
4517 1 1.0505342907666275e+01 3.4315823103891465e+00 2.1033764117934805e+01 -1 0 0
4474 1 1.1062258565801820e+01 1.7181141903112378e+00 1.9091195748311279e+01 1 1 0
1071 1 1.1904617406280449e+00 7.5337522292026433e+00 2.1587166297258207e+01 1 0 -1
3287 1 4.8273961171083339e+00 8.3944100453091046e+00 1.9756107591587668e+01 1 1 0
3372 1 4.6898073381013505e+00 5.8551725642550787e+00 2.0978002901956650e+01 1 0 0
2174 1 8.6013306755989412e+00 9.0701751569037281e+00 1.9479050265575001e+01 0 0 0
943 1 1.0413343394768674e+01 8.3103124521337097e+00 2.3178937620559815e+01 0 0 0
2047 1 4.4368457405798098e+00 2.1002814447166562e+00 2.4429224244307441e+01 1 0 -1
850 1 8.5042832888377653e+00 4.9121578558133665e+00 2.0217264174135291e+01 1 1 0
3339 1 2.1169509430013567e+00 7.9837503620149022e+00 1.8702313136704003e+01 0 0 0
3243 1 3.7096210214786409e+00 4.6366844713964079e+00 1.8038165177231868e+01 0 -1 0
2034 1 1.0877097976519565e+01 1.1163692394957742e+01 2.2639001126306422e+01 0 1 0
3542 1 8.1810458840391469e+00 7.2990318161208778e+00 2.1652243062235776e+01 -1 1 0
1984 1 1.1927193973008932e+00 3.4929213099200696e+00 2.3529737890536534e+01 1 0 1
3334 1 5.7329652458953877e+00 6.6531668772058623e+00 2.3814849724339812e+01 1 0 -1
3392 1 1.2266197610222672e+01 5.5324617895723609e+00 2.0198056186933844e+01 1 0 0
4512 1 6.2439483152709796e+00 1.6527822589350549e+00 2.2528535012617041e+01 1 0 0
40 1 2.8262394391952828e-01 1.1832693997077138e+01 1.9062233671513695e+01 0 1 0
4521 1 8.4111224043927848e+00 1.9204393017223997e+00 2.4161804207682192e+01 -1 1 0
2107 1 1.1014577608979081e+01 3.1010950169595053e+00 2.3826718885081114e+01 -1 0 0
4490 1 1.1357169266201801e+01 9.1112392166245240e+00 1.9108040622473954e+01 0 1 -1
3346 1 2.5764785291922894e+00 5.6047338761432535e+00 2.2802708835548728e+01 1 1 0
906 1 6.6504429268047387e+00 1.1269731821221827e+01 2.3038770983316923e+01 0 1 0
69 1 2.3466902025250898e+00 9.6426349692395892e+00 2.3445814851051967e+01 0 -1 0
2346 1 4.2988649347998864e+00 1.0288863740906429e+01 2.1550404052622696e+01 0 0 0
3447 1 9.4418016357217223e+00 4.0778456272697883e-01 2.1965045457693154e+01 0 -1 0
23 1 6.5092264012063241e+00 9.3494188094459254e+00 1.7661392910272419e+01 1 0 0
1173 1 1.1205410782165918e+01 6.7344258111150390e+00 1.7549138003088885e+01 0 1 0
2136 1 8.7957069722196639e+00 5.3806024791421585e+00 1.7614309727050255e+01 1 0 -1
4256 1 1.2154938760852668e+01 1.2139240717490121e-01 2.2996641932375876e+01 1 1 0
3172 1 7.3568412817626783e+00 9.1123734315266152e+00 2.4439333302823503e+01 1 -1 0
3322 1 7.5693817858026033e+00 4.8323747738772589e+00 2.4380059253431845e+01 1 0 0
1010 1 1.2279573093278410e+01 7.9674425983614237e+00 2.1402706466002321e+01 0 0 0
3189 1 9.3935656748612928e-02 7.7923829825123014e-01 2.3114424950467146e+01 0 0 -1
1244 1 3.8991094826564403e+00 3.3943433571039350e-02 1.9833081061453914e+01 0 1 0
2007 1 7.5328625452289764e+00 1.0905148113257377e+01 3.2332457296491967e+01 -1 -1 0
14 1 8.1508203592560289e+00 8.3222773965173111e+00 3.1437263341927427e+01 0 0 0
2036 1 8.2286172540623284e+00 9.3394889779643364e+00 2.8916229218888930e+01 0 1 0
1127 1 1.2077801221200451e+01 1.0773773407919712e+01 3.2520305439382327e+01 1 0 -1
3476 1 1.0989516224129483e+00 4.1230008104947462e+00 2.9809187181766184e+01 1 1 0
36 1 1.1093112743486776e+01 5.0920171902180922e+00 3.2136809093128015e+01 0 1 1
3363 1 3.9377710382675737e+00 1.1774624219817996e+01 2.7111232883852367e+01 1 0 0
2014 1 1.2232474307466321e+01 5.0695297833475346e+00 2.5049388768061316e+01 0 1 0
2273 1 1.0555180380132565e+01 8.0295899908558677e-01 2.9681441868700229e+01 0 0 -1
2336 1 3.2090986042030250e+00 7.5360011328719816e+00 2.5006290326510541e+01 0 0 0
896 1 5.5605238365352196e+00 3.7862881995656190e+00 2.6153405858577539e+01 1 2 0
1089 1 8.2790287057070966e-01 3.3455977384868252e+00 2.6523286827164949e+01 1 0 0
1092 1 9.8373962386123601e+00 3.4159231526903522e+00 2.6880437200603435e+01 0 0 0
4388 1 1.3325340740343794e+00 2.4011927647107933e-01 2.7217360037916784e+01 2 0 0
2300 1 6.4955155929343853e+00 1.5765156054177902e+00 3.2209767727646920e+01 -1 1 0
3442 1 4.0344916534471018e+00 8.2270098624709629e+00 2.7580023617240983e+01 1 0 -1
1190 1 9.2299469844250837e+00 3.0102473017540792e+00 2.9800813999253194e+01 0 0 0
3439 1 6.3211616435933600e+00 9.9891982722280339e+00 2.7042892190652662e+01 1 0 -1
4269 1 8.9263266981138312e+00 6.1469463311496089e+00 2.8103931294364415e+01 1 1 0
2326 1 1.0224899625518491e+01 8.8390593669885540e+00 2.6713744293731498e+01 0 1 0
3262 1 3.1990180580015677e+00 8.9071665349107765e-01 2.9485160612342149e+01 1 0 0
3150 1 3.4919751722679884e+00 3.4248034751826126e+00 2.8093252045049272e+01 1 0 0
3533 1 3.6035353916406780e+00 2.0680208281240651e+00 3.2138984561769391e+01 1 0 0
2049 1 9.2735708192148847e-01 6.1570796076890089e+00 2.6174773742013354e+01 1 1 0
3182 1 7.1058806571094539e+00 1.8420268501093113e+00 2.7642036998023361e+01 0 0 0
2069 1 1.3600761732476254e+00 8.2752795693006362e+00 3.2092472597282161e+01 0 0 0
3459 1 2.0623295106180386e+00 1.1174401069699915e+01 3.2033975268685296e+01 1 1 0
3276 1 2.2814692836669979e+00 9.9925863766097791e+00 2.9155725196074751e+01 0 1 0
2381 1 3.9237640438573869e+00 6.4741245921768362e+00 3.2138522964243776e+01 0 1 0
3427 1 2.1149033501117716e+00 4.3194718471681943e+00 3.2305334606305905e+01 0 -1 0
2151 1 4.1805931380307797e+00 6.0645869116400446e+00 2.9293374442634406e+01 0 0 0
1030 1 6.7401328443890804e+00 4.9991823307508696e+00 2.9233435031210728e+01 1 1 -1
2236 1 6.7506774374488030e+00 6.0275312401428573e+00 3.1934749118667572e+01 0 1 0
2078 1 8.3747157375376329e+00 3.9740626446011040e+00 3.2392959348687214e+01 2 0 0
1289 1 1.1426755171048024e+01 5.5976777641388455e+00 2.9284511463057818e+01 0 -1 1
53 1 1.0995842315046620e+01 7.9331442726394306e+00 3.1796427142222704e+01 0 0 0
24 1 1.1842037428510034e+01 1.0755933444577079e+00 2.6960374394076826e+01 0 1 0
4539 1 9.7746989454484012e+00 1.1364116381358366e+01 2.5126074694339859e+01 1 0 -1
2110 1 4.6905755898767305e+00 1.2157457742831559e+01 3.2153224421198942e+01 0 0 0
2031 1 9.3379717357391245e-01 7.1955443286789631e+00 2.8811946003283044e+01 0 1 0
1191 1 1.2058573243461808e+01 8.2378140726240101e+00 2.8954957366008387e+01 0 1 0
37 1 9.8065746240246021e+00 6.4401395761899511e+00 2.4984114872007098e+01 0 1 0
188 2 0.0000000000000000e+00 1.2787731112280996e+01 3.3068894295804343e+00 0 0 0
190 2 1.2305000000000001e+00 1.3498160618518829e+01 3.3068894295804343e+00 0 0 0
225 2 2.4610000000000003e+00 1.2787731112280996e+01 3.3068894295804343e+00 0 0 0
227 2 3.6915000000000004e+00 1.3498160618518829e+01 3.3068894295804343e+00 0 0 0
186 2 0.0000000000000000e+00 1.5629449137232333e+01 3.3068894295804343e+00 0 0 0
221 2 1.2305000000000001e+00 1.4919019630994494e+01 3.3068894295804343e+00 0 0 0
223 2 2.4610000000000003e+00 1.5629449137232328e+01 3.3068894295804343e+00 0 0 0
266 2 3.6915000000000004e+00 1.4919019630994494e+01 3.3068894295804343e+00 0 0 0
270 2 4.9220000000000006e+00 1.2787731112280996e+01 3.3068894295804343e+00 0 0 0
272 2 6.1524999999999990e+00 1.3498160618518829e+01 3.3068894295804343e+00 0 0 0
317 2 7.3829999999999991e+00 1.2787731112280996e+01 3.3068894295804343e+00 0 0 0
268 2 4.9220000000000006e+00 1.5629449137232333e+01 3.3068894295804343e+00 0 0 0
313 2 6.1524999999999990e+00 1.4919019630994494e+01 3.3068894295804343e+00 0 0 0
315 2 7.3829999999999991e+00 1.5629449137232333e+01 3.3068894295804343e+00 0 0 0
319 2 8.6135000000000002e+00 1.3498160618518835e+01 3.3068894295804343e+00 0 0 0
364 2 9.8440000000000012e+00 1.2787731112280996e+01 3.3068894295804343e+00 0 0 0
366 2 1.1074500000000002e+01 1.3498160618518829e+01 3.3068894295804343e+00 0 0 0
360 2 8.6135000000000002e+00 1.4919019630994494e+01 3.3068894295804343e+00 0 0 0
362 2 9.8440000000000012e+00 1.5629449137232328e+01 3.3068894295804343e+00 0 0 0
402 2 1.1074500000000002e+01 1.4919019630994494e+01 3.3068894295804343e+00 0 0 0
217 2 0.0000000000000000e+00 1.7050308149707998e+01 3.3068894295804343e+00 0 0 0
262 2 2.4610000000000003e+00 1.7050308149707998e+01 3.3068894295804343e+00 0 0 0
215 2 0.0000000000000000e+00 1.9892026174659328e+01 3.3068894295804343e+00 0 0 0
219 2 1.2305000000000001e+00 1.7760737655945832e+01 3.3068894295804343e+00 0 0 0
258 2 1.2305000000000001e+00 1.9181596668421495e+01 3.3068894295804343e+00 0 0 0
260 2 2.4610000000000003e+00 1.9892026174659328e+01 3.3068894295804343e+00 0 0 0
264 2 3.6914999999999996e+00 1.7760737655945832e+01 3.3068894295804343e+00 0 0 0
305 2 3.6914999999999996e+00 1.9181596668421495e+01 3.3068894295804343e+00 0 0 0
309 2 4.9220000000000006e+00 1.7050308149707998e+01 3.3068894295804343e+00 0 0 0
356 2 7.3830000000000009e+00 1.7050308149707998e+01 3.3068894295804343e+00 0 0 0
307 2 4.9220000000000006e+00 1.9892026174659328e+01 3.3068894295804343e+00 0 0 0
311 2 6.1524999999999999e+00 1.7760737655945832e+01 3.3068894295804343e+00 0 0 0
352 2 6.1524999999999999e+00 1.9181596668421495e+01 3.3068894295804343e+00 0 0 0
354 2 7.3829999999999991e+00 1.9892026174659328e+01 3.3068894295804343e+00 0 0 0
398 2 9.8440000000000012e+00 1.7050308149707998e+01 3.3068894295804343e+00 0 0 0
432 2 1.2304999999999998e+01 1.7050308149707998e+01 3.3068894295804343e+00 0 0 0
358 2 8.6134999999999984e+00 1.7760737655945832e+01 3.3068894295804343e+00 0 0 0
394 2 8.6135000000000002e+00 1.9181596668421495e+01 3.3068894295804343e+00 0 0 0
396 2 9.8440000000000012e+00 1.9892026174659335e+01 3.3068894295804343e+00 0 0 0
400 2 1.1074500000000002e+01 1.7760737655945835e+01 3.3068894295804343e+00 0 0 0
428 2 1.1074500000000002e+01 1.9181596668421495e+01 3.3068894295804343e+00 0 0 0
252 2 0.0000000000000000e+00 2.4154603212086325e+01 3.3068894295804343e+00 0 0 0
254 2 0.0000000000000000e+00 2.1312885187134999e+01 3.3068894295804343e+00 0 0 0
256 2 1.2304999999999993e+00 2.2023314693372832e+01 3.3068894295804343e+00 0 0 0
297 2 1.2304999999999993e+00 2.3444173705848499e+01 3.3068894295804343e+00 0 0 0
299 2 2.4610000000000003e+00 2.4154603212086325e+01 3.3068894295804343e+00 0 0 0
301 2 2.4610000000000003e+00 2.1312885187134995e+01 3.3068894295804343e+00 0 0 0
303 2 3.6914999999999996e+00 2.2023314693372832e+01 3.3068894295804343e+00 0 0 0
344 2 3.6915000000000004e+00 2.3444173705848499e+01 3.3068894295804343e+00 0 0 0
346 2 4.9220000000000006e+00 2.4154603212086325e+01 3.3068894295804343e+00 0 0 0
348 2 4.9220000000000006e+00 2.1312885187134995e+01 3.3068894295804343e+00 0 0 0
350 2 6.1524999999999990e+00 2.2023314693372832e+01 3.3068894295804343e+00 0 0 0
386 2 6.1524999999999999e+00 2.3444173705848499e+01 3.3068894295804343e+00 0 0 0
388 2 7.3830000000000009e+00 2.4154603212086336e+01 3.3068894295804343e+00 0 0 0
390 2 7.3829999999999991e+00 2.1312885187134999e+01 3.3068894295804343e+00 0 0 0
425 2 9.8440000000000012e+00 2.1312885187134999e+01 6.3034285555328200e+00 0 0 0
392 2 8.6135000000000002e+00 2.2023314693372832e+01 3.3068894295804343e+00 0 0 0
420 2 8.6134999999999984e+00 2.3444173705848499e+01 3.3068894295804343e+00 0 0 0
422 2 9.8440000000000012e+00 2.4154603212086336e+01 3.3068894295804343e+00 0 0 0
424 2 9.8440000000000012e+00 2.1312885187134999e+01 3.3068894295804343e+00 0 0 0
426 2 1.1074500000000002e+01 2.2023314693372832e+01 3.3068894295804343e+00 0 0 0
446 2 1.1074500000000002e+01 2.3444173705848499e+01 3.3068894295804343e+00 0 0 0
189 2 0.0000000000000000e+00 1.2787731112280996e+01 6.3034285555328200e+00 0 0 0
226 2 2.4610000000000003e+00 1.2787731112280996e+01 6.3034285555328200e+00 0 0 0
187 2 0.0000000000000000e+00 1.4208590124756663e+01 6.3034285555328200e+00 0 0 0
222 2 1.2305000000000001e+00 1.4919019630994494e+01 6.3034285555328200e+00 0 0 0
224 2 2.4610000000000003e+00 1.4208590124756663e+01 6.3034285555328200e+00 0 0 0