LAMMPS data file via write_data, version 16 Mar 2018, timestep = 100000

4055 atoms
2 atom types

0.0000000000000000e+00 4.9219999999999999e+01 xlo xhi
0.0000000000000000e+00 4.9019635930410494e+01 ylo yhi
1.4205482095367632e+00 2.6519451790463847e+01 zlo zhi

Masses

1 18.015
2 12.01

Atoms # atomic

53 2 0.0000000000000000e+00 2.8417180249513345e+00 3.0023968644111307e+00 0 0 0
55 2 0.0000000000000000e+00 0.0000000000000000e+00 3.0023968644111307e+00 0 0 0
57 2 1.2305000000000001e+00 7.1042950623783474e-01 3.0023968644111307e+00 0 0 0
64 2 1.2305000000000001e+00 2.1312885187134998e+00 3.0023968644111307e+00 0 0 0
66 2 2.4610000000000003e+00 2.8417180249513345e+00 3.0023968644111307e+00 0 0 0
68 2 2.4610000000000003e+00 0.0000000000000000e+00 3.0023968644111307e+00 0 0 0
70 2 3.6915000000000004e+00 7.1042950623783474e-01 3.0023968644111307e+00 0 0 0
85 2 3.6914999999999996e+00 2.1312885187134998e+00 3.0023968644111307e+00 0 0 0
87 2 4.9220000000000006e+00 2.8417180249513332e+00 3.0023968644111307e+00 0 0 0
89 2 4.9220000000000006e+00 0.0000000000000000e+00 3.0023968644111307e+00 0 0 0
60 2 0.0000000000000000e+00 4.2625770374269996e+00 3.0023968644111307e+00 0 0 0
81 2 2.4610000000000003e+00 4.2625770374269996e+00 3.0023968644111307e+00 0 0 0
110 2 4.9220000000000006e+00 4.2625770374269978e+00 3.0023968644111307e+00 0 0 0
62 2 1.2305000000000001e+00 4.9730065436648339e+00 3.0023968644111307e+00 0 0 0
77 2 1.2305000000000001e+00 6.3938655561404980e+00 3.0023968644111307e+00 0 0 0
83 2 3.6914999999999996e+00 4.9730065436648339e+00 3.0023968644111307e+00 0 0 0
106 2 3.6914999999999996e+00 6.3938655561404980e+00 3.0023968644111307e+00 0 0 0
58 2 0.0000000000000000e+00 7.1042950623783341e+00 3.0023968644111307e+00 0 0 0
73 2 0.0000000000000000e+00 8.5251540748539991e+00 3.0023968644111307e+00 0 0 0
75 2 1.2305000000000001e+00 9.2355835810918343e+00 3.0023968644111307e+00 0 0 0
79 2 2.4610000000000003e+00 7.1042950623783341e+00 3.0023968644111307e+00 0 0 0
102 2 2.4610000000000003e+00 8.5251540748539991e+00 3.0023968644111307e+00 0 0 0
104 2 3.6915000000000004e+00 9.2355835810918343e+00 3.0023968644111307e+00 0 0 0
108 2 4.9220000000000006e+00 7.1042950623783341e+00 3.0023968644111307e+00 0 0 0
139 2 4.9220000000000006e+00 8.5251540748539991e+00 3.0023968644111307e+00 0 0 0
54 2 0.0000000000000000e+00 1.4208590124756650e+00 5.9947779688418903e+00 0 0 0
56 2 0.0000000000000000e+00 0.0000000000000000e+00 5.9947779688418903e+00 0 0 0
65 2 1.2305000000000001e+00 2.1312885187134998e+00 5.9947779688418903e+00 0 0 0
67 2 2.4610000000000003e+00 1.4208590124756650e+00 5.9947779688418903e+00 0 0 0
69 2 2.4610000000000003e+00 0.0000000000000000e+00 5.9947779688418903e+00 0 0 0
86 2 3.6914999999999996e+00 2.1312885187134998e+00 5.9947779688418903e+00 0 0 0
382 2 0.0000000000000000e+00 2.8417180249513345e+00 8.9871590732722684e+00 0 0 0
383 2 0.0000000000000000e+00 0.0000000000000000e+00 8.9871590732722684e+00 0 0 0
384 2 1.2305000000000001e+00 7.1042950623783474e-01 8.9871590732722684e+00 0 0 0
388 2 1.2305000000000001e+00 2.1312885187134998e+00 8.9871590732722684e+00 0 0 0
389 2 2.4610000000000003e+00 2.8417180249513345e+00 8.9871590732722684e+00 0 0 0
390 2 2.4610000000000003e+00 0.0000000000000000e+00 8.9871590732722684e+00 0 0 0
391 2 3.6915000000000004e+00 7.1042950623783474e-01 8.9871590732722684e+00 0 0 0
399 2 3.6914999999999996e+00 2.1312885187134998e+00 8.9871590732722684e+00 0 0 0
88 2 4.9220000000000006e+00 1.4208590124756650e+00 5.9947779688418903e+00 0 0 0
90 2 4.9220000000000006e+00 0.0000000000000000e+00 5.9947779688418903e+00 0 0 0
400 2 4.9220000000000006e+00 2.8417180249513332e+00 8.9871590732722684e+00 0 0 0
401 2 4.9220000000000006e+00 0.0000000000000000e+00 8.9871590732722684e+00 0 0 0
61 2 0.0000000000000000e+00 4.2625770374269996e+00 5.9947779688418903e+00 0 0 0
63 2 1.2305000000000001e+00 3.5521475311891644e+00 5.9947779688418903e+00 0 0 0
82 2 2.4610000000000003e+00 4.2625770374269996e+00 5.9947779688418903e+00 0 0 0
84 2 3.6914999999999996e+00 3.5521475311891644e+00 5.9947779688418903e+00 0 0 0
386 2 0.0000000000000000e+00 4.2625770374269996e+00 8.9871590732722684e+00 0 0 0
397 2 2.4610000000000003e+00 4.2625770374269996e+00 8.9871590732722684e+00 0 0 0
111 2 4.9220000000000006e+00 4.2625770374269978e+00 5.9947779688418903e+00 0 0 0
412 2 4.9220000000000006e+00 4.2625770374269978e+00 8.9871590732722684e+00 0 0 0
59 2 0.0000000000000000e+00 5.6834360499026637e+00 5.9947779688418903e+00 0 0 0
78 2 1.2305000000000001e+00 6.3938655561404980e+00 5.9947779688418903e+00 0 0 0
80 2 2.4610000000000003e+00 5.6834360499026637e+00 5.9947779688418903e+00 0 0 0
107 2 3.6914999999999996e+00 6.3938655561404980e+00 5.9947779688418903e+00 0 0 0
387 2 1.2305000000000001e+00 4.9730065436648339e+00 8.9871590732722684e+00 0 0 0
395 2 1.2305000000000001e+00 6.3938655561404980e+00 8.9871590732722684e+00 0 0 0
398 2 3.6914999999999996e+00 4.9730065436648339e+00 8.9871590732722684e+00 0 0 0
410 2 3.6914999999999996e+00 6.3938655561404980e+00 8.9871590732722684e+00 0 0 0
109 2 4.9220000000000006e+00 5.6834360499026637e+00 5.9947779688418903e+00 0 0 0
74 2 0.0000000000000000e+00 8.5251540748539991e+00 5.9947779688418903e+00 0 0 0
76 2 1.2305000000000001e+00 7.8147245686161639e+00 5.9947779688418903e+00 0 0 0
103 2 2.4610000000000003e+00 8.5251540748539991e+00 5.9947779688418903e+00 0 0 0
105 2 3.6914999999999996e+00 7.8147245686161639e+00 5.9947779688418903e+00 0 0 0
385 2 0.0000000000000000e+00 7.1042950623783341e+00 8.9871590732722684e+00 0 0 0
393 2 0.0000000000000000e+00 8.5251540748539991e+00 8.9871590732722684e+00 0 0 0
394 2 1.2305000000000001e+00 9.2355835810918343e+00 8.9871590732722684e+00 0 0 0
396 2 2.4610000000000003e+00 7.1042950623783341e+00 8.9871590732722684e+00 0 0 0
408 2 2.4610000000000003e+00 8.5251540748539991e+00 8.9871590732722684e+00 0 0 0
409 2 3.6915000000000004e+00 9.2355835810918343e+00 8.9871590732722684e+00 0 0 0
140 2 4.9220000000000006e+00 8.5251540748539991e+00 5.9947779688418903e+00 0 0 0
411 2 4.9220000000000006e+00 7.1042950623783341e+00 8.9871590732722684e+00 0 0 0
427 2 4.9220000000000006e+00 8.5251540748539991e+00 8.9871590732722684e+00 0 0 0
2699 1 4.5685437235120494e+00 3.8206799658388202e+00 1.1405703779334182e+01 0 0 0
1977 1 1.1125276991025683e+00 7.3481928273282027e-01 1.2187282860339781e+01 -1 2 -1
4044 1 3.7934963367436692e+00 8.1851747820960485e-01 1.1493661786824770e+01 1 1 0
1262 1 3.8212097449387250e+00 6.5106667510016765e+00 1.1633783512039917e+01 0 0 0
2618 1 1.1119391071524558e+00 6.2854877052022715e+00 1.1531744779419707e+01 0 1 0
1426 1 1.0559850006272800e-01 9.0242558086777578e+00 1.1339352738310163e+01 1 0 -1
3354 1 5.1875228264513398e+00 8.8736939332366003e+00 1.2130442513317281e+01 1 0 0
2711 1 3.8551500074964690e-01 3.3436651258921652e+00 1.1488414327401800e+01 1 1 -1
3347 1 5.2598063206228698e+00 3.3201837389339950e+00 1.4167211432836254e+01 0 1 0
2773 1 3.7480090870691498e+00 2.8984447953230554e+00 1.7305284155452384e+01 0 1 0
3362 1 2.2178113220131581e+00 5.7055283600780682e-01 1.7220801558075781e+01 0 1 1
736 1 2.2273198131100065e+00 8.8663809532526443e+00 2.2014888490495295e+01 1 1 1
2013 1 3.9509253918684832e+00 8.2603153532935403e-01 1.4347621812015397e+01 0 -1 0
3902 1 3.7917641236620541e+00 6.5493986230145538e+00 2.2598984997715803e+01 0 1 1
4009 1 4.3338695346172980e+00 7.6468818954111351e+00 1.6239175353544297e+01 0 1 -1
3353 1 1.2523676770358296e+00 5.5067938053502239e+00 1.5285783291348899e+01 1 0 -1
2107 1 3.9436529684859325e+00 5.6524305413098421e+00 1.4621768752031777e+01 1 0 0
688 1 2.3631307155500538e+00 8.7799281073160813e+00 2.5239615749436808e+01 1 -1 -1
539 1 2.3995257123666516e+00 9.4546555813588746e+00 1.5078935952425017e+01 1 0 1
2762 1 3.6733112841647286e+00 6.4767311678992776e+00 2.5499476860501311e+01 0 1 0
2686 1 4.7562571404344096e+00 7.5767071935836503e+00 1.8915594305144687e+01 0 0 0
690 1 1.0882376795971311e+00 5.8242846970585269e+00 1.7905906501510763e+01 0 2 0
3942 1 1.6681683216653940e+00 3.4196390659202578e+00 1.9147797977653795e+01 0 0 0
581 1 1.9225495872132978e+00 8.0525246027831319e+00 1.9233490802619635e+01 1 0 0
3452 1 2.3045465490225365e+00 4.2830842586079791e+00 2.1523776465692613e+01 0 0 0
2671 1 3.6493588168921054e+00 1.8654858385071398e+00 2.2299481293700353e+01 1 1 -1
2621 1 2.0870034335903487e+00 4.1984607683198174e+00 2.5464685993770267e+01 1 1 -1
633 1 3.4517671403766070e+00 1.8334073514440248e+00 2.5028376201585949e+01 0 0 0
1969 1 2.2647926788759598e-01 7.7857403887098933e+00 1.4110252989141401e+01 -1 0 1
2071 1 6.9857231766244965e-01 7.6903182683375448e-01 1.5055780929708369e+01 0 1 -1
564 1 6.1413329782011132e+00 1.4319125748788637e+00 2.5594247692011209e+01 1 0 0
4040 1 5.8133186813711468e+00 1.8094574067437299e+00 1.8502957831821085e+01 0 0 -1
647 1 1.4856618879290515e-01 4.6441673381942321e+00 2.2936615388369347e+01 0 1 0
2551 1 1.2782116081406789e+00 1.3189771733855307e-01 2.1947318713978824e+01 0 1 0
3982 1 6.0178181272147739e+00 9.2862677201145356e+00 1.4705268678524257e+01 0 0 0
71 2 0.0000000000000000e+00 1.1366872099805333e+01 3.0023968644111307e+00 0 0 0
94 2 0.0000000000000000e+00 1.2787731112280996e+01 3.0023968644111307e+00 0 0 0
96 2 1.2305000000000001e+00 1.3498160618518829e+01 3.0023968644111307e+00 0 0 0
98 2 1.2305000000000001e+00 1.0656442593567498e+01 3.0023968644111307e+00 0 0 0
100 2 2.4610000000000003e+00 1.1366872099805333e+01 3.0023968644111307e+00 0 0 0
131 2 2.4610000000000003e+00 1.2787731112280996e+01 3.0023968644111307e+00 0 0 0
133 2 3.6915000000000004e+00 1.3498160618518829e+01 3.0023968644111307e+00 0 0 0
135 2 3.6914999999999996e+00 1.0656442593567499e+01 3.0023968644111307e+00 0 0 0
137 2 4.9220000000000006e+00 1.1366872099805333e+01 3.0023968644111307e+00 0 0 0
176 2 4.9220000000000006e+00 1.2787731112280996e+01 3.0023968644111307e+00 0 0 0
178 2 6.1524999999999990e+00 1.3498160618518829e+01 3.0023968644111307e+00 0 0 0
92 2 0.0000000000000000e+00 1.5629449137232333e+01 3.0023968644111307e+00 0 0 0
123 2 0.0000000000000000e+00 1.7050308149707998e+01 3.0023968644111307e+00 0 0 0
127 2 1.2305000000000001e+00 1.4919019630994494e+01 3.0023968644111307e+00 0 0 0
129 2 2.4610000000000003e+00 1.5629449137232328e+01 3.0023968644111307e+00 0 0 0
168 2 2.4610000000000003e+00 1.7050308149707998e+01 3.0023968644111307e+00 0 0 0
172 2 3.6915000000000004e+00 1.4919019630994494e+01 3.0023968644111307e+00 0 0 0
174 2 4.9220000000000006e+00 1.5629449137232333e+01 3.0023968644111307e+00 0 0 0
215 2 4.9220000000000006e+00 1.7050308149707998e+01 3.0023968644111307e+00 0 0 0
219 2 6.1524999999999990e+00 1.4919019630994494e+01 3.0023968644111307e+00 0 0 0
125 2 1.2305000000000001e+00 1.7760737655945832e+01 3.0023968644111307e+00 0 0 0
164 2 1.2305000000000001e+00 1.9181596668421495e+01 3.0023968644111307e+00 0 0 0
170 2 3.6914999999999996e+00 1.7760737655945832e+01 3.0023968644111307e+00 0 0 0
211 2 3.6914999999999996e+00 1.9181596668421495e+01 3.0023968644111307e+00 0 0 0
72 2 0.0000000000000000e+00 9.9460130873296642e+00 5.9947779688418903e+00 0 0 0
101 2 2.4610000000000003e+00 9.9460130873296642e+00 5.9947779688418903e+00 0 0 0
138 2 4.9220000000000006e+00 9.9460130873296642e+00 5.9947779688418903e+00 0 0 0
95 2 0.0000000000000000e+00 1.2787731112280996e+01 5.9947779688418903e+00 0 0 0
97 2 1.2305000000000001e+00 1.2077301606043163e+01 5.9947779688418903e+00 0 0 0
99 2 1.2305000000000001e+00 1.0656442593567498e+01 5.9947779688418903e+00 0 0 0
132 2 2.4610000000000003e+00 1.2787731112280996e+01 5.9947779688418903e+00 0 0 0
134 2 3.6914999999999996e+00 1.2077301606043163e+01 5.9947779688418903e+00 0 0 0
136 2 3.6914999999999996e+00 1.0656442593567499e+01 5.9947779688418903e+00 0 0 0
392 2 0.0000000000000000e+00 1.1366872099805333e+01 8.9871590732722684e+00 0 0 0
404 2 0.0000000000000000e+00 1.2787731112280996e+01 8.9871590732722684e+00 0 0 0
405 2 1.2305000000000001e+00 1.3498160618518829e+01 8.9871590732722684e+00 0 0 0
406 2 1.2305000000000001e+00 1.0656442593567498e+01 8.9871590732722684e+00 0 0 0
407 2 2.4610000000000003e+00 1.1366872099805333e+01 8.9871590732722684e+00 0 0 0
423 2 2.4610000000000003e+00 1.2787731112280996e+01 8.9871590732722684e+00 0 0 0
424 2 3.6915000000000004e+00 1.3498160618518829e+01 8.9871590732722684e+00 0 0 0
425 2 3.6914999999999996e+00 1.0656442593567499e+01 8.9871590732722684e+00 0 0 0
177 2 4.9220000000000006e+00 1.2787731112280996e+01 5.9947779688418903e+00 0 0 0
426 2 4.9220000000000006e+00 1.1366872099805333e+01 8.9871590732722684e+00 0 0 0
446 2 4.9220000000000006e+00 1.2787731112280996e+01 8.9871590732722684e+00 0 0 0
447 2 6.1524999999999990e+00 1.3498160618518829e+01 8.9871590732722684e+00 0 0 0
93 2 0.0000000000000000e+00 1.4208590124756663e+01 5.9947779688418903e+00 0 0 0
130 2 2.4610000000000003e+00 1.4208590124756663e+01 5.9947779688418903e+00 0 0 0
175 2 4.9220000000000006e+00 1.4208590124756663e+01 5.9947779688418903e+00 0 0 0
124 2 0.0000000000000000e+00 1.7050308149707998e+01 5.9947779688418903e+00 0 0 0
126 2 1.2305000000000001e+00 1.6339878643470165e+01 5.9947779688418903e+00 0 0 0
128 2 1.2305000000000001e+00 1.4919019630994494e+01 5.9947779688418903e+00 0 0 0
169 2 2.4610000000000003e+00 1.7050308149707998e+01 5.9947779688418903e+00 0 0 0
171 2 3.6915000000000004e+00 1.6339878643470165e+01 5.9947779688418903e+00 0 0 0
173 2 3.6915000000000004e+00 1.4919019630994494e+01 5.9947779688418903e+00 0 0 0
403 2 0.0000000000000000e+00 1.5629449137232333e+01 8.9871590732722684e+00 0 0 0
419 2 0.0000000000000000e+00 1.7050308149707998e+01 8.9871590732722684e+00 0 0 0
421 2 1.2305000000000001e+00 1.4919019630994494e+01 8.9871590732722684e+00 0 0 0
422 2 2.4610000000000003e+00 1.5629449137232328e+01 8.9871590732722684e+00 0 0 0
442 2 2.4610000000000003e+00 1.7050308149707998e+01 8.9871590732722684e+00 0 0 0
444 2 3.6915000000000004e+00 1.4919019630994494e+01 8.9871590732722684e+00 0 0 0
216 2 4.9220000000000006e+00 1.7050308149707998e+01 5.9947779688418903e+00 0 0 0
220 2 6.1524999999999990e+00 1.4919019630994494e+01 5.9947779688418903e+00 0 0 0
445 2 4.9220000000000006e+00 1.5629449137232333e+01 8.9871590732722684e+00 0 0 0
466 2 4.9220000000000006e+00 1.7050308149707998e+01 8.9871590732722684e+00 0 0 0
468 2 6.1524999999999990e+00 1.4919019630994494e+01 8.9871590732722684e+00 0 0 0
122 2 0.0000000000000000e+00 1.8471167162183658e+01 5.9947779688418903e+00 0 0 0
165 2 1.2305000000000001e+00 1.9181596668421495e+01 5.9947779688418903e+00 0 0 0
167 2 2.4610000000000003e+00 1.8471167162183658e+01 5.9947779688418903e+00 0 0 0
212 2 3.6914999999999996e+00 1.9181596668421495e+01 5.9947779688418903e+00 0 0 0
420 2 1.2305000000000001e+00 1.7760737655945832e+01 8.9871590732722684e+00 0 0 0
440 2 1.2305000000000001e+00 1.9181596668421495e+01 8.9871590732722684e+00 0 0 0
443 2 3.6914999999999996e+00 1.7760737655945832e+01 8.9871590732722684e+00 0 0 0
464 2 3.6914999999999996e+00 1.9181596668421495e+01 8.9871590732722684e+00 0 0 0
214 2 4.9220000000000006e+00 1.8471167162183658e+01 5.9947779688418903e+00 0 0 0
1385 1 1.5020274984984572e+00 1.1507797387769132e+01 1.1922722059100668e+01 0 1 1
2614 1 4.4733051442751712e+00 1.1433716359344267e+01 1.1496551756510417e+01 -1 0 -1
2640 1 5.2584674491550052e+00 1.6244693762505808e+01 1.1919904581048804e+01 1 0 -1
600 1 2.6182609684795111e+00 1.7267647117542982e+01 1.1726431442754114e+01 0 -1 -1
1388 1 5.5172909807317021e+00 1.1772884426406609e+01 1.5790170657307417e+01 0 0 1
3958 1 2.7462718190437854e+00 1.2076317541019904e+01 1.4497205136728722e+01 1 1 0
3444 1 1.1714054374660421e+00 1.4339391621941493e+01 1.4872937889819786e+01 0 0 0
3229 1 2.3525890511739909e+00 1.8048311149740432e+01 2.5604665065542768e+01 0 1 0
1382 1 1.8402400430109602e+00 1.8298657607465039e+01 1.5604319420250391e+01 0 0 0
1410 1 5.9755531624179312e+00 1.5910568590389012e+01 1.5297530233805864e+01 0 0 0
1290 1 1.1673945923968487e+00 1.4777353338967142e+01 1.7764165691067952e+01 0 0 0
3918 1 4.1046472878861682e+00 1.1050564629008230e+01 2.5592051877383952e+01 0 1 0
1443 1 5.7098386618532171e+00 1.2826495428855264e+01 1.8088571885123521e+01 1 0 0
4022 1 2.8538286088330347e+00 1.2599799328894591e+01 1.9119805366973580e+01 0 0 -1
2074 1 1.7613168087709163e+00 1.0382060070413218e+01 1.7537188220041287e+01 0 1 0
1927 1 2.7754018018251805e+00 1.3457710272748923e+01 2.1966453472455839e+01 0 -1 0
1406 1 1.9994748068611283e+00 1.8321067673777264e+01 2.2549917905725309e+01 0 0 0
27 1 4.1076516089628603e+00 1.0863288993475802e+01 2.1526219847367827e+01 1 -1 0
3280 1 2.6256078974724182e+00 1.3497650622940567e+01 2.5046638493356710e+01 0 -1 0
2123 1 5.4222601669034631e+00 1.5835942725900317e+01 1.7894956750222100e+01 0 0 -1
51 1 2.8838940009033940e+00 1.6904751770815857e+01 1.7835920797264144e+01 2 0 0
743 1 1.7983489295494266e+00 1.8712860740550781e+01 1.9452125598482787e+01 0 0 0
669 1 3.9361810631667700e+00 1.6226345428655673e+01 2.2333754137909153e+01 0 0 0
1368 1 4.0219022693519175e+00 1.5948675292675308e+01 2.5277706131342036e+01 0 0 0
3888 1 5.9007979058943443e+00 1.0143885256603538e+01 1.9334501563186393e+01 -1 1 0
1252 1 3.1577732291965379e+00 1.6255197355390045e+01 1.4351108968642908e+01 1 0 0
22 1 2.9906589412517595e-03 1.3606313579568367e+01 2.2119541046995948e+01 2 1 1
2722 1 6.1325530199502865e+00 1.0577868694626236e+01 2.3345235524998891e+01 1 1 1
121 2 0.0000000000000000e+00 1.9892026174659328e+01 3.0023968644111307e+00 0 0 0
166 2 2.4610000000000003e+00 1.9892026174659328e+01 3.0023968644111307e+00 0 0 0
213 2 4.9220000000000006e+00 1.9892026174659328e+01 3.0023968644111307e+00 0 0 0
158 2 0.0000000000000000e+00 2.4154603212086325e+01 3.0023968644111307e+00 0 0 0
160 2 0.0000000000000000e+00 2.1312885187134999e+01 3.0023968644111307e+00 0 0 0
162 2 1.2304999999999993e+00 2.2023314693372832e+01 3.0023968644111307e+00 0 0 0
203 2 1.2304999999999993e+00 2.3444173705848499e+01 3.0023968644111307e+00 0 0 0
205 2 2.4610000000000003e+00 2.4154603212086325e+01 3.0023968644111307e+00 0 0 0
207 2 2.4610000000000003e+00 2.1312885187134995e+01 3.0023968644111307e+00 0 0 0
209 2 3.6914999999999996e+00 2.2023314693372832e+01 3.0023968644111307e+00 0 0 0
250 2 3.6915000000000004e+00 2.3444173705848499e+01 3.0023968644111307e+00 0 0 0
252 2 4.9220000000000006e+00 2.4154603212086325e+01 3.0023968644111307e+00 0 0 0
254 2 4.9220000000000006e+00 2.1312885187134995e+01 3.0023968644111307e+00 0 0 0
256 2 6.1524999999999990e+00 2.2023314693372832e+01 3.0023968644111307e+00 0 0 0
774 2 0.0000000000000000e+00 2.5575462224561992e+01 3.0023968644111307e+00 0 0 0
776 2 1.2305000000000001e+00 2.6285891730799833e+01 3.0023968644111307e+00 0 0 0
784 2 1.2305000000000010e+00 2.7706750743275496e+01 3.0023968644111307e+00 0 0 0
788 2 2.4610000000000003e+00 2.5575462224561992e+01 3.0023968644111307e+00 0 0 0
790 2 3.6914999999999991e+00 2.6285891730799833e+01 3.0023968644111307e+00 0 0 0
806 2 3.6914999999999996e+00 2.7706750743275496e+01 3.0023968644111307e+00 0 0 0
810 2 4.9220000000000006e+00 2.5575462224561992e+01 3.0023968644111307e+00 0 0 0
836 2 6.1524999999999990e+00 2.7706750743275496e+01 3.0023968644111307e+00 0 0 0
772 2 0.0000000000000000e+00 2.8417180249513333e+01 3.0023968644111307e+00 0 0 0
786 2 2.4610000000000003e+00 2.8417180249513326e+01 3.0023968644111307e+00 0 0 0
808 2 4.9220000000000006e+00 2.8417180249513336e+01 3.0023968644111307e+00 0 0 0
163 2 1.2305000000000001e+00 2.0602455680897162e+01 5.9947779688418903e+00 0 0 0
210 2 3.6915000000000004e+00 2.0602455680897162e+01 5.9947779688418903e+00 0 0 0
418 2 0.0000000000000000e+00 1.9892026174659328e+01 8.9871590732722684e+00 0 0 0
441 2 2.4610000000000003e+00 1.9892026174659328e+01 8.9871590732722684e+00 0 0 0
465 2 4.9220000000000006e+00 1.9892026174659328e+01 8.9871590732722684e+00 0 0 0
159 2 0.0000000000000000e+00 2.2733744199610655e+01 5.9947779688418903e+00 0 0 0
161 2 0.0000000000000000e+00 2.1312885187134999e+01 5.9947779688418903e+00 0 0 0
204 2 1.2304999999999993e+00 2.3444173705848499e+01 5.9947779688418903e+00 0 0 0
206 2 2.4610000000000003e+00 2.2733744199610655e+01 5.9947779688418903e+00 0 0 0
208 2 2.4610000000000003e+00 2.1312885187134995e+01 5.9947779688418903e+00 0 0 0
251 2 3.6915000000000004e+00 2.3444173705848499e+01 5.9947779688418903e+00 0 0 0
437 2 0.0000000000000000e+00 2.4154603212086325e+01 8.9871590732722684e+00 0 0 0
438 2 0.0000000000000000e+00 2.1312885187134999e+01 8.9871590732722684e+00 0 0 0
439 2 1.2304999999999993e+00 2.2023314693372832e+01 8.9871590732722684e+00 0 0 0
460 2 1.2304999999999993e+00 2.3444173705848499e+01 8.9871590732722684e+00 0 0 0
461 2 2.4610000000000003e+00 2.4154603212086325e+01 8.9871590732722684e+00 0 0 0
462 2 2.4610000000000003e+00 2.1312885187134995e+01 8.9871590732722684e+00 0 0 0
463 2 3.6914999999999996e+00 2.2023314693372832e+01 8.9871590732722684e+00 0 0 0
484 2 3.6915000000000004e+00 2.3444173705848499e+01 8.9871590732722684e+00 0 0 0
253 2 4.9220000000000006e+00 2.2733744199610655e+01 5.9947779688418903e+00 0 0 0
255 2 4.9220000000000006e+00 2.1312885187134995e+01 5.9947779688418903e+00 0 0 0
485 2 4.9220000000000006e+00 2.4154603212086325e+01 8.9871590732722684e+00 0 0 0
486 2 4.9220000000000006e+00 2.1312885187134995e+01 8.9871590732722684e+00 0 0 0
487 2 6.1524999999999990e+00 2.2023314693372832e+01 8.9871590732722684e+00 0 0 0
773 2 0.0000000000000000e+00 2.6996321237037659e+01 5.9947779688418903e+00 0 0 0
775 2 0.0000000000000000e+00 2.5575462224561992e+01 5.9947779688418903e+00 0 0 0
777 2 1.2305000000000001e+00 2.4865032718324155e+01 5.9947779688418903e+00 0 0 0
785 2 1.2305000000000010e+00 2.7706750743275496e+01 5.9947779688418903e+00 0 0 0
787 2 2.4610000000000003e+00 2.6996321237037659e+01 5.9947779688418903e+00 0 0 0
789 2 2.4610000000000003e+00 2.5575462224561992e+01 5.9947779688418903e+00 0 0 0
791 2 3.6914999999999996e+00 2.4865032718324166e+01 5.9947779688418903e+00 0 0 0
807 2 3.6914999999999996e+00 2.7706750743275496e+01 5.9947779688418903e+00 0 0 0
1088 2 0.0000000000000000e+00 2.5575462224561992e+01 8.9871590732722684e+00 0 0 0
1089 2 1.2305000000000001e+00 2.6285891730799833e+01 8.9871590732722684e+00 0 0 0
1093 2 1.2305000000000010e+00 2.7706750743275496e+01 8.9871590732722684e+00 0 0 0
1095 2 2.4610000000000003e+00 2.5575462224561992e+01 8.9871590732722684e+00 0 0 0
1096 2 3.6914999999999991e+00 2.6285891730799833e+01 8.9871590732722684e+00 0 0 0
1104 2 3.6914999999999996e+00 2.7706750743275496e+01 8.9871590732722684e+00 0 0 0
809 2 4.9220000000000006e+00 2.6996321237037659e+01 5.9947779688418903e+00 0 0 0
811 2 4.9220000000000006e+00 2.5575462224561992e+01 5.9947779688418903e+00 0 0 0
813 2 6.1524999999999990e+00 2.4865032718324155e+01 5.9947779688418903e+00 0 0 0
837 2 6.1524999999999990e+00 2.7706750743275496e+01 5.9947779688418903e+00 0 0 0
1106 2 4.9220000000000006e+00 2.5575462224561992e+01 8.9871590732722684e+00 0 0 0
1119 2 6.1524999999999990e+00 2.7706750743275496e+01 8.9871590732722684e+00 0 0 0
783 2 1.2304999999999993e+00 2.9127609755751163e+01 5.9947779688418903e+00 0 0 0
805 2 3.6914999999999991e+00 2.9127609755751152e+01 5.9947779688418903e+00 0 0 0
1087 2 0.0000000000000000e+00 2.8417180249513333e+01 8.9871590732722684e+00 0 0 0
1094 2 2.4610000000000003e+00 2.8417180249513326e+01 8.9871590732722684e+00 0 0 0
835 2 6.1524999999999981e+00 2.9127609755751152e+01 5.9947779688418903e+00 0 0 0
1105 2 4.9220000000000006e+00 2.8417180249513336e+01 8.9871590732722684e+00 0 0 0
3393 1 2.5539158210206754e+00 2.2864227772422723e+01 1.1826665786836010e+01 0 0 1
2624 1 3.2724675323148391e+00 2.0247285052042351e+01 1.1988025353050423e+01 1 0 0
13 1 4.1946993090699953e+00 2.5308607744820510e+01 1.1450310232969246e+01 1 0 0
1935 1 3.3531540901483381e+00 2.8131015679160580e+01 1.1519914483171201e+01 0 1 -1
1269 1 3.8219358684450055e-01 2.7768464964290228e+01 1.1585457351922093e+01 0 0 -1
3293 1 3.5142177430611352e+00 2.0334984350875175e+01 1.4715212579956845e+01 1 0 0
2598 1 3.7191279146467848e+00 2.2352591370276340e+01 1.7660623950311539e+01 0 0 0
2592 1 3.9831070322006606e-01 2.7901942740686941e+01 1.5043415929122041e+01 1 -1 0
1965 1 3.0512825059673641e+00 2.7729311714510537e+01 1.4318563216808629e+01 1 0 0
656 1 3.7341214135567982e+00 2.5364255042447340e+01 1.4191981482569906e+01 -1 0 0
1238 1 4.0318371135734115e+00 2.5256991336148495e+01 1.7331689188873646e+01 0 0 0
3309 1 2.3675968528521429e+00 2.2960604206619568e+01 1.4907924359348174e+01 2 1 0
3989 1 4.5883824430783173e+00 2.4543200534464013e+01 2.0804205410839963e+01 1 -1 0
3399 1 1.5936072693288157e+00 2.1506410017390696e+01 1.9223971795528321e+01 1 1 -2
2710 1 2.1995399141064209e-01 2.7549831732905432e+01 1.7914146845254308e+01 1 -1 0
695 1 2.2634984827892928e+00 2.2821700595847204e+01 2.1421293003650845e+01 0 0 -2
750 1 3.1612362532141791e+00 2.0837572048831248e+01 2.3226120847660368e+01 0 0 -1
1934 1 4.5343563968419858e+00 1.9848707449367893e+01 2.5564367895005958e+01 2 0 1
1230 1 5.9114392567222396e+00 2.0714195894218118e+01 1.8302398408130585e+01 0 0 1
692 1 3.0745924651409404e+00 2.7419308080634774e+01 1.8632474854442805e+01 0 -1 0
3991 1 3.0829098071917382e+00 2.6997655886210850e+01 2.1227311604509410e+01 0 0 0
1992 1 1.4420585391719769e+00 2.5021014639246996e+01 2.2681517863634923e+01 0 0 0
1237 1 3.0596484949004963e+00 2.7063902771335378e+01 2.5941268427606850e+01 0 0 -1
2628 1 4.7083322483657923e+00 2.2670309974020757e+01 2.5631816731902703e+01 1 0 -1
1329 1 5.3255647182676773e+00 2.7754717352193012e+01 2.4678452382943377e+01 1 0 0
2643 1 2.4295883844072312e+00 2.4416706245758533e+01 2.5318812843565482e+01 0 -1 -1
603 1 5.8041866805625402e+00 2.7485783358860328e+01 2.1832752351126452e+01 0 0 -1
1918 1 9.5565930811447070e-02 2.1281415135816669e+01 2.3532272578388316e+01 1 0 0
1415 1 5.4037262903150429e+00 2.0722597098228064e+01 2.1417526577084516e+01 0 0 -1
2656 1 1.3062534823678487e+00 2.9084049980394379e+01 2.5308816153258512e+01 0 -1 0
780 2 0.0000000000000000e+00 2.9838039261988989e+01 3.0023968644111307e+00 0 0 0
782 2 1.2304999999999993e+00 3.0548468768226829e+01 3.0023968644111307e+00 0 0 0
802 2 2.4610000000000003e+00 2.9838039261988989e+01 3.0023968644111307e+00 0 0 0
804 2 3.6915000000000004e+00 3.0548468768226829e+01 3.0023968644111307e+00 0 0 0
832 2 4.9220000000000006e+00 2.9838039261988989e+01 3.0023968644111307e+00 0 0 0
778 2 0.0000000000000000e+00 3.2679757286940330e+01 3.0023968644111307e+00 0 0 0
794 2 0.0000000000000000e+00 3.4100616299415996e+01 3.0023968644111307e+00 0 0 0
798 2 1.2304999999999993e+00 3.1969327780702493e+01 3.0023968644111307e+00 0 0 0
800 2 2.4610000000000003e+00 3.2679757286940337e+01 3.0023968644111307e+00 0 0 0
824 2 2.4609999999999985e+00 3.4100616299415996e+01 3.0023968644111307e+00 0 0 0
828 2 3.6914999999999996e+00 3.1969327780702493e+01 3.0023968644111307e+00 0 0 0
830 2 4.9220000000000015e+00 3.2679757286940337e+01 3.0023968644111307e+00 0 0 0
862 2 4.9220000000000006e+00 3.4100616299415996e+01 3.0023968644111307e+00 0 0 0
796 2 1.2305000000000010e+00 3.4811045805653833e+01 3.0023968644111307e+00 0 0 0
826 2 3.6915000000000018e+00 3.4811045805653833e+01 3.0023968644111307e+00 0 0 0
792 2 0.0000000000000000e+00 3.6942334324367337e+01 3.0023968644111307e+00 0 0 0
816 2 0.0000000000000000e+00 3.8363193336842990e+01 3.0023968644111307e+00 0 0 0
820 2 1.2304999999999993e+00 3.6231904818129486e+01 3.0023968644111307e+00 0 0 0
822 2 2.4610000000000021e+00 3.6942334324367337e+01 3.0023968644111307e+00 0 0 0
854 2 2.4610000000000003e+00 3.8363193336842990e+01 3.0023968644111307e+00 0 0 0
858 2 3.6914999999999996e+00 3.6231904818129486e+01 3.0023968644111307e+00 0 0 0
860 2 4.9220000000000006e+00 3.6942334324367316e+01 3.0023968644111307e+00 0 0 0
899 2 4.9220000000000006e+00 3.8363193336842990e+01 3.0023968644111307e+00 0 0 0
818 2 1.2305000000000010e+00 3.9073622843080841e+01 3.0023968644111307e+00 0 0 0
856 2 3.6915000000000018e+00 3.9073622843080820e+01 3.0023968644111307e+00 0 0 0
779 2 0.0000000000000000e+00 3.1258898274464656e+01 5.9947779688418903e+00 0 0 0
781 2 0.0000000000000000e+00 2.9838039261988989e+01 5.9947779688418903e+00 0 0 0
801 2 2.4609999999999985e+00 3.1258898274464656e+01 5.9947779688418903e+00 0 0 0
803 2 2.4610000000000003e+00 2.9838039261988989e+01 5.9947779688418903e+00 0 0 0
1091 2 0.0000000000000000e+00 2.9838039261988989e+01 8.9871590732722684e+00 0 0 0
1092 2 1.2304999999999993e+00 3.0548468768226829e+01 8.9871590732722684e+00 0 0 0
1102 2 2.4610000000000003e+00 2.9838039261988989e+01 8.9871590732722684e+00 0 0 0
1103 2 3.6915000000000004e+00 3.0548468768226829e+01 8.9871590732722684e+00 0 0 0
831 2 4.9219999999999979e+00 3.1258898274464656e+01 5.9947779688418903e+00 0 0 0
833 2 4.9220000000000006e+00 2.9838039261988989e+01 5.9947779688418903e+00 0 0 0
1117 2 4.9220000000000006e+00 2.9838039261988989e+01 8.9871590732722684e+00 0 0 0
795 2 0.0000000000000000e+00 3.4100616299415996e+01 5.9947779688418903e+00 0 0 0
797 2 1.2304999999999993e+00 3.3390186793178160e+01 5.9947779688418903e+00 0 0 0
799 2 1.2304999999999993e+00 3.1969327780702493e+01 5.9947779688418903e+00 0 0 0
825 2 2.4609999999999985e+00 3.4100616299415996e+01 5.9947779688418903e+00 0 0 0
827 2 3.6914999999999978e+00 3.3390186793178160e+01 5.9947779688418903e+00 0 0 0
829 2 3.6914999999999996e+00 3.1969327780702493e+01 5.9947779688418903e+00 0 0 0
1090 2 0.0000000000000000e+00 3.2679757286940330e+01 8.9871590732722684e+00 0 0 0
1098 2 0.0000000000000000e+00 3.4100616299415996e+01 8.9871590732722684e+00 0 0 0
1100 2 1.2304999999999993e+00 3.1969327780702493e+01 8.9871590732722684e+00 0 0 0
1101 2 2.4610000000000003e+00 3.2679757286940337e+01 8.9871590732722684e+00 0 0 0
1113 2 2.4609999999999985e+00 3.4100616299415996e+01 8.9871590732722684e+00 0 0 0
1115 2 3.6914999999999996e+00 3.1969327780702493e+01 8.9871590732722684e+00 0 0 0
863 2 4.9220000000000006e+00 3.4100616299415996e+01 5.9947779688418903e+00 0 0 0
865 2 6.1524999999999990e+00 3.3390186793178160e+01 5.9947779688418903e+00 0 0 0