LAMMPS data file via write_data, version 16 Mar 2018, timestep = 8000000

4055 atoms
2 atom types

0.0000000000000000e+00 4.9219999999999999e+01 xlo xhi
0.0000000000000000e+00 4.9019635930410494e+01 ylo yhi
1.1897258392523913e+00 2.6750274160741881e+01 zlo zhi

Masses

1 18.015
2 12.01

Atoms # atomic

53 2 0.0000000000000000e+00 2.8417180249513345e+00 2.8006694746928193e+00 0 0 0
55 2 0.0000000000000000e+00 0.0000000000000000e+00 2.8006694746928193e+00 0 0 0
57 2 1.2305000000000001e+00 7.1042950623783474e-01 2.8006694746928193e+00 0 0 0
64 2 1.2305000000000001e+00 2.1312885187134998e+00 2.8006694746928193e+00 0 0 0
66 2 2.4610000000000003e+00 2.8417180249513345e+00 2.8006694746928193e+00 0 0 0
68 2 2.4610000000000003e+00 0.0000000000000000e+00 2.8006694746928193e+00 0 0 0
70 2 3.6915000000000004e+00 7.1042950623783474e-01 2.8006694746928193e+00 0 0 0
85 2 3.6914999999999996e+00 2.1312885187134998e+00 2.8006694746928193e+00 0 0 0
87 2 4.9220000000000006e+00 2.8417180249513332e+00 2.8006694746928193e+00 0 0 0
89 2 4.9220000000000006e+00 0.0000000000000000e+00 2.8006694746928193e+00 0 0 0
60 2 0.0000000000000000e+00 4.2625770374269996e+00 2.8006694746928193e+00 0 0 0
81 2 2.4610000000000003e+00 4.2625770374269996e+00 2.8006694746928193e+00 0 0 0
110 2 4.9220000000000006e+00 4.2625770374269978e+00 2.8006694746928193e+00 0 0 0
62 2 1.2305000000000001e+00 4.9730065436648339e+00 2.8006694746928193e+00 0 0 0
77 2 1.2305000000000001e+00 6.3938655561404980e+00 2.8006694746928193e+00 0 0 0
83 2 3.6914999999999996e+00 4.9730065436648339e+00 2.8006694746928193e+00 0 0 0
106 2 3.6914999999999996e+00 6.3938655561404980e+00 2.8006694746928193e+00 0 0 0
58 2 0.0000000000000000e+00 7.1042950623783341e+00 2.8006694746928193e+00 0 0 0
73 2 0.0000000000000000e+00 8.5251540748539991e+00 2.8006694746928193e+00 0 0 0
75 2 1.2305000000000001e+00 9.2355835810918343e+00 2.8006694746928193e+00 0 0 0
79 2 2.4610000000000003e+00 7.1042950623783341e+00 2.8006694746928193e+00 0 0 0
102 2 2.4610000000000003e+00 8.5251540748539991e+00 2.8006694746928193e+00 0 0 0
104 2 3.6915000000000004e+00 9.2355835810918343e+00 2.8006694746928193e+00 0 0 0
108 2 4.9220000000000006e+00 7.1042950623783341e+00 2.8006694746928193e+00 0 0 0
139 2 4.9220000000000006e+00 8.5251540748539991e+00 2.8006694746928193e+00 0 0 0
54 2 0.0000000000000000e+00 1.4208590124756650e+00 5.8480895171483596e+00 0 0 0
56 2 0.0000000000000000e+00 0.0000000000000000e+00 5.8480895171483596e+00 0 0 0
65 2 1.2305000000000001e+00 2.1312885187134998e+00 5.8480895171483596e+00 0 0 0
67 2 2.4610000000000003e+00 1.4208590124756650e+00 5.8480895171483596e+00 0 0 0
69 2 2.4610000000000003e+00 0.0000000000000000e+00 5.8480895171483596e+00 0 0 0
86 2 3.6914999999999996e+00 2.1312885187134998e+00 5.8480895171483596e+00 0 0 0
382 2 0.0000000000000000e+00 2.8417180249513345e+00 8.8955095595992582e+00 0 0 0
383 2 0.0000000000000000e+00 0.0000000000000000e+00 8.8955095595992582e+00 0 0 0
384 2 1.2305000000000001e+00 7.1042950623783474e-01 8.8955095595992582e+00 0 0 0
388 2 1.2305000000000001e+00 2.1312885187134998e+00 8.8955095595992582e+00 0 0 0
389 2 2.4610000000000003e+00 2.8417180249513345e+00 8.8955095595992582e+00 0 0 0
390 2 2.4610000000000003e+00 0.0000000000000000e+00 8.8955095595992582e+00 0 0 0
391 2 3.6915000000000004e+00 7.1042950623783474e-01 8.8955095595992582e+00 0 0 0
399 2 3.6914999999999996e+00 2.1312885187134998e+00 8.8955095595992582e+00 0 0 0
88 2 4.9220000000000006e+00 1.4208590124756650e+00 5.8480895171483596e+00 0 0 0
90 2 4.9220000000000006e+00 0.0000000000000000e+00 5.8480895171483596e+00 0 0 0
400 2 4.9220000000000006e+00 2.8417180249513332e+00 8.8955095595992582e+00 0 0 0
401 2 4.9220000000000006e+00 0.0000000000000000e+00 8.8955095595992582e+00 0 0 0
61 2 0.0000000000000000e+00 4.2625770374269996e+00 5.8480895171483596e+00 0 0 0
63 2 1.2305000000000001e+00 3.5521475311891644e+00 5.8480895171483596e+00 0 0 0
82 2 2.4610000000000003e+00 4.2625770374269996e+00 5.8480895171483596e+00 0 0 0
84 2 3.6914999999999996e+00 3.5521475311891644e+00 5.8480895171483596e+00 0 0 0
386 2 0.0000000000000000e+00 4.2625770374269996e+00 8.8955095595992582e+00 0 0 0
397 2 2.4610000000000003e+00 4.2625770374269996e+00 8.8955095595992582e+00 0 0 0
111 2 4.9220000000000006e+00 4.2625770374269978e+00 5.8480895171483596e+00 0 0 0
412 2 4.9220000000000006e+00 4.2625770374269978e+00 8.8955095595992582e+00 0 0 0
59 2 0.0000000000000000e+00 5.6834360499026637e+00 5.8480895171483596e+00 0 0 0
78 2 1.2305000000000001e+00 6.3938655561404980e+00 5.8480895171483596e+00 0 0 0
80 2 2.4610000000000003e+00 5.6834360499026637e+00 5.8480895171483596e+00 0 0 0
107 2 3.6914999999999996e+00 6.3938655561404980e+00 5.8480895171483596e+00 0 0 0
387 2 1.2305000000000001e+00 4.9730065436648339e+00 8.8955095595992582e+00 0 0 0
395 2 1.2305000000000001e+00 6.3938655561404980e+00 8.8955095595992582e+00 0 0 0
398 2 3.6914999999999996e+00 4.9730065436648339e+00 8.8955095595992582e+00 0 0 0
410 2 3.6914999999999996e+00 6.3938655561404980e+00 8.8955095595992582e+00 0 0 0
109 2 4.9220000000000006e+00 5.6834360499026637e+00 5.8480895171483596e+00 0 0 0
74 2 0.0000000000000000e+00 8.5251540748539991e+00 5.8480895171483596e+00 0 0 0
76 2 1.2305000000000001e+00 7.8147245686161639e+00 5.8480895171483596e+00 0 0 0
103 2 2.4610000000000003e+00 8.5251540748539991e+00 5.8480895171483596e+00 0 0 0
105 2 3.6914999999999996e+00 7.8147245686161639e+00 5.8480895171483596e+00 0 0 0
385 2 0.0000000000000000e+00 7.1042950623783341e+00 8.8955095595992582e+00 0 0 0
393 2 0.0000000000000000e+00 8.5251540748539991e+00 8.8955095595992582e+00 0 0 0
394 2 1.2305000000000001e+00 9.2355835810918343e+00 8.8955095595992582e+00 0 0 0
396 2 2.4610000000000003e+00 7.1042950623783341e+00 8.8955095595992582e+00 0 0 0
408 2 2.4610000000000003e+00 8.5251540748539991e+00 8.8955095595992582e+00 0 0 0
409 2 3.6915000000000004e+00 9.2355835810918343e+00 8.8955095595992582e+00 0 0 0
140 2 4.9220000000000006e+00 8.5251540748539991e+00 5.8480895171483596e+00 0 0 0
411 2 4.9220000000000006e+00 7.1042950623783341e+00 8.8955095595992582e+00 0 0 0
427 2 4.9220000000000006e+00 8.5251540748539991e+00 8.8955095595992582e+00 0 0 0
3264 1 1.9991653835569310e+00 3.1031993139280494e+00 1.1541454472286935e+01 1 0 0
1235 1 4.5663735699982588e+00 2.5701950848412940e+00 1.1341493800318153e+01 1 0 0
3284 1 1.1708086940911171e+00 5.6879779193504287e+00 1.1495759923768915e+01 0 0 0
3973 1 5.6199806395938419e+00 7.0506487960135509e+00 1.1162723890523557e+01 1 0 -1
3891 1 2.9256741947663656e+00 7.6574795056994711e+00 1.1761541615408493e+01 -1 1 1
4020 1 5.5730122132271713e+00 6.6972750705771855e-02 1.1935258791778969e+01 0 -1 -1
1426 1 2.3251604156963812e-01 8.3623614811169156e-01 1.1806792111396881e+01 1 0 -1
2013 1 4.6093212585938508e+00 3.0125141880148822e+00 1.5227580021835891e+01 0 -1 0
2071 1 1.7132882844610970e+00 3.4438782814327467e+00 1.4671104328529349e+01 0 1 -1
2773 1 4.8095031593393447e+00 3.0118214772642298e+00 1.8019347108701481e+01 0 1 0
647 1 1.2101017319845460e+00 5.8367171448005646e+00 2.2602720081897900e+01 0 1 0
3902 1 5.9346263174663800e+00 7.2295045628883416e+00 2.2401468231978022e+01 0 1 1
2599 1 1.2228304357288116e+00 5.9943514152390014e+00 2.5063245693601949e+01 0 1 0
1997 1 1.3469142340884597e+00 6.0559662326507109e+00 1.5468483263331823e+01 0 0 0
2613 1 2.9237780595608913e+00 7.9663604221243594e+00 1.4455268529516706e+01 1 0 -1
690 1 1.2679528341113144e+00 5.7431233140314983e+00 1.8401942673900450e+01 0 2 0
2686 1 5.9430446345428312e+00 7.3480506729230690e+00 1.7946455274547858e+01 0 0 0
3935 1 5.0134868842011215e-01 8.2752024924213909e+00 2.1328011737879187e+01 1 1 0
3362 1 2.9470424393682118e+00 8.9572629111114999e-01 1.8981093303258739e+01 0 1 1
2551 1 2.8180711959685847e+00 5.9369921314655161e-01 2.1725202502242631e+01 0 1 0
2671 1 4.7350391154983358e+00 2.5569624818658396e+00 2.2683435001059657e+01 1 1 -1
3942 1 4.0762587235936838e+00 5.5915471966670909e+00 1.8843368205164055e+01 0 0 0
691 1 3.6824236667824228e-01 9.7226986590492415e-01 1.4838780465446227e+01 0 0 0
3452 1 4.0082903413363713e+00 5.2756190091230923e+00 2.1575309347562687e+01 0 0 0
4047 1 4.2120969908440425e-01 8.3358865425117799e+00 2.5798364545317142e+01 0 0 0
2554 1 5.5102517155119757e-01 8.3590163668399953e+00 1.8670175253421284e+01 0 0 -1
2739 1 5.0914255085389981e-01 1.3410317293688245e+00 1.7878006096616268e+01 1 1 0
2621 1 3.7554126809999557e+00 5.2563645947882138e+00 2.5932419088559783e+01 1 1 -1
1351 1 2.3193097093673551e+00 5.9974745059695900e-01 2.5641106566906657e+01 0 1 -1
2762 1 4.4367748106742972e+00 2.5791576293408554e+00 2.5578696339663516e+01 0 1 0
2107 1 5.5833070956771449e+00 7.5856478239835408e+00 1.5032076389734831e+01 1 0 0
1333 1 5.1625708900872667e+00 9.3926822396451559e+00 2.5840025608491423e+01 0 1 0
2081 1 5.5184231723155639e+00 2.3130804883227413e-01 1.4607485467183833e+01 1 0 -1
753 1 3.2732202183278714e-01 1.1576330315793240e+00 2.2709868598580357e+01 0 0 0
3398 1 5.6783965244340955e+00 7.0168903289765518e+00 2.5109647645153828e+01 0 1 0
3967 1 2.4597118545095631e+00 9.7702620335838617e+00 2.5155496381934164e+01 0 -1 -2
71 2 0.0000000000000000e+00 1.1366872099805333e+01 2.8006694746928193e+00 0 0 0
94 2 0.0000000000000000e+00 1.2787731112280996e+01 2.8006694746928193e+00 0 0 0
96 2 1.2305000000000001e+00 1.3498160618518829e+01 2.8006694746928193e+00 0 0 0
98 2 1.2305000000000001e+00 1.0656442593567498e+01 2.8006694746928193e+00 0 0 0
100 2 2.4610000000000003e+00 1.1366872099805333e+01 2.8006694746928193e+00 0 0 0
131 2 2.4610000000000003e+00 1.2787731112280996e+01 2.8006694746928193e+00 0 0 0
133 2 3.6915000000000004e+00 1.3498160618518829e+01 2.8006694746928193e+00 0 0 0
135 2 3.6914999999999996e+00 1.0656442593567499e+01 2.8006694746928193e+00 0 0 0
137 2 4.9220000000000006e+00 1.1366872099805333e+01 2.8006694746928193e+00 0 0 0
176 2 4.9220000000000006e+00 1.2787731112280996e+01 2.8006694746928193e+00 0 0 0
178 2 6.1524999999999990e+00 1.3498160618518829e+01 2.8006694746928193e+00 0 0 0
92 2 0.0000000000000000e+00 1.5629449137232333e+01 2.8006694746928193e+00 0 0 0
123 2 0.0000000000000000e+00 1.7050308149707998e+01 2.8006694746928193e+00 0 0 0
127 2 1.2305000000000001e+00 1.4919019630994494e+01 2.8006694746928193e+00 0 0 0
129 2 2.4610000000000003e+00 1.5629449137232328e+01 2.8006694746928193e+00 0 0 0
168 2 2.4610000000000003e+00 1.7050308149707998e+01 2.8006694746928193e+00 0 0 0
172 2 3.6915000000000004e+00 1.4919019630994494e+01 2.8006694746928193e+00 0 0 0
174 2 4.9220000000000006e+00 1.5629449137232333e+01 2.8006694746928193e+00 0 0 0
215 2 4.9220000000000006e+00 1.7050308149707998e+01 2.8006694746928193e+00 0 0 0
219 2 6.1524999999999990e+00 1.4919019630994494e+01 2.8006694746928193e+00 0 0 0
125 2 1.2305000000000001e+00 1.7760737655945832e+01 2.8006694746928193e+00 0 0 0
164 2 1.2305000000000001e+00 1.9181596668421495e+01 2.8006694746928193e+00 0 0 0
170 2 3.6914999999999996e+00 1.7760737655945832e+01 2.8006694746928193e+00 0 0 0
211 2 3.6914999999999996e+00 1.9181596668421495e+01 2.8006694746928193e+00 0 0 0
72 2 0.0000000000000000e+00 9.9460130873296642e+00 5.8480895171483596e+00 0 0 0
101 2 2.4610000000000003e+00 9.9460130873296642e+00 5.8480895171483596e+00 0 0 0
138 2 4.9220000000000006e+00 9.9460130873296642e+00 5.8480895171483596e+00 0 0 0
95 2 0.0000000000000000e+00 1.2787731112280996e+01 5.8480895171483596e+00 0 0 0
97 2 1.2305000000000001e+00 1.2077301606043163e+01 5.8480895171483596e+00 0 0 0
99 2 1.2305000000000001e+00 1.0656442593567498e+01 5.8480895171483596e+00 0 0 0
132 2 2.4610000000000003e+00 1.2787731112280996e+01 5.8480895171483596e+00 0 0 0
134 2 3.6914999999999996e+00 1.2077301606043163e+01 5.8480895171483596e+00 0 0 0
136 2 3.6914999999999996e+00 1.0656442593567499e+01 5.8480895171483596e+00 0 0 0
392 2 0.0000000000000000e+00 1.1366872099805333e+01 8.8955095595992582e+00 0 0 0
404 2 0.0000000000000000e+00 1.2787731112280996e+01 8.8955095595992582e+00 0 0 0
405 2 1.2305000000000001e+00 1.3498160618518829e+01 8.8955095595992582e+00 0 0 0
406 2 1.2305000000000001e+00 1.0656442593567498e+01 8.8955095595992582e+00 0 0 0
407 2 2.4610000000000003e+00 1.1366872099805333e+01 8.8955095595992582e+00 0 0 0
423 2 2.4610000000000003e+00 1.2787731112280996e+01 8.8955095595992582e+00 0 0 0
424 2 3.6915000000000004e+00 1.3498160618518829e+01 8.8955095595992582e+00 0 0 0
425 2 3.6914999999999996e+00 1.0656442593567499e+01 8.8955095595992582e+00 0 0 0
177 2 4.9220000000000006e+00 1.2787731112280996e+01 5.8480895171483596e+00 0 0 0
426 2 4.9220000000000006e+00 1.1366872099805333e+01 8.8955095595992582e+00 0 0 0
446 2 4.9220000000000006e+00 1.2787731112280996e+01 8.8955095595992582e+00 0 0 0
447 2 6.1524999999999990e+00 1.3498160618518829e+01 8.8955095595992582e+00 0 0 0
93 2 0.0000000000000000e+00 1.4208590124756663e+01 5.8480895171483596e+00 0 0 0
130 2 2.4610000000000003e+00 1.4208590124756663e+01 5.8480895171483596e+00 0 0 0
175 2 4.9220000000000006e+00 1.4208590124756663e+01 5.8480895171483596e+00 0 0 0
124 2 0.0000000000000000e+00 1.7050308149707998e+01 5.8480895171483596e+00 0 0 0
126 2 1.2305000000000001e+00 1.6339878643470165e+01 5.8480895171483596e+00 0 0 0
128 2 1.2305000000000001e+00 1.4919019630994494e+01 5.8480895171483596e+00 0 0 0
169 2 2.4610000000000003e+00 1.7050308149707998e+01 5.8480895171483596e+00 0 0 0
171 2 3.6915000000000004e+00 1.6339878643470165e+01 5.8480895171483596e+00 0 0 0
173 2 3.6915000000000004e+00 1.4919019630994494e+01 5.8480895171483596e+00 0 0 0
403 2 0.0000000000000000e+00 1.5629449137232333e+01 8.8955095595992582e+00 0 0 0
419 2 0.0000000000000000e+00 1.7050308149707998e+01 8.8955095595992582e+00 0 0 0
421 2 1.2305000000000001e+00 1.4919019630994494e+01 8.8955095595992582e+00 0 0 0
422 2 2.4610000000000003e+00 1.5629449137232328e+01 8.8955095595992582e+00 0 0 0
442 2 2.4610000000000003e+00 1.7050308149707998e+01 8.8955095595992582e+00 0 0 0
444 2 3.6915000000000004e+00 1.4919019630994494e+01 8.8955095595992582e+00 0 0 0
216 2 4.9220000000000006e+00 1.7050308149707998e+01 5.8480895171483596e+00 0 0 0
220 2 6.1524999999999990e+00 1.4919019630994494e+01 5.8480895171483596e+00 0 0 0
445 2 4.9220000000000006e+00 1.5629449137232333e+01 8.8955095595992582e+00 0 0 0
466 2 4.9220000000000006e+00 1.7050308149707998e+01 8.8955095595992582e+00 0 0 0
468 2 6.1524999999999990e+00 1.4919019630994494e+01 8.8955095595992582e+00 0 0 0
122 2 0.0000000000000000e+00 1.8471167162183658e+01 5.8480895171483596e+00 0 0 0
165 2 1.2305000000000001e+00 1.9181596668421495e+01 5.8480895171483596e+00 0 0 0
167 2 2.4610000000000003e+00 1.8471167162183658e+01 5.8480895171483596e+00 0 0 0
212 2 3.6914999999999996e+00 1.9181596668421495e+01 5.8480895171483596e+00 0 0 0
420 2 1.2305000000000001e+00 1.7760737655945832e+01 8.8955095595992582e+00 0 0 0
440 2 1.2305000000000001e+00 1.9181596668421495e+01 8.8955095595992582e+00 0 0 0
443 2 3.6914999999999996e+00 1.7760737655945832e+01 8.8955095595992582e+00 0 0 0
464 2 3.6914999999999996e+00 1.9181596668421495e+01 8.8955095595992582e+00 0 0 0
214 2 4.9220000000000006e+00 1.8471167162183658e+01 5.8480895171483596e+00 0 0 0
2026 1 3.8559900261116735e+00 1.2391644419304237e+01 1.1556945075956980e+01 0 0 0
2052 1 2.1967424509495550e+00 1.0414088712874932e+01 1.1457696434350913e+01 0 0 0
604 1 2.3443897045956290e+00 1.4817017107307132e+01 1.1584522264754995e+01 0 0 1
2624 1 4.2670780180623513e+00 1.7298014052088554e+01 1.1459435702046125e+01 1 0 0
3898 1 2.6911627180317503e+00 1.9499146925835877e+01 1.1822483206059193e+01 0 1 0
1969 1 2.3083821430599016e+00 1.0544820159755439e+01 1.5034261119446974e+01 -1 0 1
2743 1 2.0031402702646579e+00 1.9563181673224328e+01 1.4689364298715175e+01 1 0 1
4022 1 3.5291843763978088e+00 1.5040712998533728e+01 1.4907528057706399e+01 0 0 -1
1382 1 1.0911964732396490e-01 1.7653475391450218e+01 1.8209161859635806e+01 0 0 0
2690 1 4.8177311730900216e+00 1.8727349760454850e+01 2.2424348774985788e+01 1 0 0
3958 1 2.3048683662954822e-01 1.7658561453787772e+01 1.5597471394568958e+01 1 1 0
3444 1 4.9216113910120480e+00 1.9099363391465690e+01 1.8064620054585433e+01 0 0 0
2753 1 8.2910813739993972e-01 1.5234596433736392e+01 1.4211122642799602e+01 0 1 1
2661 1 2.5779456700433161e+00 1.6792828273511226e+01 2.5873614593760841e+01 0 0 0
743 1 8.6114198274001102e-02 1.7465097449906693e+01 2.2403779413288710e+01 0 0 0
1958 1 1.7489925579653380e+00 1.2962202836105428e+01 1.8604450164004824e+01 0 0 -1
2024 1 1.6869972741627342e+00 1.2707552443964783e+01 2.1387497319644304e+01 1 0 0
2074 1 2.2955401339020050e+00 1.0292425479107015e+01 1.7731614375515719e+01 0 1 0
3293 1 4.5440884556757952e+00 1.9174012097479061e+01 1.5432889235980072e+01 1 0 0
670 1 4.3953550762918541e+00 1.8654798837157539e+01 2.5207575990997441e+01 0 -1 0
2041 1 3.5899608745644924e+00 1.4959983086491011e+01 1.7783584789131567e+01 1 1 -1
1398 1 3.4158789344566980e+00 1.4518807812448998e+01 2.5093884507352968e+01 1 0 0
621 1 2.7536732757497790e+00 1.6878544601726563e+01 2.1755824553356106e+01 0 0 0
19 1 2.9699046045140745e+00 1.7267684329472321e+01 1.8847353421050663e+01 0 0 0
1395 1 2.0779380543126065e+00 1.2356642113441248e+01 2.6029476952309103e+01 0 0 0
677 1 2.2917970785195374e+00 1.0020886487073895e+01 2.2606617987958117e+01 1 1 0
1927 1 3.5043852083178790e+00 1.4263033628596366e+01 2.2484907717676847e+01 0 -1 0
3241 1 1.6951765645520679e-02 1.7359860052781674e+01 2.4997027081677928e+01 1 -1 0
581 1 4.9050971631081062e+00 9.8700799884093779e+00 1.8727429527929736e+01 1 0 0
736 1 5.0691445346228559e+00 9.8210611278184974e+00 2.1628478849449216e+01 1 1 1
1397 1 5.2559693001092906e+00 1.6841122583438509e+01 1.4250235600959849e+01 0 0 1
539 1 4.1771182449131290e+00 1.2431083728889835e+01 1.4307952653304845e+01 1 0 1
121 2 0.0000000000000000e+00 1.9892026174659328e+01 2.8006694746928193e+00 0 0 0
166 2 2.4610000000000003e+00 1.9892026174659328e+01 2.8006694746928193e+00 0 0 0
213 2 4.9220000000000006e+00 1.9892026174659328e+01 2.8006694746928193e+00 0 0 0
158 2 0.0000000000000000e+00 2.4154603212086325e+01 2.8006694746928193e+00 0 0 0
160 2 0.0000000000000000e+00 2.1312885187134999e+01 2.8006694746928193e+00 0 0 0
162 2 1.2304999999999993e+00 2.2023314693372832e+01 2.8006694746928193e+00 0 0 0
203 2 1.2304999999999993e+00 2.3444173705848499e+01 2.8006694746928193e+00 0 0 0
205 2 2.4610000000000003e+00 2.4154603212086325e+01 2.8006694746928193e+00 0 0 0
207 2 2.4610000000000003e+00 2.1312885187134995e+01 2.8006694746928193e+00 0 0 0
209 2 3.6914999999999996e+00 2.2023314693372832e+01 2.8006694746928193e+00 0 0 0
250 2 3.6915000000000004e+00 2.3444173705848499e+01 2.8006694746928193e+00 0 0 0
252 2 4.9220000000000006e+00 2.4154603212086325e+01 2.8006694746928193e+00 0 0 0
254 2 4.9220000000000006e+00 2.1312885187134995e+01 2.8006694746928193e+00 0 0 0
256 2 6.1524999999999990e+00 2.2023314693372832e+01 2.8006694746928193e+00 0 0 0
774 2 0.0000000000000000e+00 2.5575462224561992e+01 2.8006694746928193e+00 0 0 0
776 2 1.2305000000000001e+00 2.6285891730799833e+01 2.8006694746928193e+00 0 0 0
784 2 1.2305000000000010e+00 2.7706750743275496e+01 2.8006694746928193e+00 0 0 0
788 2 2.4610000000000003e+00 2.5575462224561992e+01 2.8006694746928193e+00 0 0 0
790 2 3.6914999999999991e+00 2.6285891730799833e+01 2.8006694746928193e+00 0 0 0
806 2 3.6914999999999996e+00 2.7706750743275496e+01 2.8006694746928193e+00 0 0 0
810 2 4.9220000000000006e+00 2.5575462224561992e+01 2.8006694746928193e+00 0 0 0
836 2 6.1524999999999990e+00 2.7706750743275496e+01 2.8006694746928193e+00 0 0 0
772 2 0.0000000000000000e+00 2.8417180249513333e+01 2.8006694746928193e+00 0 0 0
786 2 2.4610000000000003e+00 2.8417180249513326e+01 2.8006694746928193e+00 0 0 0
808 2 4.9220000000000006e+00 2.8417180249513336e+01 2.8006694746928193e+00 0 0 0
163 2 1.2305000000000001e+00 2.0602455680897162e+01 5.8480895171483596e+00 0 0 0
210 2 3.6915000000000004e+00 2.0602455680897162e+01 5.8480895171483596e+00 0 0 0
418 2 0.0000000000000000e+00 1.9892026174659328e+01 8.8955095595992582e+00 0 0 0
441 2 2.4610000000000003e+00 1.9892026174659328e+01 8.8955095595992582e+00 0 0 0
465 2 4.9220000000000006e+00 1.9892026174659328e+01 8.8955095595992582e+00 0 0 0
159 2 0.0000000000000000e+00 2.2733744199610655e+01 5.8480895171483596e+00 0 0 0
161 2 0.0000000000000000e+00 2.1312885187134999e+01 5.8480895171483596e+00 0 0 0
204 2 1.2304999999999993e+00 2.3444173705848499e+01 5.8480895171483596e+00 0 0 0
206 2 2.4610000000000003e+00 2.2733744199610655e+01 5.8480895171483596e+00 0 0 0
208 2 2.4610000000000003e+00 2.1312885187134995e+01 5.8480895171483596e+00 0 0 0
251 2 3.6915000000000004e+00 2.3444173705848499e+01 5.8480895171483596e+00 0 0 0
437 2 0.0000000000000000e+00 2.4154603212086325e+01 8.8955095595992582e+00 0 0 0
438 2 0.0000000000000000e+00 2.1312885187134999e+01 8.8955095595992582e+00 0 0 0
439 2 1.2304999999999993e+00 2.2023314693372832e+01 8.8955095595992582e+00 0 0 0
460 2 1.2304999999999993e+00 2.3444173705848499e+01 8.8955095595992582e+00 0 0 0
461 2 2.4610000000000003e+00 2.4154603212086325e+01 8.8955095595992582e+00 0 0 0
462 2 2.4610000000000003e+00 2.1312885187134995e+01 8.8955095595992582e+00 0 0 0
463 2 3.6914999999999996e+00 2.2023314693372832e+01 8.8955095595992582e+00 0 0 0
484 2 3.6915000000000004e+00 2.3444173705848499e+01 8.8955095595992582e+00 0 0 0
253 2 4.9220000000000006e+00 2.2733744199610655e+01 5.8480895171483596e+00 0 0 0
255 2 4.9220000000000006e+00 2.1312885187134995e+01 5.8480895171483596e+00 0 0 0
485 2 4.9220000000000006e+00 2.4154603212086325e+01 8.8955095595992582e+00 0 0 0
486 2 4.9220000000000006e+00 2.1312885187134995e+01 8.8955095595992582e+00 0 0 0
487 2 6.1524999999999990e+00 2.2023314693372832e+01 8.8955095595992582e+00 0 0 0
773 2 0.0000000000000000e+00 2.6996321237037659e+01 5.8480895171483596e+00 0 0 0
775 2 0.0000000000000000e+00 2.5575462224561992e+01 5.8480895171483596e+00 0 0 0
777 2 1.2305000000000001e+00 2.4865032718324155e+01 5.8480895171483596e+00 0 0 0
785 2 1.2305000000000010e+00 2.7706750743275496e+01 5.8480895171483596e+00 0 0 0
787 2 2.4610000000000003e+00 2.6996321237037659e+01 5.8480895171483596e+00 0 0 0
789 2 2.4610000000000003e+00 2.5575462224561992e+01 5.8480895171483596e+00 0 0 0
791 2 3.6914999999999996e+00 2.4865032718324166e+01 5.8480895171483596e+00 0 0 0
807 2 3.6914999999999996e+00 2.7706750743275496e+01 5.8480895171483596e+00 0 0 0
1088 2 0.0000000000000000e+00 2.5575462224561992e+01 8.8955095595992582e+00 0 0 0
1089 2 1.2305000000000001e+00 2.6285891730799833e+01 8.8955095595992582e+00 0 0 0
1093 2 1.2305000000000010e+00 2.7706750743275496e+01 8.8955095595992582e+00 0 0 0
1095 2 2.4610000000000003e+00 2.5575462224561992e+01 8.8955095595992582e+00 0 0 0
1096 2 3.6914999999999991e+00 2.6285891730799833e+01 8.8955095595992582e+00 0 0 0
1104 2 3.6914999999999996e+00 2.7706750743275496e+01 8.8955095595992582e+00 0 0 0
809 2 4.9220000000000006e+00 2.6996321237037659e+01 5.8480895171483596e+00 0 0 0
811 2 4.9220000000000006e+00 2.5575462224561992e+01 5.8480895171483596e+00 0 0 0
813 2 6.1524999999999990e+00 2.4865032718324155e+01 5.8480895171483596e+00 0 0 0
837 2 6.1524999999999990e+00 2.7706750743275496e+01 5.8480895171483596e+00 0 0 0
1106 2 4.9220000000000006e+00 2.5575462224561992e+01 8.8955095595992582e+00 0 0 0
1119 2 6.1524999999999990e+00 2.7706750743275496e+01 8.8955095595992582e+00 0 0 0
783 2 1.2304999999999993e+00 2.9127609755751163e+01 5.8480895171483596e+00 0 0 0
805 2 3.6914999999999991e+00 2.9127609755751152e+01 5.8480895171483596e+00 0 0 0
1087 2 0.0000000000000000e+00 2.8417180249513333e+01 8.8955095595992582e+00 0 0 0
1094 2 2.4610000000000003e+00 2.8417180249513326e+01 8.8955095595992582e+00 0 0 0
835 2 6.1524999999999981e+00 2.9127609755751152e+01 5.8480895171483596e+00 0 0 0
1105 2 4.9220000000000006e+00 2.8417180249513336e+01 8.8955095595992582e+00 0 0 0
2077 1 4.2573711949208262e+00 2.1732949279510418e+01 1.1380950447255501e+01 1 0 0
1348 1 2.9292982938947847e+00 2.4375084367412111e+01 1.1901365782533425e+01 0 0 0
1408 1 5.1093023010001941e+00 2.6281265796063533e+01 1.1443398285790538e+01 0 0 -1
3400 1 1.8046102756627042e-01 2.4534536960511343e+01 1.1438793409122328e+01 1 -1 0
3414 1 4.1724740139501026e+00 2.8902098886861157e+01 1.1966750975264645e+01 0 0 0
2772 1 1.4073144517681886e+00 2.9324723744618822e+01 1.1486115940122268e+01 0 0 0
2038 1 1.3678614665618654e+00 2.2005928190027806e+01 1.5510550791891889e+01 0 0 0
2710 1 1.2247211360517027e+00 2.1940211023321979e+01 1.8259927195448277e+01 1 -1 0
1380 1 2.8580346533400380e+00 2.3920552614802279e+01 1.4736953939799928e+01 1 0 -1
3299 1 1.7515306364485288e+00 2.9123459476851064e+01 2.5774765783503192e+01 0 0 -1
3991 1 1.7675354644342045e+00 2.8950094539675110e+01 1.8921558389256546e+01 0 0 0
3309 1 5.5440576462284490e+00 2.3178543939020887e+01 1.5216899494983608e+01 2 1 0
752 1 2.2498654672512632e+00 2.6545895783180704e+01 1.5547020896218120e+01 1 0 0
692 1 2.0461247561242084e+00 2.6232753074033610e+01 1.8330887542532750e+01 0 -1 0
3419 1 2.4978998389238130e+00 2.6438083644578509e+01 2.5558398695563731e+01 1 0 0
1238 1 3.8683152942379144e+00 2.1904744755241261e+01 1.8711204856360482e+01 0 0 0
2598 1 3.6733382872533915e+00 2.1366429126018840e+01 2.1483252974620861e+01 0 0 0
2758 1 9.9615477857702450e-01 2.1940685224483840e+01 2.2327026755757942e+01 1 1 0
1980 1 5.7026425774369172e-01 2.4627238890636082e+01 2.1898598265849273e+01 2 0 1
2550 1 1.2173879731320576e-01 2.4240974089574486e+01 1.9157715734073093e+01 1 1 -1
2084 1 4.9271983620724349e+00 2.5734204935887735e+01 2.1771886103043812e+01 0 0 0
3989 1 4.7541026997920843e+00 2.6070342143188181e+01 1.8902358713722677e+01 1 -1 0
1953 1 2.5006401467703108e+00 2.6651664393775089e+01 2.2754245614132266e+01 0 0 0
1300 1 5.8935041665890973e+00 2.3700371335006956e+01 1.7986642192552701e+01 0 1 -1
3228 1 5.5730931846675602e-01 2.4468631907462068e+01 2.5895976126141598e+01 1 0 0
1992 1 2.0373916992665477e+00 2.9003848508263111e+01 2.1492283008713393e+01 0 0 0
3337 1 3.8542384951781892e+00 2.1279853503770980e+01 2.6073858948635930e+01 1 0 -1
578 1 1.2785215015549460e+00 2.1922007825843938e+01 2.5208390927380407e+01 1 -1 0
3275 1 5.2826279002405343e+00 2.5627640647971251e+01 2.5930244985447835e+01 2 -1 0
4018 1 4.0497191155561492e+00 2.8488076039381099e+01 1.4561788154548530e+01 0 0 -1
574 1 5.8926918532502146e+00 2.3018628108485096e+01 2.5239732723646561e+01 0 0 0
2577 1 5.6566456953903819e+00 2.3103253336953536e+01 2.2469252794109053e+01 1 0 0
780 2 0.0000000000000000e+00 2.9838039261988989e+01 2.8006694746928193e+00 0 0 0
782 2 1.2304999999999993e+00 3.0548468768226829e+01 2.8006694746928193e+00 0 0 0
802 2 2.4610000000000003e+00 2.9838039261988989e+01 2.8006694746928193e+00 0 0 0
804 2 3.6915000000000004e+00 3.0548468768226829e+01 2.8006694746928193e+00 0 0 0
832 2 4.9220000000000006e+00 2.9838039261988989e+01 2.8006694746928193e+00 0 0 0
778 2 0.0000000000000000e+00 3.2679757286940330e+01 2.8006694746928193e+00 0 0 0
794 2 0.0000000000000000e+00 3.4100616299415996e+01 2.8006694746928193e+00 0 0 0
798 2 1.2304999999999993e+00 3.1969327780702493e+01 2.8006694746928193e+00 0 0 0
800 2 2.4610000000000003e+00 3.2679757286940337e+01 2.8006694746928193e+00 0 0 0
824 2 2.4609999999999985e+00 3.4100616299415996e+01 2.8006694746928193e+00 0 0 0
828 2 3.6914999999999996e+00 3.1969327780702493e+01 2.8006694746928193e+00 0 0 0
830 2 4.9220000000000015e+00 3.2679757286940337e+01 2.8006694746928193e+00 0 0 0
862 2 4.9220000000000006e+00 3.4100616299415996e+01 2.8006694746928193e+00 0 0 0
796 2 1.2305000000000010e+00 3.4811045805653833e+01 2.8006694746928193e+00 0 0 0
826 2 3.6915000000000018e+00 3.4811045805653833e+01 2.8006694746928193e+00 0 0 0
792 2 0.0000000000000000e+00 3.6942334324367337e+01 2.8006694746928193e+00 0 0 0
816 2 0.0000000000000000e+00 3.8363193336842990e+01 2.8006694746928193e+00 0 0 0
820 2 1.2304999999999993e+00 3.6231904818129486e+01 2.8006694746928193e+00 0 0 0
822 2 2.4610000000000021e+00 3.6942334324367337e+01 2.8006694746928193e+00 0 0 0
854 2 2.4610000000000003e+00 3.8363193336842990e+01 2.8006694746928193e+00 0 0 0
858 2 3.6914999999999996e+00 3.6231904818129486e+01 2.8006694746928193e+00 0 0 0
860 2 4.9220000000000006e+00 3.6942334324367316e+01 2.8006694746928193e+00 0 0 0
899 2 4.9220000000000006e+00 3.8363193336842990e+01 2.8006694746928193e+00 0 0 0
818 2 1.2305000000000010e+00 3.9073622843080841e+01 2.8006694746928193e+00 0 0 0
856 2 3.6915000000000018e+00 3.9073622843080820e+01 2.8006694746928193e+00 0 0 0
779 2 0.0000000000000000e+00 3.1258898274464656e+01 5.8480895171483596e+00 0 0 0
781 2 0.0000000000000000e+00 2.9838039261988989e+01 5.8480895171483596e+00 0 0 0
801 2 2.4609999999999985e+00 3.1258898274464656e+01 5.8480895171483596e+00 0 0 0
803 2 2.4610000000000003e+00 2.9838039261988989e+01 5.8480895171483596e+00 0 0 0
1091 2 0.0000000000000000e+00 2.9838039261988989e+01 8.8955095595992582e+00 0 0 0
1092 2 1.2304999999999993e+00 3.0548468768226829e+01 8.8955095595992582e+00 0 0 0
1102 2 2.4610000000000003e+00 2.9838039261988989e+01 8.8955095595992582e+00 0 0 0
1103 2 3.6915000000000004e+00 3.0548468768226829e+01 8.8955095595992582e+00 0 0 0
831 2 4.9219999999999979e+00 3.1258898274464656e+01 5.8480895171483596e+00 0 0 0
833 2 4.9220000000000006e+00 2.9838039261988989e+01 5.8480895171483596e+00 0 0 0
1117 2 4.9220000000000006e+00 2.9838039261988989e+01 8.8955095595992582e+00 0 0 0
795 2 0.0000000000000000e+00 3.4100616299415996e+01 5.8480895171483596e+00 0 0 0
797 2 1.2304999999999993e+00 3.3390186793178160e+01 5.8480895171483596e+00 0 0 0
799 2 1.2304999999999993e+00 3.1969327780702493e+01 5.8480895171483596e+00 0 0 0
825 2 2.4609999999999985e+00 3.4100616299415996e+01 5.8480895171483596e+00 0 0 0
827 2 3.6914999999999978e+00 3.3390186793178160e+01 5.8480895171483596e+00 0 0 0
829 2 3.6914999999999996e+00 3.1969327780702493e+01 5.8480895171483596e+00 0 0 0
1090 2 0.0000000000000000e+00 3.2679757286940330e+01 8.8955095595992582e+00 0 0 0