
# Create simulation box and atoms

read_data data.ML_graphite_m500atm_240K
  orthogonal box = (0 0 1.84677) to (49.22 49.0196 26.0932)
  8 by 5 by 2 MPI processor grid
  reading atoms ...
  4055 atoms
  reading velocities ...
  4055 velocities
group water type 1
1295 atoms in group water
group graphite type 2
2760 atoms in group graphite

# Define potential

pair_style sw
pair_coeff * * MLC_e.sw mW C


# Fix graphite atoms in place

fix 5 graphite setforce 0.0 0.0 0.0
velocity graphite set 0.0 0.0 0.0


# Equilibration of molecular water

# Add velocity/set timestep

velocity	    water create ${TEMP} ${SEED} rot yes dist gaussian
velocity	    water create 240 ${SEED} rot yes dist gaussian
velocity	    water create 240 8 rot yes dist gaussian
timestep	    5.0

# Define output

compute			1 water msd
compute			3 water temp
thermo	    	50
thermo_style	custom step temp press vol etotal ke pe c_1[4] c_3

# Neighbor lists

neigh_modify    delay 0 every 1 check yes

# Set fixes

fix             1 water momentum 10 linear 1 1 1 rescale
fix             2 water nve
fix             3 water temp/csvr ${TEMP} ${TEMP} 500.0 ${SEED}
fix             3 water temp/csvr 240 ${TEMP} 500.0 ${SEED}
fix             3 water temp/csvr 240 240 500.0 ${SEED}
fix             3 water temp/csvr 240 240 500.0 8
fix             4 water press/berendsen z ${PRES} ${PRES} 1000.0 modulus 20000
fix             4 water press/berendsen z -500 ${PRES} 1000.0 modulus 20000
fix             4 water press/berendsen z -500 -500 1000.0 modulus 20000

# Run 0.5 ns equilibration

dump		    1 all atom 2000 ${DIR}/eq.${NAME}-${TEMP}.dump
dump		    1 all atom 2000 run_5/eq.${NAME}-${TEMP}.dump
dump		    1 all atom 2000 run_5/eq.het_freeze_5-${TEMP}.dump
dump		    1 all atom 2000 run_5/eq.het_freeze_5-240.dump

reset_timestep  0

run	            100000
Neighbor list info ...
  update every 1 steps, delay 0 steps, check yes
  max neighbors/atom: 2000, page size: 100000
  master list distance cutoff = 6.67472
  ghost atom cutoff = 6.67472
  binsize = 3.33736, bins = 15 15 8
  1 neighbor lists, perpetual/occasional/extra = 1 0 0
  (1) pair sw, perpetual
      attributes: full, newton on
      pair build: full/bin/atomonly
      stencil: full/bin/3d
      bin: standard
Per MPI rank memory allocation (min/avg/max) = 4.096 | 4.284 | 4.472 Mbytes
Step Temp Press Volume TotEng KinEng PotEng c_1[4] c_3 
       0    76.605821   -1210.2423    58500.543   -12658.119    925.72037   -13583.839            0          240 
      50    75.115569   -1040.8448    58497.068   -12645.977    907.71185   -13553.688   0.51153896    235.33116 
     100    79.013444   -945.19415    58534.614   -12657.984    954.81457   -13612.798   0.78398807    247.54289 
     150    76.205181   -1124.9726    58544.969   -12665.304    920.87895   -13586.183    0.9774386    238.74483 
     200    75.648729   -967.05154    58565.851   -12679.159    914.15467   -13593.314    1.1820809    237.00151 
     250    73.988639   -1287.4728    58559.811   -12678.156     894.0938    -13572.25    1.3995499    231.80057 
     300    76.576628   -1632.1713    58468.508   -12672.751    925.36759   -13598.119     1.637899    239.90854 
     350    77.737284   -1163.0173    58435.738   -12680.078     939.3932   -13619.471    1.7964176    243.54478 
     400    77.506209   -1077.1906    58422.026   -12680.653    936.60084   -13617.254    1.9085142    242.82084 
     450    75.413865   -1054.9801    58445.401   -12702.503    911.31652    -13613.82    2.1168854    236.26569 
     500    76.103123   -1037.1369    58405.198   -12681.714    919.64566    -13601.36    2.3302488    238.42509 
     550     77.64251   -831.30405    58409.162   -12653.547    938.24792   -13591.795    2.5081032    243.24786 
     600    76.524217   -735.10017    58474.267   -12625.991    924.73425   -13550.725    2.6487369    239.74434 
     650    77.383634   -910.96212    58442.877   -12609.533    935.11961   -13544.653    2.8807957    242.43683 
     700    77.130792   -580.95103    58383.537   -12622.002    932.06423   -13554.066    3.1443539    241.64469 
     750    75.563547   -1053.4687     58407.33   -12648.158    913.12531   -13561.284     3.316805    236.73464 
     800    75.792094   -1020.7917     58482.87   -12657.968    915.88712   -13573.855     3.498654    237.45066 
     850     78.85166   -967.92484    58533.509   -12670.927    952.85954   -13623.787    3.6900612    247.03604 
     900    78.864024   -1105.8171    58478.653    -12647.48    953.00895   -13600.489     3.812998    247.07477 
     950    77.435658   -1019.6065    58562.184   -12614.819    935.74828   -13550.567    3.9920103    242.59981 
    1000    75.500521   -1041.6502    58542.892    -12638.53     912.3637   -13550.893    4.1518794    236.53718 
    1050    76.848861   -1085.1172    58540.244   -12635.774    928.65731   -13564.431    4.3124226    240.76142 
    1100    77.237737   -1223.6751    58533.572   -12655.499    933.35657   -13588.856    4.4019934    241.97974 
    1150    73.937165   -1308.1403    58480.292   -12669.488    893.47178   -13562.959    4.5856391    231.63931 
    1200    76.967766   -1102.5743    58439.111       -12694    930.09418   -13624.094    4.7226897    241.13394 
    1250    77.538605   -1276.1379    58448.147   -12688.682    936.99231   -13625.674    4.8517155    242.92234 
    1300    73.910294   -777.42889    58490.268    -12712.85    893.14706   -13605.997    5.1090849    231.55512 
    1350    72.709383   -1187.8399    58507.087   -12752.857    878.63501   -13631.492    5.2334546    227.79276 
    1400    76.013571   -1260.4917    58452.621   -12750.134     918.5635   -13668.697    5.4899763    238.14453 
    1450    76.099276   -885.06155    58475.284   -12736.175    919.59918   -13655.775    5.6933893    238.41303 
    1500    76.893841    -782.3039    58551.549   -12724.442    929.20086   -13653.643    5.8269714    240.90234 
    1550    74.587425   -1542.4829    58582.436   -12712.952    901.32965   -13614.282    5.9161057    233.67652 
    1600     75.79108   -1177.4444    58596.048   -12717.178    915.87487   -13633.052     6.045454    237.44748 
    1650    72.451242   -1277.3557    58579.324   -12711.022    875.51558   -13586.537    6.1126378    226.98403 
    1700    76.134252   -1117.5494    58587.414   -12695.573    920.02183   -13615.595    6.1358387    238.52261 
    1750    77.828398   -1220.8547    58594.608   -12705.831    940.49424   -13646.325     6.139321    243.83024 
    1800    75.031132   -901.89352     58611.61   -12715.892    906.69151   -13622.583    6.1859231    235.06662 
    1850    73.059148   -1145.1656    58683.169     -12761.5    882.86165   -13644.361    6.1986152    228.88855 
    1900    71.265883   -977.72335    58693.417   -12774.983    861.19147   -13636.174    6.2541575     223.2704 
    1950    72.426369   -1319.1648    58649.209   -12758.388    875.21501   -13633.603    6.2321091     226.9061 
    2000    73.645689   -1432.0294    58594.788   -12711.707    889.94953   -13601.657    6.2903152    230.72614 
    2050    73.166154   -1089.0105    58557.015   -12722.218    884.15473   -13606.373      6.32964    229.22379 
    2100     74.86823   -1268.2042    58553.296   -12720.823    904.72296   -13625.546    6.6487312    234.55626 
    2150    75.734484   -1298.5608    58575.461   -12723.128    915.19095   -13638.319    6.8967003    237.27017 
    2200    74.182546   -1258.5731    58562.068   -12696.294    896.43701   -13592.731     6.971469    232.40807 
    2250    75.666207   -1345.4036    58550.295   -12691.986    914.36587   -13606.352    7.1970811    237.05626 
    2300    74.779347   -990.35901    58491.107   -12670.481    903.64888    -13574.13    7.3636851     234.2778 
    2350      76.7842   -1104.3935    58490.559    -12695.55    927.87593   -13623.426      7.51919    240.55885 
    2400    76.835535   -874.26771    58566.624   -12730.326    928.49627   -13658.822    7.7827109    240.71967 
    2450    74.556737   -1257.7597    58523.839   -12744.553    900.95881   -13645.512    8.0151989    233.58038 
    2500    73.438603   -1264.0488    58541.893   -12758.563    887.44705    -13646.01    8.2190725    230.07735 
    2550    75.709741   -1051.1803    58539.619    -12772.94    914.89195   -13687.832    8.4346396    237.19265 
    2600    74.555147   -1224.9868     58535.68   -12767.425     900.9396   -13668.365    8.7057681     233.5754 
    2650    75.245017   -1247.0766    58514.626   -12755.874    909.27614    -13665.15    8.7312228    235.73671 
    2700    74.462155   -1358.7724    58440.285   -12768.618    899.81586   -13668.434    8.7563983    233.28406 
    2750    76.046065   -744.52585     58419.13   -12767.956    918.95616   -13686.913    8.9040081    238.24633 
    2800    77.733814   -979.73269    58414.168   -12738.732    939.35126   -13678.083    9.0024534    243.53391 
    2850    76.303041   -1171.3555    58463.996   -12723.825    922.06151   -13645.887    9.1886842    239.05141 
    2900    73.294431   -757.29534    58489.323   -12748.884    885.70486   -13634.588    9.2603608    229.62568 
    2950    74.727014   -1203.9671    58483.332    -12729.82    903.01648   -13632.836     9.370726    234.11384 
    3000    75.859781   -1049.8167     58501.11   -12728.781    916.70506   -13645.486    9.4877264    237.66271 
    3050    74.814776    -1281.574    58458.899   -12749.471    904.07701   -13653.548    9.5705324     234.3888 
    3100    72.708065   -1298.9215    58411.146   -12745.876    878.61909   -13624.495    9.6704639    227.78864 
    3150    75.011475   -1308.3874    58362.864   -12738.644    906.45396   -13645.098    9.7198343    235.00504 
    3200    76.101857   -1112.6877    58349.848   -12726.668    919.63036   -13646.299    9.8011946    238.42112 
    3250    76.322119   -1198.4479    58376.269   -12720.915    922.29205   -13643.207     9.919727    239.11118 
    3300    75.301475   -1138.4769    58380.669    -12709.71    909.95838   -13619.668    9.9765794    235.91358 
    3350    76.940397   -1470.5552    58333.416   -12691.385    929.76345   -13621.149    9.8899816     241.0482 
    3400    79.158576   -677.19834    58379.499   -12683.473    956.56838   -13640.041    10.087259    247.99758 
    3450    77.194983   -961.38398    58332.756   -12690.785    932.83991   -13623.625    10.306558     241.8458 
    3500    78.382248   -899.53507    58335.698   -12682.907    947.18707   -13630.094    10.351102     245.5654 
    3550    75.994558   -1316.0342     58335.18   -12711.773    918.33373   -13630.107    10.519552    238.08496 
    3600    76.945806   -1105.2958    58329.116   -12690.995    929.82881   -13620.824     10.76371    241.06514 
    3650    77.019922   -1328.0772    58313.192    -12719.83    930.72444   -13650.554    10.823342    241.29734 
    3700    75.883546   -1449.3718    58341.928   -12714.338    916.99225    -13631.33    10.929847    237.73717 
    3750    78.807297   -1320.1672    58364.467   -12696.749    952.32345   -13649.072    10.913488    246.89705 
    3800    77.829427   -673.81472    58379.008   -12722.281    940.50667   -13662.788    11.078671    243.83346 
    3850     72.47665   -1518.9863    58410.226   -12732.426    875.82261   -13608.248    11.294878    227.06363 
    3900    75.730086   -1033.4228    58393.228   -12732.969     915.1378   -13648.107    11.359668    237.25639 
    3950    76.256942   -1497.0336    58355.738   -12720.445    921.50444    -13641.95    11.338607    238.90699 
    4000    75.007761   -1145.2595    58315.979   -12741.677    906.40909   -13648.086    11.275948     234.9934 
    4050     76.83434   -1135.3587    58302.504   -12690.399    928.48183    -13618.88    11.259558    240.71593 
    4100      77.7419   -1265.1784    58265.716   -12673.964    939.44898   -13613.413    11.437276    243.55924 
    4150    78.701266   -1433.5796    58213.938    -12703.11    951.04215   -13654.152     11.73465    246.56486 
    4200    77.420568   -1094.3486    58212.943   -12704.431    935.56593   -13639.997    11.994199    242.55254 
    4250    76.158287    -1345.111    58200.444    -12737.29    920.31227   -13657.602    12.160971    238.59791 
    4300    74.169925    -1059.699    58187.697   -12731.603     896.2845   -13627.887    12.184173    232.36853 
    4350    77.918689   -1376.7105    58180.275   -12698.384    941.58533   -13639.969     12.35017    244.11311 
    4400    71.696759   -1006.7878    58168.923   -12728.778    866.39825   -13595.176    12.463547    224.62029 
    4450    77.111244   -1152.3425    58168.701    -12724.73    931.82799   -13656.558    12.567636    241.58345 
    4500    76.169166   -779.51808    58166.446   -12699.731    920.44374   -13620.174    12.965464    238.63199 
    4550    79.004526   -1134.2408    58162.329   -12671.809    954.70681   -13626.516    13.216764    247.51495 
    4600    76.508476   -1502.7014    58103.371   -12684.048    924.54403   -13608.592     13.28335    239.69502 
    4650    77.797917   -1049.6154    58076.164   -12697.795     940.1259   -13637.921    13.352507    243.73474 
    4700    78.112638   -893.03799    58094.332   -12701.842    943.92904   -13645.771    13.568259    244.72074 
    4750      79.4035   -873.26556    58113.762    -12689.26    959.52809   -13648.788    13.693481    248.76491 
    4800    76.091313   -993.63693    58152.743   -12690.952    919.50295   -13610.455    13.862427    238.38809 
    4850    77.634657   -718.55234    58186.363   -12675.071    938.15303   -13613.224    13.887677    243.22326 
    4900    76.415457   -874.96625     58236.03    -12701.43    923.41996    -13624.85    14.180041     239.4036 
    4950    74.239862   -831.30074    58273.844   -12723.894    897.12963   -13621.024    14.502166    232.58764 
    5000     77.75078   -1402.5386    58341.337   -12647.154    939.55629    -13586.71    14.396118    243.58707 
    5050    78.799622   -974.35877    58337.026   -12636.694     952.2307   -13588.925    14.512239      246.873 
    5100    76.664274   -772.18511    58370.223   -12630.259    926.42672   -13556.685    14.632908    240.18313 
    5150    76.646871   -1020.5341    58406.067   -12643.688    926.21642   -13569.904    14.638375    240.12861 
    5200    77.013905   -1338.3246    58383.421    -12672.32    930.65174   -13602.972     14.91543    241.27849 
    5250    77.384508   -1042.0167      58346.1    -12691.24    935.13018    -13626.37     15.03775    242.43956 
    5300    76.972815   -970.60108    58363.469   -12697.425    930.15519    -13627.58    15.211382    241.14976 
    5350    77.029925   -927.19053    58355.839   -12711.986    930.84532   -13642.832    15.210201    241.32868 
    5400    75.224646   -766.12501    58398.797   -12713.105    909.02997   -13622.135    14.887755    235.67289 
    5450    77.659387   -1128.8457    58390.173   -12699.104    938.45187   -13637.556    15.125823    243.30074 
    5500    79.462766   -616.01646    58472.033   -12697.826    960.24427   -13658.071     15.53667    248.95058 
    5550    77.606955   -1345.7982    58520.971   -12717.694    937.81827   -13655.513    15.517786    243.13647 
    5600    76.330886   -911.94416    58505.654   -12720.926    922.39799   -13643.324    15.477365    239.13865 
    5650    78.498407   -1281.5144    58515.573   -12699.554    948.59077   -13648.145    15.454753    245.92932 
    5700    75.605833    -1146.561    58456.019   -12709.624     913.6363    -13623.26    15.688835    236.86711 
    5750    76.509958   -927.20333    58473.021   -12710.734    924.56194   -13635.296    15.782596    239.69967 
    5800     75.76057    -1407.991    58421.453   -12718.025    915.50618   -13633.531    16.140442    237.35189 
    5850    75.849574   -1115.8474    58430.366   -12699.782    916.58172   -13616.364    16.209865    237.63074 
    5900    78.158776   -1263.9727    58431.959   -12714.933    944.48659    -13659.42    16.600931    244.86529 
    5950     76.31765   -1009.1019    58453.024   -12714.379    922.23805   -13636.617    16.739337    239.09718 
    6000    77.857589   -1207.9061    58445.651   -12736.311    940.84698   -13677.158    16.864725    243.92169 
    6050     75.52161   -757.22219    58468.433   -12752.627    912.61853   -13665.245    17.041581    236.60325 
    6100    75.608033   -1143.6729    58434.274   -12769.578    913.66289   -13683.241    17.014274    236.87401 
    6150    74.595649   -1218.7183    58424.048   -12754.178    901.42903   -13655.607    17.261616    233.70229 
    6200    75.224071   -1127.0933    58407.732    -12759.58    909.02301   -13668.603    17.477724    235.67108 
    6250    76.506592   -1079.8823    58375.996   -12744.659    924.52126    -13669.18     17.67183    239.68912 
    6300    76.042393   -1040.7257    58368.795    -12757.41    918.91179   -13676.321    17.744218    238.23482 
    6350    76.578731    -1189.135    58357.511   -12723.153      925.393   -13648.546    17.992368    239.91513 
    6400    75.954562   -1039.4952    58429.578   -12740.145    917.85042   -13657.995    18.089867    237.95966 
    6450    77.532118    -783.6431    58447.612    -12741.45    936.91393   -13678.364    18.100577    242.90201 
    6500    73.012227   -1460.9969    58467.761   -12750.867    882.29464   -13633.162    18.090118    228.74155 
    6550    75.731369    -1103.087    58475.686   -12735.125    915.15331   -13650.278    18.240164    237.26041 
    6600    76.007779   -913.02969    58511.173    -12744.75     918.4935   -13663.243    18.424422    238.12638 
    6650     77.65121   -790.98397    58535.082   -12727.186    938.35306   -13665.539    18.622251    243.27512 
    6700    78.658167   -1281.1541    58596.759   -12708.234    950.52133   -13658.755    18.999427    246.42984 
    6750    77.031099   -1209.6503     58589.19   -12729.782    930.85951   -13660.641    19.018035    241.33236 
    6800    78.417648   -1020.2444     58546.34   -12705.867    947.61485   -13653.482    19.121614    245.67631 
    6850    74.170041   -1477.6572    58470.787   -12711.231     896.2859   -13607.517    19.181678    232.36889 
    6900    73.782333    -1203.078    58397.614   -12706.182    891.60076   -13597.783    19.172853    231.15423 
    6950    77.735293   -756.16208    58411.152   -12689.294    939.36913   -13628.663    19.057034    243.53854 
    7000      74.0654   -900.06702    58449.661   -12690.122     895.0214   -13585.143    19.287309    232.04106 
    7050    77.352342   -1055.0685     58435.01    -12675.11    934.74148   -13609.851     19.27326    242.33879 
    7100    73.223904     -1215.31    58421.035   -12690.785    884.85259   -13575.637     19.34019    229.40472 
    7150    77.625644   -542.25038    58447.007   -12695.596    938.04411    -13633.64    19.540096    243.19502 
    7200    78.196485   -1076.7862    58438.441   -12671.656    944.94227   -13616.599    19.819133    244.98342 
    7250    78.767869   -1159.6722    58477.283   -12677.772    951.84699   -13629.619    19.893152    246.77352 
    7300    75.148653   -1177.3818    58482.365   -12694.214    908.11165   -13602.326    20.150624    235.43481 
    7350     77.61154   -1244.0109     58509.12   -12702.018    937.87368   -13639.892    20.313888    243.15084 
    7400    75.382615    -891.8283    58491.759   -12699.733     910.9389   -13610.672    20.434642    236.16779 
    7450    76.261965   -1166.6207     58460.71   -12716.005    921.56514   -13637.571    20.689507    238.92273 
    7500    74.100738   -891.36509    58462.602   -12735.923    895.44843   -13631.371    20.731553    232.15177 
    7550      75.4498   -814.34674    58424.667   -12736.045    911.75077   -13647.796    21.093463    236.37828 
    7600    74.895534   -844.68497    58415.773   -12734.791    905.05291   -13639.844    21.047387    234.64181 
    7650    74.213408   -1152.8343    58429.565   -12738.962    896.80996   -13635.772    21.232243    232.50476 
    7700    73.393977   -1241.4923    58434.681   -12749.496    886.90778   -13636.404    21.414979    229.93754 
    7750    76.128095    -947.4643     58426.61   -12752.943    919.94743   -13672.891    21.432089    238.50332 
    7800    77.637452   -754.54524    58485.184    -12723.39    938.18681   -13661.577    21.574401    243.23202 
    7850    74.888504   -1142.9172    58461.402   -12735.888    904.96795   -13640.856     21.67021    234.61978 
    7900    76.275471   -1001.7464    58431.682   -12725.922    921.72835   -13647.651    21.725763    238.96504 
    7950    77.918082   -1232.2449    58483.872    -12715.14    941.57799   -13656.718    21.872654    244.11121 
    8000    76.960691   -1030.4448    58449.884   -12691.202    930.00868   -13621.211    22.161323    241.11178 
    8050    74.568328   -1414.4997     58376.59   -12725.146    901.09889   -13626.245     22.31366    233.61669 
    8100    75.944609   -1546.2427    58337.621   -12743.135    917.73014   -13660.865    22.513739    237.92847 
    8150    76.758871   -1199.9094    58338.607   -12756.927    927.56985   -13684.497      22.7942    240.47949 
    8200    75.159058   -978.89703    58304.536   -12793.718    908.23738   -13701.956    22.908771     235.4674 
    8250    75.170532   -1009.0989     58342.64   -12764.683    908.37603   -13673.059    22.959399    235.50335 
    8300    74.809201   -1111.0752    58330.149   -12737.714    904.00964   -13641.724    22.935636    234.37133 
    8350    75.822664    -1041.242    58322.445    -12741.58    916.25654   -13657.836    22.933512    237.54643 
    8400    76.020108   -864.87705    58330.816   -12742.462    918.64249   -13661.104     22.83413    238.16501 
    8450    78.628906   -1038.1363    58305.316   -12740.091    950.16774   -13690.259    22.758347    246.33817 
    8500    77.524777   -810.69698    58263.498   -12709.839    936.82521   -13646.664    22.719359    242.87901 
    8550    76.487598   -859.65482    58291.731   -12726.357    924.29174   -13650.649    23.082597    239.62962 
    8600    76.589534   -1089.7732    58282.144   -12725.711    925.52355   -13651.235    23.104229    239.94897 
    8650    73.073796    -1393.158     58273.66   -12749.507    883.03866   -13632.545    23.302122    228.93444 
    8700    74.581582   -876.78376    58228.185   -12787.681    901.25905    -13688.94    23.620618    233.65822 
    8750    73.544888   -903.71903    58230.961   -12802.117    888.73142   -13690.848    23.640326    230.41034 
    8800    73.013316   -905.43006    58245.852   -12806.782     882.3078    -13689.09    23.574922    228.74496 
    8850    73.840988   -900.24647    58308.055     -12797.3    892.30956    -13689.61    23.651936      231.338 
    8900    73.783445   -808.67709    58323.453   -12798.709    891.61419   -13690.323    23.794226    231.15772 
    8950    73.825279   -953.14366    58353.857    -12775.23    892.11973    -13667.35    23.912884    231.28878 
    9000    74.785662    -820.4214    58438.496   -12748.037    903.72519   -13651.763    24.061091    234.29758 
    9050    73.777306   -738.83448    58468.057   -12770.055    891.54002   -13661.595    24.119852    231.13849 
    9100    73.037096   -1060.7039    58410.986   -12749.916    882.59517   -13632.512    24.215911    228.81947 
    9150    76.777614   -921.31121    58420.394   -12746.366    927.79634   -13674.162    24.032526    240.53821 
    9200    77.326027   -871.60115    58437.093   -12730.628    934.42348   -13665.052    24.041962    242.25635 
    9250    76.935267   -982.52527    58465.656   -12725.814    929.70146   -13655.516    24.420096    241.03213 
    9300    79.341146   -1059.2262    58485.058   -12749.967     958.7746   -13708.742      24.4878    248.56956 
    9350    75.622219   -1144.4606     58498.92   -12772.329    913.83432   -13686.164    24.660382    236.91845 
    9400    76.031714   -1011.8061    58477.856   -12762.376    918.78273   -13681.159    24.658372    238.20137 
    9450    76.305623   -647.55352     58482.35   -12733.392    922.09271   -13655.484    24.683731     239.0595 
    9500    76.213788   -1076.2062    58460.011   -12747.642    920.98295   -13668.625    24.837768    238.77179 
    9550    75.566663   -788.56461     58467.85   -12733.155    913.16297   -13646.318    25.176101     236.7444 
    9600    77.204244   -1025.6405    58478.609   -12749.459    932.95183   -13682.411    25.250559    241.87481 
    9650    74.582921   -956.13273    58506.621   -12764.986    901.27523   -13666.262    25.543603    233.66241 
    9700    75.109524   -889.51256    58491.138   -12748.741    907.63881    -13656.38    25.574023    235.31222 
    9750    77.096451   -1033.7758    58527.751   -12733.875    931.64924   -13665.524     25.40743     241.5371 
    9800    79.104456   -1229.8248     58566.38   -12701.825    955.91438    -13657.74    25.446116    247.82802 
    9850    77.306403   -726.12311    58589.776   -12677.761    934.18634   -13611.947    25.245411    242.19487 
    9900    78.197909   -1549.2236    58588.831   -12664.261    944.95949    -13609.22    25.381862    244.98789 
    9950    74.681552   -908.12989    58548.602   -12669.378    902.46711   -13571.846    25.697354    233.97142 
   10000    78.771343   -990.87362    58523.662   -12624.772    951.88897   -13576.661    25.677629    246.78441 
   10050    76.851035   -1004.4641    58518.733   -12641.964    928.68358   -13570.648    25.870008    240.76823 
   10100    76.376236   -1247.2177    58509.327   -12650.882    922.94601   -13573.828    26.237075    239.28073 
   10150    78.402202   -1165.2854    58511.021   -12662.323     947.4282   -13609.751    26.378615    245.62792 
   10200    78.080495    -1072.368    58491.301   -12703.951    943.54063   -13647.492    26.321845    244.62004 
   10250    78.421312   -649.64246      58489.3   -12714.845    947.65912   -13662.504    26.240721    245.68779 
   10300    76.498513   -1025.9548    58539.509    -12728.15    924.42363   -13652.573    26.292435    239.66381 
   10350    76.215176   -741.57852    58569.616   -12736.513    920.99973   -13657.512    26.469404    238.77614 
   10400    74.296282   -1098.6728     58580.69   -12754.999    897.81142   -13652.811    26.648569    232.76439 
   10450    74.972674   -1116.8615    58580.066   -12726.128    905.98508   -13632.113    26.380759    234.88348 
   10500    74.279337   -664.38048    58603.811   -12738.355    897.60666   -13635.962     26.39275    232.71131 
   10550    75.866687   -979.67888    58617.648   -12737.993    916.78852   -13654.782    26.686802    237.68435 
   10600    75.580412   -959.43896    58600.833    -12716.58    913.32912   -13629.909    26.544018    236.78747 
   10650    75.277398   -1660.6341    58567.884   -12702.074    909.66743   -13611.741    26.932549    235.83816 
   10700    77.800773   -1207.2223    58509.468   -12733.031    940.16041   -13673.192     27.19329    243.74369 
   10750    75.834319   -1560.9492    58458.573   -12753.429    916.39738   -13669.827    27.505695    237.58294 
   10800    75.372179   -803.97392    58413.945   -12727.559    910.81279   -13638.372      27.6886     236.1351 
   10850    78.411198   -1207.9081    58421.739   -12709.253    947.53691   -13656.789    27.889595     245.6561 
   10900    71.971482   -830.93424      58418.3   -12724.254    869.71807   -13593.972    27.845362    225.48098 
   10950     76.28136   -1135.4713    58382.559   -12746.341    921.79951    -13668.14    27.904077    238.98349 
   11000    76.622382   -1140.5909    58328.627   -12735.932    925.92049   -13661.853    28.062842    240.05188 
   11050    73.241152   -1273.8638    58304.881   -12719.623    885.06102   -13604.684    28.265025    229.45876 
   11100    76.258087   -736.24691    58283.601   -12691.953    921.51828   -13613.471    28.153694    238.91058 
   11150     76.72019   -903.67366    58321.372   -12654.453    927.10242   -13581.556    28.284993    240.35831 
   11200    80.211914    -1264.801    58266.925   -12662.747    969.29713   -13632.044     28.59292     251.2976 
   11250    80.485787   -1226.4202    58272.999   -12633.202    972.60667   -13605.809    28.916678    252.15563 
   11300    81.619826   -1034.7548    58304.879   -12605.028    986.31062   -13591.339    28.885434    255.70848 
   11350    78.852011   -867.88601    58277.755   -12603.349    952.86378   -13556.212      29.0088    247.03713 
   11400    77.359117   -1492.1338    58271.759    -12604.32    934.82335   -13539.144    29.285503    242.36002 
   11450    76.576212   -1151.9005    58329.749   -12641.136    925.36257   -13566.499    29.412667    239.90724 
   11500      77.6326   -988.03092    58355.739   -12670.933    938.12817   -13609.061    29.513876    243.21682 
   11550    77.791086      -1023.4     58392.05   -12653.937    940.04335    -13593.98     29.56712    243.71334 
   11600    77.872272   -832.90402    58406.407   -12672.445    941.02442    -13613.47    29.673105    243.96769 
   11650    77.541748   -1184.3987    58398.493   -12676.299     937.0303   -13613.329    29.679022    242.93219 
   11700    76.117004   -854.56296    58410.912   -12714.837    919.81339    -13634.65        29.89    238.46857 
   11750    76.402326   -1044.4626    58415.762   -12706.014    923.26129   -13629.275    30.223753    239.36247 
   11800    74.266955   -1158.4226    58406.643   -12701.689    897.45703   -13599.146    30.292596    232.67252 
   11850    74.317645    -1354.013    58366.528   -12713.524    898.06958   -13611.593    30.449416    232.83132 
   11900    75.853965   -990.24588    58281.255    -12712.95    916.63479   -13629.585     30.52931    237.64449 
   11950    77.570024   -909.62266    58290.879   -12686.661    937.37199   -13624.033    30.901718    243.02077 
   12000    76.066261   -923.58318    58339.958   -12657.769    919.20021    -13576.97     31.15253     238.3096 
   12050    75.016101   -1041.7344    58298.072   -12685.877    906.50987   -13592.387    31.312012    235.01953 
   12100    74.365961   -644.26991    58258.962    -12727.21    898.65344   -13625.863    31.405744    232.98269 
   12150    76.684798   -1072.9046    58278.459   -12727.689    926.67474   -13654.364    31.436934    240.24743 
   12200    76.055714   -1101.5947    58275.863   -12741.297    919.07276    -13660.37    31.631784    238.27656 
   12250    75.641176   -656.63457    58226.176   -12726.438    914.06339   -13640.502    31.730908    236.97784 
   12300     74.51487   -785.51234    58245.081   -12753.431    900.45289   -13653.884    31.939098    233.44921 
   12350    76.329955   -1134.9194    58187.041   -12739.189    922.38675   -13661.576    31.999881    239.13573 
   12400    74.928864   -1194.7249    58146.973   -12723.714    905.45568    -13629.17    31.930178    234.74623 
   12450    76.677232   -888.25421    58133.214   -12727.691     926.5833   -13654.274     31.92217    240.22372 
   12500    73.076405   -807.38628    58140.976   -12732.079    883.07018   -13615.149    32.182176    228.94262 
   12550    75.373564   -859.89658    58119.012   -12720.036    910.82952   -13630.866    32.422337    236.13943 
   12600    76.084066   -961.63021    58120.788   -12685.553    919.41537   -13604.968    32.872191    238.36538 
   12650    78.076907   -1017.3429    58116.802   -12667.347    943.49727   -13610.844    33.023108     244.6088 
   12700    76.300444   -938.97023    58044.201   -12672.701    922.03012   -13594.731    33.080356    239.04328 
   12750    76.314158   -1065.5411    58043.216   -12660.657    922.19585   -13582.853    33.450329    239.08624 
   12800    78.727775   -1391.5545     58068.91   -12672.322    951.36249   -13623.685    33.686758    246.64791 
   12850    77.548403   -763.15437    58048.174   -12662.828    937.11072   -13599.939    33.864523    242.95303 
   12900     75.03883   -1074.2782    58078.238   -12651.817    906.78453   -13558.601    33.942874    235.09074 
   12950    77.284537   -532.11582    58123.304   -12662.897     933.9221   -13596.819    34.352959    242.12636 
   13000    76.401143   -863.54566    58152.205    -12668.33    923.24699   -13591.577    34.356555    239.35876 
   13050    74.709131    -1070.945     58162.83   -12710.234    902.80038   -13613.034    34.528279    234.05782 
   13100    76.337412   -824.80688      58174.7   -12710.826    922.47686   -13633.303    34.683754     239.1591 
   13150    76.112123   -730.21244    58174.344   -12701.911    919.75442   -13621.665    34.749651    238.45328 
   13200    76.122011   -1254.1572     58229.06   -12676.792     919.8739   -13596.665    35.351278    238.48426 
   13250    74.901976   -871.34878    58212.137   -12684.581    905.13076   -13589.711    35.702917    234.66199 
   13300    80.188192   -1227.8128    58210.896   -12661.492    969.01047   -13630.502     35.84612    251.22329 
   13350    78.764712   -1019.4694    58247.969   -12666.141    951.80884    -13617.95    36.080974    246.76363 
   13400    78.918599   -1049.2573    58202.282   -12652.842    953.66844   -13606.511    36.540847    247.24575 
   13450    79.983631   -1075.9539    58237.235   -12626.459    966.53851   -13592.998    36.785582    250.58241 
   13500    76.747135   -482.93736    58225.522   -12632.298    927.42803   -13559.726    36.642757    240.44273 
   13550    75.809664    -999.4369    58242.909   -12644.159    916.09944   -13560.259    36.696161     237.5057 
   13600    77.351324   -654.75347    58311.539   -12619.722    934.72918   -13554.451    36.731303     242.3356 
   13650    75.198864   -1075.6153    58285.498   -12624.072    908.71841    -13532.79     37.29035    235.59211 
   13700    77.142609   -941.37173    58275.218   -12661.808    932.20702   -13594.015    37.428343    241.68171 
   13750    75.709639   -1317.7592    58236.855   -12671.031    914.89071   -13585.921    37.518354    237.19233 
   13800    74.192471   -735.03211    58247.034   -12692.568    896.55695   -13589.125    37.893024    232.43916 
   13850    75.413269   -710.68879    58271.729   -12652.703    911.30933   -13564.012    37.825064    236.26383 
   13900    77.286101   -1101.2365    58287.138   -12649.836      933.941   -13583.777    37.781595    242.13126 
   13950    76.155916   -1048.4749     58241.24   -12664.865    920.28362   -13585.149    37.931864    238.59048 
   14000    75.368062   -1050.5845    58234.705   -12715.877    910.76303   -13626.641    38.464172     236.1222 
   14050    74.297145   -1015.6355    58210.541   -12737.681    897.82186   -13635.503    38.623625     232.7671 
   14100    73.868255    -1204.783    58156.803   -12729.162    892.63906   -13621.801    38.785453    231.42342 
   14150    76.771798   -1022.2269    58158.408   -12713.318    927.72606   -13641.044    38.859611    240.51999 
   14200    75.669331   -1181.0899    58186.245    -12703.18    914.40363   -13617.584    39.043617    237.06605 
   14250    74.660136   -707.31091    58267.089   -12672.941    902.20831   -13575.149    39.126443    233.90432 
   14300     76.96592   -961.33178    58244.439   -12659.727    930.07188   -13589.799    39.176934    241.12816 
   14350    75.574906   -1068.4798    58212.004   -12692.299    913.26257   -13605.562    39.687916    236.77022 
   14400    76.656784   -897.82718    58231.158   -12680.545    926.33621   -13606.881    39.580557    240.15966 
   14450    78.278911   -631.24284    58241.678   -12669.229    945.93832   -13615.167    39.629979    245.24166 
   14500    76.936487    -1054.877    58247.762   -12667.378     929.7162   -13597.094    40.084974    241.03595 
   14550    78.945917   -683.67723    58253.971   -12646.446    953.99856   -13600.445    40.125603    247.33133 
   14600    78.872151   -573.26004    58248.061   -12659.434    953.10716   -13612.542    40.044325    247.10023 
   14650     79.14799   -944.31703    58279.861   -12643.559    956.44045       -13600    40.268602    247.96441 
   14700     77.74233   -616.55237    58300.698   -12645.503    939.45417   -13584.957    40.862219    243.56059 
   14750    77.205458   -998.70982    58319.295   -12656.345    932.96649   -13589.311    40.887768    241.87861 
   14800    76.516966   -705.43767    58318.503    -12649.95    924.64663   -13574.596    40.814321    239.72162 
   14850    77.466208   -1011.8571    58340.434    -12638.91    936.11746   -13575.027    40.909561    242.69552 
   14900    76.137103   -924.55264    58406.066   -12680.355    920.05628   -13600.411    41.147843    238.53154 
   14950    76.692811   -895.39949    58394.303   -12671.327    926.77157   -13598.099    41.439782    240.27253 
   15000    73.609761   -980.38966    58386.415   -12686.986    889.51536   -13576.501    41.948098    230.61358 
   15050    74.953373   -1394.7238    58391.947   -12698.745    905.75185   -13604.497    41.936081    234.82301 
   15100    75.558161   -971.74684    58319.586   -12688.663    913.06023   -13601.723    41.852315    236.71776 
   15150    77.815916   -758.84478    58278.542   -12677.645     940.3434   -13617.988    41.760867    243.79113 
   15200    77.795212   -1264.8749    58252.899   -12663.395    940.09321   -13603.488     41.98224    243.72627 
   15250    77.736724    -1153.478    58261.706   -12662.459    939.38643   -13601.845     42.19004    243.54303 
   15300    77.942509   -818.40762    58194.864   -12682.963    941.87317   -13624.836    42.322064    244.18774 
   15350    75.788941   -1048.9266    58196.506   -12683.502    915.84902   -13599.351    42.437759    237.44078 
   15400    75.916234   -1428.1798    58138.662   -12691.805    917.38725   -13609.192    42.278756    237.83958 
   15450    77.263328   -910.78356     58159.75   -12720.189    933.66581   -13653.854     42.80626    242.05992 
   15500     75.29259   -689.03992    58220.836   -12691.727    909.85101   -13601.578    43.023452    235.88575 
   15550    78.227358   -908.96226    58300.508   -12685.061    945.31535   -13630.376    43.206983    245.08015 
   15600    79.626506   -590.42677    58340.641   -12664.584    962.22294   -13626.807    43.295986    249.46357 
   15650    76.895465   -970.62975    58418.524   -12708.251    929.22048   -13637.471    43.560142    240.90743 
   15700    77.538822   -709.06129    58439.165   -12684.993    936.99494   -13621.988    43.621961    242.92302 
   15750    77.833917   -1077.5837    58437.192   -12699.578    940.56093   -13640.139    43.805987    243.84753 
   15800    77.958848    -905.3267    58443.537   -12703.296    942.07062   -13645.367    43.801042    244.23893 
   15850    73.490751   -914.90598    58499.495   -12740.639    888.07722   -13628.716    44.018662    230.24073 
   15900    72.017882   -1135.9142    58533.226   -12764.763    870.27877   -13635.042    44.037569    225.62635 
   15950    76.256903    -978.1523    58562.834   -12748.088    921.50397   -13669.592    43.671422    238.90687 
   16000    74.072499   -1142.1126    58544.474   -12733.171    895.10718   -13628.278    43.831714     232.0633 
   16050    78.112154   -1157.6126    58532.632   -12728.778     943.9232   -13672.701     44.09563    244.71922 
   16100    76.303525   -1305.7332    58509.127   -12736.123    922.06736    -13658.19    44.285799    239.05293 
   16150    75.216326   -990.92431    58517.918   -12720.364    908.92942   -13629.294    44.344515    235.64682 
   16200    75.922372   -916.64657    58514.856   -12749.209    917.46142    -13666.67    44.012154    237.85881 
   16250    74.428043   -1196.4365    58540.602   -12743.513    899.40364   -13642.917    44.176493    233.17719 
   16300    75.266213   -1057.1624    58520.131   -12773.395    909.53227   -13682.927    44.368004    235.80311 
   16350    74.106746   -1310.7815    58557.481     -12794.2    895.52103   -13689.721    44.700644    232.17059 
   16400    72.980763   -1003.6968    58510.187   -12793.605    881.91443    -13675.52    44.870993    228.64298 
   16450    73.018711   -1024.8668    58496.559   -12810.323      882.373   -13692.696    45.130773    228.76187 
   16500    76.736895   -1266.1974    58497.323   -12794.542    927.30429   -13721.846    45.146842    240.41064 
   16550    72.314462   -1203.9505    58442.064   -12802.988     873.8627   -13676.851    45.244106    226.55551 
   16600    73.974928   -1067.2499    58464.493   -12768.305    893.92812   -13662.233    45.352249    231.75762 
   16650    75.155336   -964.16234     58491.25   -12747.928     908.1924   -13656.121    45.755864    235.45574 
   16700    75.041797   -794.89328    58515.145   -12725.853    906.82038   -13632.673    46.195267    235.10004 
   16750    73.344661    -899.3004    58541.397   -12722.569    886.31184   -13608.881    46.200551    229.78304 
   16800    71.865319   -718.13157    58554.907   -12742.633    868.43517   -13611.068    46.450714    225.14838 
   16850    77.005656   -1032.6052    58646.491   -12709.253    930.55205   -13639.805    46.778073    241.25265 
   16900    78.667683   -749.39145    58654.301   -12670.937    950.63632   -13621.573    46.818634    246.45965 
   16950    77.924891   -1101.1327    58658.572   -12677.211    941.66027   -13618.871    47.184429    244.13254 
   17000    77.950859   -831.54478    58675.704   -12702.026    941.97408       -13644    47.058388     244.2139 
   17050    78.944497   -1188.0133    58658.202   -12708.647     953.9814   -13662.629    47.231556    247.32689 
   17100    75.067013   -1375.0282    58561.363   -12744.541     907.1251   -13651.666    47.290718    235.17904 
   17150    75.737391   -1077.1383     58538.19   -12721.148    915.22607   -13636.374    47.259979    237.27927 
   17200    77.290528   -1089.0742    58508.587   -12696.933     933.9945   -13630.928    46.982545    242.14513 
   17250    78.149001   -1028.6996    58540.995   -12706.491    944.36847   -13650.859    47.242866    244.83466 
   17300    75.324499   -913.66933     58559.45   -12697.602    910.23661   -13607.838     47.19139    235.98572 
   17350    75.873999   -1355.1172     58574.52   -12715.325    916.87688   -13632.202    47.556286    237.70726 
   17400    75.069525   -950.14312    58551.103   -12722.951    907.15545   -13630.106    48.035235     235.1869 
   17450    76.126421   -1222.8204    58573.697   -12723.506    919.92719   -13643.433     48.40427    238.49808 
   17500    75.891835   -1383.7914    58632.591    -12743.43    917.09242   -13660.523     48.58892    237.76314 
   17550    75.054108   -1348.4263    58591.594   -12729.246    906.96915   -13636.215    48.871078     235.1386 
   17600    77.244831   -1475.2452      58544.2    -12701.81    933.44229   -13635.252    49.143235    242.00197 
   17650    75.832803   -771.21408      58536.6   -12729.862    916.37905   -13646.241     48.99853    237.57819 
   17700    75.616519   -1077.2706    58562.476   -12739.165    913.76544   -13652.931    49.173435    236.90059 
   17750    74.928662     -1016.17    58627.394   -12732.101    905.45323   -13637.555    49.257378    234.74559 
   17800    76.662055   -780.42384    58648.103   -12703.788    926.39991   -13630.188    49.071655    240.17618 
   17850    75.495744   -1045.8043    58634.407   -12730.489    912.30597   -13642.795     49.29858    236.52222 
   17900    74.945105   -938.50493    58594.612   -12719.993    905.65193   -13625.645    49.720156    234.79711 
   17950    75.369694   -1153.9023    58602.951   -12699.791    910.78276   -13610.574    49.952149    236.12731 
   18000    74.879844    -668.2098     58620.25    -12696.65     904.8633   -13601.513    50.392969    234.59265 
   18050    78.320495   -1285.5963    58645.495   -12691.984    946.44083   -13638.424    50.338953    245.37194 
   18100    81.329201   -959.33753    58624.009   -12653.037    982.79865   -13635.836    50.856202    254.79797 
   18150    79.113461   -803.45271    58645.328   -12636.459     956.0232   -13592.482    51.073126    247.85624 
   18200    76.652392   -934.13842    58729.819   -12693.906    926.28313   -13620.189    50.838273     240.1459 
   18250    77.353037   -1177.8431    58665.779   -12685.911    934.74987   -13620.661    50.920114    242.34097 
   18300    77.089183    -1076.512    58657.358   -12707.228    931.56141   -13638.789    51.175586    241.51433 
   18350    77.979162   -1031.8402     58706.58   -12707.354     942.3161    -13649.67    51.050767    244.30257 
   18400    77.422131   -1078.1628    58676.085   -12725.382    935.58482   -13660.967     50.96572    242.55743 
   18450      76.2355   -1442.8675     58672.55   -12697.985    921.24533    -13619.23    51.434378    238.83981 
   18500    76.687653   -1382.3835    58675.549   -12692.315    926.70924   -13619.024    51.741594    240.25637 
   18550    75.797764   -1070.5263    58707.044   -12748.733    915.95564   -13664.688    52.116572    237.46842 
   18600    73.275095   -857.23847    58721.438   -12725.948    885.47119   -13611.419    52.333229     229.5651 
   18650    74.696008   -1035.3591    58707.526   -12737.496    902.64179   -13640.138    52.349155     234.0167 
   18700    74.218307   -941.58606    58701.779   -12742.594    896.86915   -13639.463    52.789834     232.5201 
   18750    77.659027   -1016.4188    58707.021   -12728.629    938.44752   -13667.076    52.993107    243.29961 
   18800    74.424419   -1239.1473    58687.336   -12729.863    899.35986   -13629.222    53.306752    233.16584 
   18850    73.399781   -1502.8973    58713.632   -12751.412    886.97792    -13638.39    53.475024    229.95573 
   18900    72.154831   -1388.6292    58664.078   -12769.674    871.93369   -13641.608      53.2447     226.0554 
   18950    75.173715   -845.24819    58628.866   -12745.381     908.4145   -13653.796    53.371008    235.51332 
   19000    76.299508   -924.33549     58685.05   -12731.004    922.01881   -13653.023    53.558249    239.04034 
   19050     75.37041   -1241.8996    58691.751   -12727.849     910.7914    -13638.64     53.55622    236.12955 
   19100    75.577693   -1150.5204    58705.847   -12735.501    913.29625   -13648.797    53.522502    236.77895 
   19150    74.244587   -945.83823    58737.281   -12748.963    897.18673   -13646.149    53.703123    232.60244 
   19200    75.083567   -1068.2482    58736.867   -12756.251    907.32514   -13663.576     53.96636     235.2309 
   19250     74.71109   -921.25766    58794.131   -12767.166    902.82404    -13669.99    53.941494    234.06395 
   19300    75.240826   -1219.2395    58826.668   -12769.992    909.22549   -13679.218    53.965949    235.72358 
   19350    75.970365   -991.39096    58801.975   -12765.028    918.04139   -13683.069    53.799959    238.00917 
   19400    74.285778   -1402.1159    58774.683    -12765.63    897.68449   -13663.315    54.174047    232.73149 
   19450    74.557113   -1099.1477    58724.334   -12770.988    900.96336   -13671.951    54.165164    233.58156 
   19500    74.285569   -1242.4462    58647.769   -12763.013    897.68197   -13660.695    54.351619    232.73083 
   19550    72.755452   -995.88846    58626.405   -12777.515    879.19172   -13656.707    54.365833     227.9371 
   19600    75.166159    -1076.838    58627.761   -12769.112     908.3232   -13677.436    54.768362    235.48965 
   19650    76.471468   -830.94082    58648.919   -12740.048    924.09682   -13664.144    54.680282    239.57908 
   19700     75.47211   -1495.3599    58678.013    -12725.13    912.02036   -13637.151    54.706262    236.44817 
   19750     75.01744   -781.90723     58712.35   -12729.929    906.52605   -13636.455    54.859701    235.02373 
   19800    77.996332   -1184.9453    58709.608   -12721.367    942.52358    -13663.89    54.901284    244.35636 
   19850    76.537303   -1107.4705    58728.106   -12723.233    924.89238   -13648.126    55.028107    239.78534 
   19900    74.741077   -1186.0319    58721.958   -12718.084    903.18642   -13621.271    55.013629     234.1579 
   19950    74.548294   -1221.0051    58674.276   -12721.253    900.85679    -13622.11    54.967835    233.55393 
   20000    76.695482   -1139.2492    58668.778   -12721.555    926.80385   -13648.359    54.750553     240.2809 
   20050    76.057953   -885.85103    58627.858   -12738.735    919.09981   -13657.835    54.853214    238.28357 
   20100    78.853681   -912.98137    58618.726   -12738.508    952.88396   -13691.392    55.004894    247.04237 
   20150    77.601078   -605.14119    58614.729   -12725.849    937.74726   -13663.596    55.041207    243.11806 
   20200    76.328847   -1170.3104     58576.56   -12734.114    922.37335   -13656.487    55.005117    239.13226 
   20250    77.672999   -1030.4422    58586.223   -12727.728    938.61636   -13666.344     54.84653    243.34338 
   20300    79.258163   -784.13395    58580.023   -12733.221     957.7718   -13690.993     54.98613    248.30958 
   20350    77.001664   -972.62425    58584.751    -12743.66    930.50381   -13674.164    55.234168    241.24014 
   20400    75.297754   -1301.5358    58563.656   -12740.771    909.91342   -13650.684    55.450283    235.90193 
   20450    77.804963   -1097.4051    58542.072   -12709.387    940.21104   -13649.598    55.693341    243.75682 
   20500     75.90548    -1226.702    58533.524   -12707.763     917.2573    -13625.02    55.890337    237.80589 
   20550    78.185037   -1307.1769    58493.147   -12688.681    944.80393   -13633.485    56.360039    244.94756 
   20600    77.195363   -1266.1698    58419.217   -12728.577    932.84451   -13661.422     56.71511    241.84699 
   20650    75.926311   -943.92301    58360.844   -12728.047    917.50902   -13645.556    57.074932    237.87115 
   20700    77.318808   -1178.3629    58333.655   -12712.155    934.33624   -13646.491    57.425224    242.23373 
   20750    76.678059   -890.89767    58320.444   -12735.075     926.5933   -13661.668    57.468905    240.22631 
   20800    76.706251    -933.6674    58342.785   -12714.347    926.93398   -13641.281    57.819326    240.31464 
   20850    75.086783   -1010.8136    58341.073   -12738.558      907.364   -13645.922    57.886552    235.24097 
   20900    74.338082   -1154.9388    58330.519   -12757.266    898.31655   -13655.583    57.524681    232.89535 
   20950    75.157795   -1071.0099    58304.296   -12748.306    908.22212   -13656.528    57.492849    235.46345 
   21000    77.216908   -1160.3385    58268.427   -12730.747    933.10487   -13663.852    57.801888    241.91449 
   21050    78.649015   -886.49541    58299.758   -12715.182    950.41074   -13665.593     57.62372    246.40116 
   21100    76.968576   -1036.6094    58311.792   -12709.758    930.10397   -13639.862    57.617485    241.13648 
   21150    76.141567   -1228.7988    58309.988   -12714.132    920.11022   -13634.242    58.112194    238.54553 
   21200    75.700208   -888.89945    58296.491   -12707.301    914.77675   -13622.078    58.469425    237.16278 
   21250    79.058757   -1390.0246    58306.961   -12720.097    955.36214   -13675.459    58.526225    247.68485 
   21300    77.623438    -908.3873    58294.426   -12690.315    938.01746   -13628.332    58.872223    243.18811 
   21350    77.729972   -800.23638    58305.577   -12695.676    939.30484   -13634.981    59.041355    243.52188 
   21400    78.541887   -979.30205    58298.571   -12682.872    949.11618   -13631.988    59.349138    246.06554 
   21450    76.624609   -787.85644    58336.396   -12694.728     925.9474   -13620.675    59.454116    240.05886 
   21500    76.412241   -1052.5468    58392.547   -12696.781     923.3811   -13620.162    59.288215    239.39353 
   21550    78.978353   -914.14118    58441.244   -12690.279    954.39053    -13644.67    59.490241    247.43296 
   21600    76.805981   -622.31399     58426.72   -12732.945    928.13914   -13661.084    59.557652    240.62708 
   21650    78.583194   -1141.3947    58427.438   -12730.047    949.61534   -13679.663    59.793911    246.19495 
   21700     74.71239   -1147.3902    58458.832   -12753.048    902.83975   -13655.887    59.875385    234.06803 
   21750    75.908636   -1082.3016    58410.272   -12753.102    917.29544   -13670.397    60.201792    237.81577 
   21800    75.664174   -1171.5778    58375.521   -12735.261    914.34131   -13649.602    60.267653    237.04989 
   21850    76.313066     -1181.32    58363.202   -12740.823    922.18265   -13663.005     60.35195    239.08282 
   21900    79.070006   -881.33969    58375.262    -12725.04    955.49808   -13680.538    60.377522     247.7201 
   21950    78.248419   -860.70017    58334.733   -12708.069    945.56986   -13653.639    60.535696    245.14613 
   22000    76.857015   -724.12039    58394.598   -12718.764    928.75584    -13647.52    60.536164    240.78697 
   22050     76.15229   -663.12218     58439.95   -12734.889    920.23981   -13655.129    60.840346    238.57912 
   22100    76.780431   -621.30075    58528.173   -12743.236    927.83039   -13671.067    60.949578    240.54704 
   22150    76.094541   -643.87675    58549.148   -12774.739    919.54195   -13694.281    61.234214     238.3982 
   22200    73.802318   -1286.5781    58542.756   -12786.026    891.84226   -13677.868    61.035868    231.21684 
   22250    74.899938   -835.31613    58554.771   -12748.514    905.10613    -13653.62    61.145141     234.6556 
   22300    76.396123   -1002.2094    58589.929   -12749.432    923.18634   -13672.618    61.342581    239.34303 
   22350     77.05517   -1137.1882    58546.379   -12772.052    931.15039   -13703.203    61.358506    241.40777 
   22400    74.976825   -1309.7205    58567.999   -12774.385    906.03525   -13680.421    61.328735    234.89648 
   22450    74.502709   -1077.9826    58572.504   -12771.096    900.30593   -13671.402     61.46678    233.41112 
   22500    74.271385   -1146.9794     58612.14   -12779.653    897.51056   -13677.164    61.568438    232.68639 
   22550     76.84256   -642.52787    58613.801   -12739.752    928.58117   -13668.333    61.352699    240.74168 
   22600    75.085868   -795.38803    58606.871   -12731.348    907.35294   -13638.701    61.535703    235.23811 
   22650    77.632942    -1185.025     58582.16   -12727.221    938.13231   -13665.353    61.784699    243.21789 
   22700     78.84197   -851.08691    58615.518   -12704.932    952.74244   -13657.675    62.088848    247.00568 
   22750    75.987151   -896.67473    58657.253   -12724.415    918.24424   -13642.659     62.54572    238.06176 
   22800    76.696313   -533.31616    58706.191   -12740.292    926.81389   -13667.106    62.869523     240.2835 
   22850    76.946514   -746.40832    58744.169   -12736.927    929.83737   -13666.765    62.978474    241.06736 
   22900    76.980349    -959.9643    58777.085   -12710.582    930.24623   -13640.829    62.903362    241.17336 
   22950    79.663493   -716.52458     58840.15   -12678.728     962.6699   -13641.398    63.293123    249.57945 
   23000    80.769558   -954.51553    58843.006   -12667.806    976.03581   -13643.842    63.541655    253.04466 
   23050    76.526448   -1380.5598    58844.219   -12680.169    924.76121    -13604.93    64.032635    239.75133 
   23100    80.287335   -906.54899    58806.291   -12682.303    970.20853   -13652.511    64.023237    251.53389 
   23150    80.529365   -1402.9861    58842.171   -12697.181    973.13327   -13670.314    64.186206    252.29215 
   23200    82.390394     -635.427    58882.271   -12666.439    995.62233   -13662.062    64.177538    258.12261 
   23250    78.114671    -962.6848    58917.397     -12655.2    943.95362   -13599.153    64.084605    244.72711 
   23300    79.320827   -914.25084    58917.015   -12632.495    958.52906   -13591.024    64.403058     248.5059 
   23350    77.627213   -1123.2922    58896.773   -12681.035    938.06308   -13619.098    64.404793    243.19994 
   23400    78.023064   -1001.6494     58931.59   -12664.035    942.84661   -13606.882    64.330461    244.44011 
   23450    77.487731    -1207.578    58919.851   -12694.839    936.37754   -13631.216    64.357034    242.76295 
   23500     78.55007    -1380.805    58887.541   -12660.457    949.21506   -13609.672    64.348654    246.09118 
   23550    79.975949   -991.07336    58867.782   -12633.358    966.44568   -13599.804    64.670478    250.55834 
   23600    75.279269   -1377.6373    58852.481   -12659.311    909.69004   -13569.001    64.943344    235.84402 
   23650    78.917764   -1186.9023     58788.94   -12651.047    953.65835   -13604.706     64.97396    247.24313 
   23700    77.073012   -831.39681    58767.612   -12677.398    931.36599   -13608.764    65.249801    241.46367 
   23750    75.375357    -1235.281    58777.791    -12705.08    910.85119   -13615.932    65.217651    236.14505 
   23800    75.578561   -832.90063    58757.258   -12711.838    913.30675   -13625.144    65.322179    236.78167 
   23850    75.269568   -956.18064    58779.359    -12720.01    909.57281   -13629.583      65.4779    235.81362 
   23900    76.539438   -1155.7848     58785.14   -12772.298    924.91817   -13697.217    65.582383    239.79202 
   23950    74.281073   -1293.4115    58762.292   -12806.635    897.62763   -13704.263    65.837693    232.71675 
   24000    74.631943   -1192.9826    58751.615   -12773.609    901.86762   -13675.477    66.233963      233.816 
   24050    76.536098   -989.11344    58745.886   -12725.822    924.87782     -13650.7    66.222305    239.78156 
   24100      75.9449   -1573.9463    58730.075   -12712.977    917.73366    -13630.71    66.305522    237.92939 
   24150    78.436375   -910.03035    58724.625   -12714.585    947.84115   -13662.426    66.324484    245.73498 
   24200    78.589848   -1072.5657    58755.156   -12706.271    949.69576   -13655.967     66.72216     246.2158 
   24250    78.337957   -1074.9275    58776.203   -12704.515    946.65185   -13651.167    66.975155    245.42664 
   24300    76.678115   -1214.9375    58812.052   -12701.182    926.59398   -13627.776    66.973551    240.22649 
   24350    75.995974   -1022.3391    58830.487   -12707.145    918.35085   -13625.496      67.1291     238.0894 
   24400    76.860741   -1016.4048    58813.575   -12699.419    928.80087    -13628.22    67.112046    240.79864 
   24450    77.390755   -909.08012    58797.574   -12728.078    935.20566   -13663.284    67.207559    242.45913 
   24500    78.179513   -1201.8644    58761.469   -12695.916    944.73718   -13640.653    67.618894    244.93025 
   24550    77.234618   -1061.3066    58735.589    -12694.25    933.31888   -13627.569    67.522619    241.96997 
   24600    78.703471   -1261.0943    58733.453   -12698.394    951.06879   -13649.463    67.632238    246.57177 
   24650    80.253214   -1123.2797    58761.601   -12660.899    969.79621   -13630.695    67.400315    251.42699 
   24700    80.603292   -889.86006    58773.714   -12661.121    974.02662   -13635.147    67.563106    252.52376 
   24750    77.405215   -1228.4387    58771.891    -12672.47     935.3804   -13607.851    67.446496    242.50444 
   24800    78.423763   -946.70082    58746.023   -12678.469    947.68874   -13626.158    67.540076    245.69547 
   24850    77.222895   -786.99022    58722.175   -12689.129    933.17721   -13622.306    67.559071    241.93324 
   24900    75.359483   -633.43071    58714.193   -12705.942    910.65936   -13616.602     68.04705    236.09532 
   24950    75.698734   -805.16952    58767.128   -12706.577    914.75894   -13621.336    68.122304    237.15817 
   25000    73.680593   -863.28276    58768.104   -12762.613    890.37131   -13652.985     68.25407    230.83549 
   25050    77.578677   -804.91573    58816.958   -12745.315    937.47655   -13682.791    68.475645    243.04788 
   25100    75.650264   -1053.5527    58851.435   -12746.459    914.17322   -13660.632    68.668728    237.00631 
   25150    74.422643   -1239.9129    58853.577   -12768.514    899.33839   -13667.852    68.672874    233.16027 
   25200    75.989627   -810.94717    58873.106   -12736.148    918.27414   -13654.422    68.811078    238.06951 
   25250    77.801053   -991.78074    58886.779   -12746.043    940.16379   -13686.207    68.971694    243.74457 
   25300    73.821051   -817.52816    58932.064   -12754.409    892.06864   -13646.478    69.027571    231.27553 
   25350    77.059197   -1176.4386    58977.152    -12734.59    931.19905   -13665.789    69.006467    241.42039 
   25400    77.835061   -767.80032    58949.688   -12704.568    940.57475   -13645.142    68.872151    243.85111 
   25450    75.692761   -1238.8369     58987.55   -12705.393    914.68676    -13620.08    68.673886    237.13945 
   25500    72.775865   -1081.6958    58949.645   -12721.207    879.43839   -13600.645    68.694663    228.00105 
   25550    75.686418   -1493.8854    58896.986   -12730.109    914.61011    -13644.72    68.596955    237.11958 
   25600    74.233564   -993.01232     58849.59    -12751.15    897.05352   -13648.203    68.644939     232.5679 
   25650    74.989927   -1322.9367    58784.738    -12752.69    906.19357   -13658.884    68.753561    234.93753 
   25700    76.407953   -1206.3609     58786.91   -12739.136    923.32929   -13662.466    68.837148    239.38009 
   25750    77.597847   -1071.2542    58773.031   -12705.999    937.70821   -13643.707    68.941262    243.10794 
   25800    75.877302   -1162.1468    58728.582   -12709.459     916.9168   -13626.375    68.617428    237.71761 
   25850    77.484871   -1397.7457    58791.151   -12687.053    936.34299   -13623.396    68.531697    242.75399 
   25900    77.592988   -1013.3208    58823.328   -12710.001    937.64949   -13647.651    69.031755    243.09272 
   25950    77.642497   -862.09378    58849.831   -12713.532    938.24776    -13651.78    69.434674    243.24782 
   26000    78.928812     -1281.67    58824.041   -12692.912    953.79187   -13646.704    69.336989    247.27775 
   26050    77.856109   -1090.9276    58785.201   -12691.997     940.8291   -13632.826    69.588475    243.91705 
   26100    75.552156   -1147.8661    58732.956   -12714.699    912.98766   -13627.687    70.059597    236.69895 
   26150    76.780876    -1209.988    58743.056   -12723.064    927.83577     -13650.9    70.569113    240.54843 
   26200    76.194122   -1447.5953    58715.844   -12725.444    920.74531   -13646.189    70.720055    238.71018 
   26250    79.494867   -1086.3096    58660.459   -12725.933    960.63219   -13686.565    70.867685    249.05115 
   26300    74.042054   -1000.9317     58690.87    -12738.08    894.73928   -13632.819    70.897686    231.96792 
   26350    74.552851   -1289.0212    58691.651   -12746.022    900.91186   -13646.934    70.775003    233.56821 
   26400    74.873321   -911.25515    58649.018   -12730.492    904.78448   -13635.276    70.739118    234.57221 
   26450    72.398452   -833.42624     58638.73   -12738.355    874.87766   -13613.233    70.709601    226.81864 
   26500    74.977823   -1034.6204    58625.146    -12749.27    906.04731   -13655.317    70.721809    234.89961 
   26550     75.70524   -809.62618    58619.411   -12733.943    914.83755   -13648.781     71.01681    237.17855 
   26600    76.897134    -1206.551     58604.55    -12698.37    929.24065    -13627.61    71.173602    240.91266 
   26650    79.658525   -923.26972    58544.205   -12681.553    962.60986   -13644.163    70.996729    249.56388 
   26700    78.481892   -872.18796    58556.634   -12691.393    948.39118   -13639.784    71.466922    245.87758 
   26750    76.876071   -709.66725      58569.5   -12702.951    928.98612   -13631.938    71.733882    240.84667 
   26800    74.890002   -607.43534    58599.503   -12704.737    904.98605   -13609.723    72.145673    234.62447 
   26850    75.837853   -1043.9628    58605.907   -12691.241    916.44009   -13607.681    71.936273    237.59402 
   26900    78.940895   -1117.9368    58609.757   -12710.836    953.93787   -13664.774    71.964271     247.3156 
   26950    75.466091   -733.53278    58623.595   -12724.158    911.94764   -13636.106     72.49793    236.42932 
   27000    78.817925   -981.62242    58633.431   -12734.526    952.45187   -13686.978    72.621797    246.93034 
   27050    75.536428   -1107.8155    58597.013    -12728.59    912.79761   -13641.388    72.497048    236.64968 
   27100    77.892874     -1085.12    58613.908   -12726.985    941.27338   -13668.259    72.553054    244.03223 
   27150    75.018728   -1440.1541    58533.983   -12736.965    906.54161   -13643.506    72.739332    235.02776 
   27200     75.53167   -1020.2952    58525.531   -12753.653     912.7401   -13666.394     72.69298    236.63477 
   27250     76.73239   -1126.2346    58509.202   -12706.612    927.24985   -13633.862    73.366259    240.39653 
   27300    76.348016   -516.21333     58534.26   -12722.456    922.60499   -13645.061    73.323867    239.19231 
   27350    76.153687   -931.30176    58546.943    -12741.04    920.25669   -13661.297    73.524473     238.5835 
   27400    74.759477   -702.15099    58568.242   -12761.094    903.40877   -13664.503    73.579922    234.21555 
   27450    77.394336   -828.53402    58522.573    -12743.63    935.24894   -13678.879    73.748358    242.47035 
   27500    75.022231   -837.67213    58515.189   -12757.191    906.58394   -13663.775    74.115161    235.03874 
   27550    75.110777   -625.52008    58561.922   -12750.047    907.65395   -13657.701    74.061047    235.31614 
   27600    78.951338   -786.67985    58624.089   -12770.175    954.06407   -13724.239    74.227863    247.34832 
   27650    76.514205   -1080.6446    58655.718   -12763.466    924.61325   -13688.079    74.726182    239.71297 
   27700    75.025763   -1158.7448    58662.097    -12784.29    906.62662   -13690.917    74.688553     235.0498 
   27750    75.497788   -951.28179    58632.243   -12784.128    912.33067   -13696.458     74.36666    236.52862 
   27800    73.879123   -947.58383    58655.192   -12781.031    892.77039   -13673.802    74.483409    231.45747 
   27850    73.826365   -1265.0786    58587.322   -12791.031    892.13285   -13683.164    74.605609    231.29218 
   27900    74.685885   -1098.3308    58615.303   -12788.469    902.51946   -13690.989    74.710485    233.98499 
   27950    76.573096   -845.77555    58625.241   -12791.394    925.32491   -13716.718    74.884683    239.89747 
   28000    73.959088   -768.54713    58666.455   -12823.714    893.73671   -13717.451    75.270212    231.70799 
   28050    73.776157   -769.61923    58743.824   -12807.725    891.52613   -13699.251    75.607935    231.13489 
   28100    73.501921   -776.85506    58757.864   -12833.004     888.2122   -13721.216    75.645037    230.27572 
   28150    74.706762   -963.35335     58745.67   -12805.534    902.77175   -13708.306    75.781665     234.0504 
   28200    78.437017    -1084.836    58751.275   -12764.862    947.84891    -13712.71    76.127267    245.73699 
   28250    77.770973   -851.82233    58735.594   -12689.609    939.80029    -13629.41    76.585932    243.65033 
   28300    78.784418    -1008.254    58770.855   -12725.225    952.04697   -13677.272    76.649391    246.82537 
   28350    76.321551   -734.38688    58771.853   -12743.122    922.28519   -13665.407    76.539522     239.1094 
   28400    76.376095   -954.30794    58804.833   -12763.233    922.94431   -13686.177     76.94705    239.28029 
   28450    79.123175   -546.34064    58777.343   -12724.643    956.14058   -13680.783    77.256806    247.88667 
   28500    77.116541   -912.95507    58781.155   -12738.876    931.89201   -13670.768    77.176145    241.60004 
   28550    78.126508   -1004.8196    58741.803   -12737.159    944.09666   -13681.255    77.524055    244.76419 
   28600     77.57165   -1107.9569    58749.429   -12733.206    937.39164   -13670.597     77.73273    243.02587 
   28650    79.043638   -714.75856    58744.407   -12747.403    955.17944   -13702.583    77.494109    247.63749 
   28700    75.850391   -1294.9916    58758.608   -12731.134     916.5916   -13647.726    77.518384     237.6333 
   28750    78.475808   -982.97215     58737.27   -12708.921    948.31767   -13657.239    77.834925    245.85852 
   28800    77.955971   -883.87492    58744.012   -12747.292    942.03585   -13689.328    77.864283    244.22991 
   28850    75.057168   -1022.7293    58746.793   -12740.974    907.00612    -13647.98    77.589363    235.14819 
   28900    79.284061   -970.20109     58799.13   -12712.624    958.08476   -13670.709    77.490915    248.39071 
   28950    76.624853   -1000.7573    58770.251   -12732.469    925.95035   -13658.419    77.893483    240.05962 
   29000    76.687189     -780.979    58815.789   -12733.696    926.70363     -13660.4    78.004759    240.25492 
   29050    75.620273   -897.37909    58796.013    -12722.69     913.8108     -13636.5     77.88751    236.91235 
   29100    77.838488   -1187.8107    58824.003   -12724.536    940.61617   -13665.152    78.049939    243.86185 
   29150    75.434731   -1183.9954    58788.811   -12734.638    911.56868   -13646.207     77.81554    236.33107 
   29200    77.594005   -935.77049    58767.314   -12726.533    937.66178   -13664.195     78.21627     243.0959 
   29250    76.474422   -935.36598    58751.854   -12730.171    924.13251   -13654.304    78.874398    239.58834 
   29300    74.410652   -988.30102    58668.636   -12760.442    899.19349   -13659.635    78.828661    233.12271 
   29350    73.840147   -855.96798    58653.881   -12790.461     892.2994   -13682.761    78.543172    231.33536 
   29400    72.056833   -931.35752    58729.198   -12793.615    870.74947   -13664.364    78.640499    225.74838 
   29450    75.351769   -1076.7897    58693.928   -12731.839    910.56614   -13642.405    78.755238    236.07115 
   29500    77.145146   -1127.7692    58684.416     -12742.6    932.23768   -13674.838    79.092305    241.68966 
   29550    76.688565    -773.9062    58691.231   -12755.273    926.72026   -13681.993    79.466488    240.25923 
   29600    74.751471   -1094.7927    58726.012   -12787.774    903.31202   -13691.086    79.794739    234.19047 
   29650    76.052936   -771.38428     58801.15   -12759.526    919.03919   -13678.565    79.558349    238.26785 
   29700    76.134264   -993.27427    58809.605   -12789.394    920.02197   -13709.416    79.676334    238.52265 
   29750    73.282549   -943.07839    58795.846   -12814.361    885.56126   -13699.922    79.783654    229.58845 
   29800    71.189237   -1142.7379    58800.353   -12824.793    860.26526   -13685.058    79.863627    223.03027 
   29850    76.634768   -971.50274    58802.117   -12829.757    926.07017   -13755.827    79.670221    240.09069 
   29900    74.637902   -1196.0158     58734.62   -12825.082    901.93963   -13727.022    79.467608    233.83466 
   29950    75.691378   -1467.0111     58689.13   -12834.077    914.67005   -13748.747    79.696442    237.13512 
   30000    75.121343   -1315.9107    58632.315   -12808.128    907.78162   -13715.909    80.026274    235.34924 
   30050    74.282465   -927.11397    58535.334   -12831.498    897.64445   -13729.143    80.221477    232.72111 
   30100    77.286426   -1069.4232    58559.791   -12806.605    933.94493    -13740.55    80.483523    242.13228 
   30150    73.577951   -674.66771    58628.974   -12809.335    889.13096   -13698.466    80.177757    230.51392 
   30200    74.367024   -536.73588    58664.387   -12841.533    898.66629   -13740.199    80.153447    232.98602 
   30250    77.002796   -689.76843    58706.937   -12807.532    930.51749   -13738.049     80.25373    241.24369 
   30300    77.304039   -1031.5316    58805.547   -12832.026    934.15778   -13766.184    80.295236    242.18746 
   30350    73.060894   -1041.0619    58831.135   -12848.071    882.88275   -13730.954    80.194735    228.89402 
   30400    73.486373   -1328.8888    58802.321   -12832.064    888.02432   -13720.088    80.116449    230.22701 
   30450    76.895461   -1124.9148    58765.136   -12812.857    929.22044   -13742.078    80.508966    240.90742 
   30500    75.597366   -842.42493    58734.594   -12807.258    913.53398   -13720.792    81.083504    236.84059 
   30550    73.604188   -1158.5355    58714.067   -12803.865    889.44802   -13693.313    81.180908    230.59612 
   30600    74.589182   -1133.7797    58704.471   -12805.765    901.35088   -13707.115     81.15332    233.68203 
   30650    74.406711   -1029.9933    58696.988    -12803.33    899.14587   -13702.476    81.564958    233.11036 
   30700    75.973518   -1308.7628    58672.636   -12784.184    918.07948   -13702.263    81.811533    238.01904 
   30750    75.740202   -1144.5318    58638.527   -12805.121    915.26005   -13720.381    81.518434    237.28808 
   30800    77.426209   -1063.9241    58627.326   -12794.824     935.6341   -13730.458    81.894286    242.57021 
   30850    74.950627   -1390.7908    58645.715   -12824.318    905.71866   -13730.037    81.747617    234.81441 
   30900    77.959079   -1115.1207    58604.579   -12797.389    942.07341   -13739.462    81.494621    244.23965 
   30950    77.191001    -1238.686    58623.163   -12754.071     932.7918   -13686.862    82.041249    241.83332 
   31000    77.334013   -1013.8158    58635.248   -12750.282    934.51998   -13684.802     81.98326    242.28137 
   31050    75.835217   -1270.8889    58645.343    -12747.52    916.40822   -13663.929    81.876377    237.58576 
   31100    79.723788   -1455.0463     58626.06   -12743.017    963.39851   -13706.415    81.799606    249.76834 
   31150    77.106276   -1322.7336     58575.72   -12791.892    931.76797    -13723.66    81.916188    241.56789 
   31200     74.82719   -1043.8453    58505.036   -12776.335    904.22702   -13680.562    82.042981    234.42769 
   31250    76.384961   -998.47788    58446.712   -12798.171    923.05145   -13721.222    82.086648    239.30806 
   31300    75.155761    -759.3149    58497.841   -12795.811    908.19754   -13704.008    82.345987    235.45708 
   31350    77.962605   -576.67752    58541.173   -12799.568    942.11602   -13741.684     82.15541     244.2507 
   31400    76.631843   -971.37518    58592.829   -12793.167    926.03482   -13719.202    82.299106    240.08152 
   31450    76.155029   -636.00083    58635.512   -12801.216     920.2729   -13721.489    82.878623     238.5877 
   31500    75.608258   -1084.0634    58623.167   -12805.615    913.66562    -13719.28    83.332084    236.87471 
   31550    75.528818   -1006.0885    58686.425    -12796.64    912.70564   -13709.346     83.53834    236.62583 
   31600    78.715416   -859.84589    58720.189   -12774.072    951.21314   -13725.285    83.836681    246.60919 
   31650    75.337665    -756.8013     58727.27   -12791.589    910.39571   -13701.985    83.729547    236.02697 
   31700    76.712455   -976.79134    58728.213   -12793.786    927.00895   -13720.795    83.926298    240.33408 
   31750    74.629457   -1155.3132    58742.177   -12820.273    901.83757    -13722.11    83.551516     233.8082 
   31800    73.458356   -1315.8406     58746.56   -12790.573    887.68576   -13678.259    83.774829    230.13924 
   31850    73.796033   -470.06517    58776.567   -12815.717    891.76631   -13707.483    84.405947    231.19715 
   31900    74.796425   -743.86434    58848.437     -12805.9    903.85525   -13709.755    84.415841     234.3313 
   31950    76.090089   -778.14043    58836.563    -12789.89    919.48816   -13709.378     84.53032    238.38425 
   32000    76.801736   -1227.6658    58895.473   -12798.319    928.08785   -13726.407    84.576614    240.61379 
   32050    77.099726   -1013.1445    58846.957   -12797.829    931.68881   -13729.518    84.560382    241.54736 
   32100    75.728152   -1084.6181    58837.906   -12810.806    915.11443    -13725.92    84.694443    237.25033 
   32150    75.248519   -1027.2665    58826.362   -12802.419    909.31845   -13711.737    84.783825    235.74768 
   32200     73.98508   -1030.7133    58725.425   -12821.901    894.05079   -13715.952    84.818404    231.78942 
   32250    76.664826   -800.50228    58685.958   -12792.173    926.43339   -13718.606    84.986191    240.18486 
   32300    77.397018   -665.68334    58683.074   -12768.362    935.28135   -13703.643    84.500008    242.47876 
   32350    77.738208   -678.74583    58672.772   -12741.678    939.40436   -13681.083    84.604171    243.54768 
   32400    77.180833   -819.37821    58691.267   -12749.514    932.66892   -13682.183     84.78605    241.80146 
   32450    76.796092   -1036.0153    58716.473    -12786.64    928.01964    -13714.66     84.80393     240.5961 
   32500    78.032314   -962.06258    58756.371   -12762.261     942.9584   -13705.219    85.296938    244.46909 
   32550    79.047178   -1160.5893    58735.371   -12738.523    955.22222   -13693.745    85.611257    247.64858 
   32600    78.671298   -1119.7486    58778.997   -12724.184    950.68001   -13674.864    85.862016    246.47097 
   32650    76.231961   -984.79529    58797.782   -12724.639    921.20257   -13645.842    86.046049    238.82873 
   32700    79.602159    -1015.178    58866.699   -12745.881    961.92873    -13707.81    86.129053    249.38729 
   32750    78.500473   -972.55682    58903.088   -12737.506    948.61572   -13686.122    86.099223    245.93579 
   32800    76.866266    -1179.702    58895.404   -12770.035    928.86764   -13698.903    86.209762    240.81595 
   32850    76.028095   -917.55871    58899.579   -12781.043    918.73901   -13699.782    86.233035    238.19003 
   32900    76.173971   -1012.2977    58953.416   -12773.789     920.5018   -13694.291    86.520266    238.64705 
   32950    76.998085   -1227.6592    58931.287   -12791.196    930.46057   -13721.656    87.084456    241.22893 
   33000    72.900982   -947.46702      58930.4   -12805.853    880.95034   -13686.803    87.303748    228.39303 
   33050    77.118807   -1297.9018    58940.878   -12812.477    931.91939   -13744.396    87.434083    241.60714 
   33100    77.053474   -1139.3319    58946.496   -12779.931     931.1299   -13711.061     87.42949    241.40246 
   33150    75.444903   -1168.4997    58915.827   -12808.621    911.69159   -13720.313    87.593987    236.36293 
   33200    77.750802    -978.7224    58882.819   -12803.224    939.55654    -13742.78    87.829232    243.58713 
   33250    76.777548   -1160.3115    58918.789   -12791.137    927.79555   -13718.932    87.830097    240.53801 
   33300    76.892352   -750.54765     58948.01   -12774.301    929.18286   -13703.484    87.777709    240.89768 
   33350    75.485422   -834.04801     58964.96   -12813.847    912.18123   -13726.029    88.089865    236.48988 
   33400    75.354232   -982.61458    58988.355   -12786.945    910.59591   -13697.541    87.795716    236.07887 
   33450    76.852564   -916.31984    58940.178   -12808.227    928.70206   -13736.929    88.252096    240.77302 
   33500    75.378215    -667.0554    58952.767   -12794.678    910.88572   -13705.563    88.706356    236.15401 
   33550    75.729344   -1168.9764    58915.977   -12800.152    915.12884   -13715.281    88.608573    237.25407 
   33600    76.761176   -1013.7898    58926.692    -12791.91     927.5977   -13719.508    88.464328    240.48671 
   33650    74.823581   -1338.2189    58904.775   -12787.828    904.18341   -13692.012    88.394797    234.41638 
   33700     73.55765   -1039.6415    58899.861   -12768.641    888.88565   -13657.527    88.162428    230.45032 
   33750    76.407871   -1027.2143    58924.092   -12791.961     923.3283    -13715.29    88.202622    239.37984 
   33800     75.03105   -1247.2432    58922.443   -12811.032    906.69051   -13717.722    88.080374    235.06637 
   33850     72.45245   -1194.9739    58899.719   -12823.808    875.53018   -13699.338    88.259769    226.98781 
   33900    75.059173   -1032.5613     58919.46   -12819.242    907.03036   -13726.272     88.39341    235.15447 
   33950    74.635086   -767.92575    58904.865   -12802.778     901.9056   -13704.684    88.345409    233.82584 
[...]
   92000    75.202335   -1289.2197    60634.355   -13342.733    908.76036   -14251.493    154.49903    235.60299 
   92050    73.405899   -1190.4437    60652.255   -13361.223    887.05186   -14248.275    154.41516     229.9749 
   92100    76.018786   -1184.7277    60692.459   -13331.464    918.62651   -14250.091    154.50957    238.16086 
   92150    75.063055   -1320.0027    60736.037       -13329    907.07727   -14236.077    154.53391    235.16664 
   92200    73.700914   -1057.9125    60665.183   -13329.011    890.61688   -14219.628    154.29479    230.89916 
   92250    77.721155   -1064.6369    60602.011   -13292.835    939.19828   -14232.034    154.21087    243.49425 
   92300     75.51608   -1202.4052    60524.833   -13322.574    912.55171   -14235.126    154.04428    236.58593 
   92350    74.525525   -1282.3527    60506.325   -13338.381    900.58165   -14238.963      154.312     233.4826 
   92400    74.227687   -955.96489    60507.814   -13313.427    896.98251   -14210.409    154.74698    232.54949 
   92450    75.899723   -1171.8932    60511.246   -13305.716    917.18773   -14222.903    154.96285    237.78785 
   92500    78.164615   -1178.1752    60529.608   -13291.826    944.55715   -14236.383    154.67099    244.88358 
   92550    77.542437   -1232.4644    60540.557   -13281.607    937.03862   -14218.646    154.60187    242.93434 
   92600    77.610611   -1249.4787    60603.337   -13268.659    937.86245   -14206.522    154.29163    243.14793 
   92650    77.442212   -1284.3798    60630.649   -13228.973    935.82749   -14164.801    154.42571    242.62035 
   92700    79.258187   -1237.3446    60590.407    -13220.44     957.7721   -14178.212     154.4123    248.30965 
   92750    78.942033   -1121.9829    60521.396   -13245.099    953.95163    -14199.05    154.16998    247.31917 
   92800    76.221084   -1491.7073    60555.781    -13279.06    921.07113   -14200.131    154.76287    238.79465 
   92850    77.897221   -1104.3874    60581.445   -13273.832     941.3259   -14215.158    154.34624    244.04585 
   92900    76.677713   -1438.7304    60548.993   -13298.927    926.58912   -14225.516    154.99556    240.22523 
   92950     75.48859    -1245.192    60524.055   -13272.894    912.21951   -14185.113    154.54176     236.4998 
   93000    79.010336   -1289.9518    60509.578   -13281.817    954.77701   -14236.594    154.32054    247.53315 
   93050    77.758751   -1496.0668    60485.354   -13308.041    939.65261   -14247.694    154.98068    243.61204 
   93100    76.784576   -1186.1593    60489.165   -13284.625    927.88048   -14212.505    154.88983    240.56002 
   93150    74.481488   -1441.4522    60442.507   -13279.713    900.04949   -14179.763    154.80263    233.34463 
   93200    76.788363   -1241.6346    60401.722   -13289.178    927.92624   -14217.104    155.02107    240.57189 
   93250    78.346059   -1185.1923    60413.697   -13280.611    946.74976    -14227.36    154.94417    245.45203 
   93300    76.285426   -1141.4813    60339.841    -13269.02    921.84865   -14190.869    154.91343    238.99623 
   93350    77.025812    -1244.982    60281.626   -13294.047    930.79562   -14224.842     155.1899     241.3158 
   93400    76.544208   -1019.5819     60273.97   -13319.278    924.97582   -14244.254    154.73193    239.80697 
   93450    75.593371   -994.89471    60300.022    -13303.64    913.48571   -14217.125    154.77369    236.82807 
   93500    75.167424   -960.68825    60353.539   -13336.007    908.33848   -14244.346    154.69397    235.49361 
   93550    76.183881   -1152.2634    60349.601    -13334.16    920.62156   -14254.782    154.49881    238.67809 
   93600    78.421275   -987.53433    60380.646   -13324.165    947.65868   -14271.824    154.09057    245.68767 
   93650     77.15657   -1172.8529    60435.331   -13296.884    932.37573    -14229.26    154.62502    241.72545 
   93700    75.018303   -1206.1132    60455.507   -13292.639    906.53647   -14199.176    154.39629    235.02643 
   93750    79.492764   -1094.1032    60440.579   -13316.506    960.60677   -14277.113    154.66538    249.04456 
   93800    78.349779   -1295.8062    60419.528   -13289.523     946.7947   -14236.318    154.59841    245.46368 
   93850    76.811438   -964.49618    60443.907   -13283.594    928.20509   -14211.799    154.48886    240.64418 
   93900    77.787691   -1103.0244    60441.426   -13301.002    940.00233   -14241.004    154.46378    243.70271 
   93950    78.143872   -1194.8752    60489.074   -13275.377    944.30649   -14219.683    154.59194    244.81859 
   94000     78.88069   -923.33701    60478.309   -13267.312    953.21034   -14220.523    154.48885    247.12698 
   94050    78.053558   -1024.3754    60523.379   -13287.838    943.21512   -14231.053    154.74657    244.53565 
   94100    77.541179   -1131.5142     60553.48   -13282.816    937.02342    -14219.84    154.63673     242.9304 
   94150    75.735045   -1276.3819    60601.446   -13317.302    915.19773     -14232.5    154.67421    237.27193 
   94200    75.513976   -1088.1211    60628.085   -13280.342    912.52629   -14192.868    154.40282    236.57933 
   94250    76.424703   -1134.4345    60670.488   -13291.342    923.53169   -14214.873    154.65708    239.43257 
   94300    76.378348   -1022.6158     60670.19   -13286.499    922.97153    -14209.47    154.53879    239.28734 
   94350    75.084817   -1265.8683    60640.567   -13306.281    907.34024   -14213.621    154.76888    235.23481 
   94400     78.88754   -1151.9935    60596.516   -13281.114    953.29312   -14234.407    154.78509    247.14844 
   94450    75.622317   -1306.6477    60590.048   -13287.548     913.8355   -14201.383    154.89904    236.91876 
   94500    75.380569   -1232.6128     60602.87   -13316.636    910.91417    -14227.55    154.73886    236.16138 
   94550    74.877278   -1173.9529    60607.737   -13326.541     904.8323   -14231.374    154.85536    234.58461 
   94600    75.059731   -1251.1885    60605.204   -13294.614     907.0371   -14201.651    154.37453    235.15622 
   94650    75.640803    -1176.492    60590.577   -13315.888    914.05889   -14229.947    154.46976    236.97667 
   94700    75.254629   -1208.8126    60581.769   -13325.649    909.39228   -14235.042    154.35166    235.76682 
   94750    78.052013   -1182.3789    60579.344   -13306.936    943.19644   -14250.132    154.62202     244.5308 
   94800    76.534037   -1111.8152    60565.948   -13298.946    924.85291   -14223.799    154.53383     239.7751 
   94850    78.631993   -1069.4938    60580.453   -13280.641    950.20505   -14230.846    154.36707    246.34784 
   94900    78.337328   -1070.0241    60575.233   -13235.413    946.64425   -14182.058    154.57344    245.42467 
   94950    76.475835   -1449.3356    60582.747   -13278.783    924.14959   -14202.933    154.92738    239.59276 
   95000    78.848222    -947.9698    60534.671   -13279.708    952.81799   -14232.526    154.29798    247.02526 
   95050      75.7112    -1345.966    60553.223   -13275.039    914.90958   -14189.948     154.8461    237.19722 
   95100    77.511878    -868.9635    60505.653   -13278.758    936.66934   -14215.427     154.7748     242.8386 
   95150    75.317081   -1198.7954    60485.372   -13304.575    910.14696   -14214.722    154.84537    235.96248 
   95200    73.736682   -1419.8096    60469.097   -13322.658    891.04911   -14213.707    154.63785    231.01121 
   95250    79.954158   -994.50598    60480.828   -13309.377    966.18235    -14275.56    154.54721    250.49007 
   95300     77.95513   -1204.2267    60466.044   -13292.956    942.02569   -14234.982    154.81469    244.22728 
   95350     77.18134   -1259.6427     60485.75   -13317.669    932.67505   -14250.344    154.68686    241.80305 
   95400    76.858772   -1243.6364    60450.284   -13325.939    928.77707   -14254.716    155.00022    240.79247 
   95450    77.286227   -1151.6172    60443.891   -13312.986    933.94252   -14246.929    154.90808    242.13166 
   95500    77.445469   -1321.5304     60448.52   -13317.029    935.86684   -14252.896    154.81684    242.63055 
   95550    77.774469     -1246.72    60436.017    -13329.61    939.84255   -14269.452     154.7651    243.66128 
   95600    75.044052    -1235.738    60421.245   -13333.984    906.84763   -14240.832    154.51457     235.1071 
   95650    76.183701   -1333.5613     60363.19   -13326.783    920.61938   -14247.402    155.00489    238.67753 
   95700    75.786608   -1090.4235    60338.684   -13291.095    915.82083   -14206.916    155.35335    237.43347 
   95750    78.737397   -1299.3281    60290.314   -13271.266    951.47876   -14222.744    155.34399    246.67806 
   95800    79.557346   -1113.8172    60277.701   -13236.539     961.3872   -14197.926    155.39246    249.24689 
   95850    77.129444   -945.12568     60234.66   -13263.566    932.04793   -14195.613    155.24601    241.64047 
   95900    79.026764   -1024.7511     60245.23   -13269.933    954.97554   -14224.908    155.22818    247.58462 
   95950    77.787757   -836.92746    60233.206   -13294.337    940.00312    -14234.34    155.68489    243.70291 
   96000    77.839849   -814.51162    60290.028   -13289.908     940.6326   -14230.541    155.74722    243.86611 
   96050    78.186584   -937.45108    60328.481   -13311.594    944.82263   -14256.416    155.81625    244.95241 
   96100    74.746376    -1065.488    60357.413   -13318.032    903.25045   -14221.282     155.3713     234.1745 
   96150    75.542872   -940.01223     60398.26   -13322.372    912.87547   -14235.248    155.03462    236.66986 
   96200     76.87879   -831.08299      60380.6   -13299.328    929.01897   -14228.347    155.46387    240.85519 
   96250    78.027013   -840.12446    60393.086   -13310.571    942.89434   -14253.466     155.3396    244.45248 
   96300    79.070641   -944.86077     60433.25   -13279.255    955.50576   -14234.761    155.81963    247.72209 
   96350    81.431569   -865.04536    60467.291   -13239.495    984.03569   -14223.531    155.80399    255.11869 
   96400    79.846155   -966.27308    60501.997   -13240.883    964.87722    -14205.76    155.74932    250.15171 
   96450    76.587043   -1054.5825    60536.758   -13255.656    925.49345   -14181.149    155.77836    239.94117 
   96500    78.885059   -1087.5115    60566.821   -13237.714    953.26314   -14190.977    155.77444    247.14067 
   96550    77.991653   -1089.0183    60575.422   -13262.865    942.46704   -14205.332    155.36943     244.3417 
   96600     76.85925   -1373.6716    60603.508   -13256.094    928.78285   -14184.877     155.9082    240.79397 
   96650    78.457664    -1122.848     60635.37   -13247.336    948.09841   -14195.435    156.15127    245.80168 
   96700    81.123744   -1212.3083    60630.458   -13234.428    980.31587   -14214.744    155.98085     254.1543 
   96750    75.898017   -1136.6514    60634.591   -13254.605    917.16712   -14171.772    155.82516    237.78251 
   96800    76.592982   -1136.9544    60642.179   -13225.158    925.56521   -14150.723     156.0593    239.95977 
   96850    78.457994   -851.41935    60581.587   -13233.634     948.1024   -14181.737    156.12262    245.80271 
   96900    82.282136   -963.17733    60589.792   -13221.887    994.31411   -14216.201    156.26144    257.78345 
   96950    79.539051   -997.90126    60553.503   -13235.625    961.16612   -14196.791    156.04737    249.18958 
   97000    80.865062   -735.05075    60571.278   -13240.992     977.1899   -14218.182    156.60528    253.34387 
   97050    77.827159   -985.36273    60577.516    -13253.84    940.47926   -14194.319    156.21073    243.82636 
   97100    76.842528   -979.60222    60588.812   -13270.223    928.58078   -14198.804    156.48565    240.74158 
   97150    78.177784   -986.98644    60645.894   -13281.547    944.71629   -14226.264    156.53628    244.92484 
   97200    78.258508   -1202.1409    60679.132   -13316.952    945.69177   -14262.644    156.52456    245.17774 
   97250    76.559067   -1255.9433     60663.02   -13335.804    925.15538   -14260.959    156.48603    239.85352 
   97300    77.462643   -1044.0762    60651.611   -13333.331    936.07438   -14269.405    156.81268    242.68436 
   97350    75.692724   -1085.3637    60611.563   -13332.662    914.68631   -14247.349    156.66019    237.13934 
   97400    73.423439   -1141.5598    60569.728   -13329.084    887.26381   -14216.348    156.38295    230.02985 
   97450    76.874289   -1012.6615    60534.646   -13297.295    928.96459    -14226.26    156.53118    240.84109 
   97500     79.28724    -891.2098    60501.266    -13256.94    958.12318   -14215.063    156.40649    248.40067 
   97550    78.423566   -935.12417    60550.158   -13275.844    947.68637    -14223.53    156.29448    245.69485 
   97600    80.755828   -1035.5356    60591.301   -13290.947     975.8699   -14266.817    156.74454    253.00164 
   97650    78.088192   -1298.6495    60602.973    -13310.02    943.63364   -14253.653    156.95317    244.64415 
   97700     75.13566   -1097.0296    60532.048     -13343.3    907.95464   -14251.255    156.82108     235.3941 
   97750     73.44565   -1161.6143    60519.731   -13361.149    887.53221   -14248.681    156.98131    230.09943 
   97800    75.039389   -1195.7607    60464.326   -13363.606    906.79128   -14270.398    156.75481    235.09249 
   97850    74.898257   -916.42482    60474.275   -13363.941    905.08581   -14269.027    156.45522    234.65034 
   97900     74.70555   -1094.9549    60505.743   -13357.278    902.75711   -14260.035    156.21221     234.0466 
   97950    74.662129   -1004.3733    60490.385   -13334.385    902.23239   -14236.617     156.4735    233.91056 
   98000    77.943355   -1093.3278    60523.559   -13315.744     941.8834   -14257.628     156.4625    244.19039 
   98050    76.924009   -1226.1429    60495.414   -13319.202    929.56541   -14248.768    156.27464    240.99686 
   98100    78.247747    -1033.014    60522.157    -13294.11    945.56173   -14239.672    156.20779    245.14402 
   98150    78.575083   -885.16101    60536.523   -13288.848    949.51732   -14238.365    156.25676    246.16954 
   98200    77.667736   -996.96836    60551.419   -13292.447    938.55277   -14230.999    156.34067     243.3269 
   98250    76.544978    -1013.743     60530.29   -13323.915    924.98512     -14248.9    156.67577    239.80938 
   98300    75.031695   -1000.9415    60593.776   -13310.892    906.69831    -14217.59    156.76721    235.06839 
   98350    77.028191   -1162.5441    60644.504   -13296.341    930.82437   -14227.166    156.62311    241.32325 
   98400    77.286693    -1153.011    60670.788   -13295.034    933.94816   -14228.982    156.42787    242.13312 
   98450    76.583245   -1210.9229    60611.443   -13311.459    925.44755   -14236.906    156.75081    239.92927 
   98500    77.822238   -1236.1105    60627.833   -13320.267     940.4198   -14260.686    157.05112    243.81094 
   98550    74.453021   -1133.0364    60632.357   -13332.567    899.70549   -14232.273    156.73076    233.25545 
   98600     75.57218   -1173.3204    60627.453   -13353.197    913.22964   -14266.427     156.7744    236.76168 
   98650    75.628847   -1201.3669    60616.971   -13373.523    913.91441   -14287.437    156.39268    236.93922 
   98700    73.079546   -1248.6522    60553.347   -13379.687    883.10813   -14262.795    156.44183    228.95246 
   98750    74.501347   -1303.8371    60525.538   -13384.144    900.28947   -14284.433    156.47389    233.40685 
   98800    74.294901   -1454.8719    60444.497   -13387.282    897.79474   -14285.076    156.76575    232.76007 
   98850    75.735133   -1091.0327    60422.971   -13357.313    915.19879   -14272.512    156.40112     237.2722 
   98900    76.701431   -1225.6847    60376.326   -13364.625    926.87574   -14291.501     156.2797    240.29954 
   98950    75.338183   -969.65292    60367.205   -13363.714    910.40197   -14274.116    156.07231    236.02859 
   99000    76.017546   -963.66175    60370.296   -13349.814    918.61153   -14268.426    156.38778    238.15698 
   99050    75.632382   -923.49393    60428.744   -13369.624    913.95713   -14283.581    156.41133    236.95029 
   99100    76.511698   -1510.4423    60468.542   -13384.737    924.58296    -14309.32    156.32942    239.70512 
   99150    73.691179   -1112.4591    60446.734   -13356.159    890.49923   -14246.658    156.57477    230.86865 
   99200    77.781808   -1346.1108    60426.642   -13368.787    939.93123   -14308.718    156.73248    243.68427 
   99250    76.571979   -971.86213    60409.337   -13365.757    925.31141   -14291.068    156.55095    239.89397 
   99300    76.063126   -1133.8524    60438.832   -13363.377    919.16232    -14282.54    156.40907    238.29978 
   99350    76.973663   -1204.3096    60462.468   -13360.294    930.16544   -14290.459    156.42207    241.15242 
   99400    74.493325   -1050.5505    60445.663   -13364.521    900.19253   -14264.714    156.64378    233.38171 
   99450    75.968358   -1079.4439    60411.424   -13371.466    918.01713   -14289.483    156.63726    238.00288 
   99500    73.038349   -883.53717    60461.861   -13386.417    882.61031   -14269.028    156.11527    228.82339 
   99550    72.026053   -1274.5414    60519.521   -13397.238    870.37752   -14267.616     156.4595    225.65195 
   99600    74.855988    -1176.076    60549.288   -13375.122    904.57503   -14279.697    156.48399    234.51791 
   99650    74.778842   -1271.6467    60555.413   -13376.014    903.64277   -14279.657    156.74922    234.27622 
   99700    76.641036   -1422.1944     60578.63   -13348.286     926.1459   -14274.432    156.63538    240.11032 
   99750     77.05314    -1312.018    60525.966   -13327.308    931.12585   -14258.434     156.6018    241.40141 
   99800    74.842755    -1231.008    60560.907   -13301.201    904.41511   -14205.616    156.25714    234.47645 
   99850    77.957028   -1303.7031     60567.34   -13285.701    942.04862   -14227.749     156.1838    244.23322 
   99900    76.696457   -1022.4706    60594.995   -13320.619    926.81563   -14247.435    156.19665    240.28396 
   99950     78.13422   -1118.5146     60586.65   -13311.947    944.18985   -14256.137    156.28125    244.78835 
  100000    79.823493   -1108.2962    60557.291   -13331.604    964.60337   -14296.207    156.57423    250.08071 
Loop time of 78.9862 on 80 procs for 100000 steps with 4055 atoms

Performance: 546.931 ns/day, 0.044 hours/ns, 1266.043 timesteps/s
99.5% CPU use with 80 MPI tasks x no OpenMP threads

MPI task timing breakdown:
Section |  min time  |  avg time  |  max time  |%varavg| %total
---------------------------------------------------------------
Pair    | 43.49      | 49.103     | 54.892     |  41.6 | 62.17
Neigh   | 0.42489    | 1.0306     | 1.8685     |  58.2 |  1.30
Comm    | 13.839     | 20.428     | 26.461     |  72.3 | 25.86
Output  | 0.1265     | 0.13083    | 0.25903    |   4.0 |  0.17
Modify  | 5.7131     | 7.34       | 8.8362     |  29.1 |  9.29
Other   |            | 0.9536     |            |       |  1.21

Nlocal:    50.6875 ave 87 max 21 min
Histogram: 30 10 0 0 0 0 2 14 17 7
Nghost:    710.788 ave 754 max 665 min
Histogram: 7 10 9 6 6 9 3 14 8 8
Neighs:    0 ave 0 max 0 min
Histogram: 80 0 0 0 0 0 0 0 0 0
FullNghs:  5520.32 ave 11111 max 1061 min
Histogram: 40 0 0 0 0 0 1 7 20 12

Total # of neighbors = 441626
Ave neighs/atom = 108.909
Neighbor list builds = 5391
Dangerous builds = 0

write_data		${DIR}/data.eq-${NAME}-${TEMP}
write_data		run_5/data.eq-${NAME}-${TEMP}
write_data		run_5/data.eq-het_freeze_5-${TEMP}
write_data		run_5/data.eq-het_freeze_5-240
undump          1

reset_timestep  0

unfix           2
unfix           3
unfix           4


################################################
#######         Run Simulation         #########
################################################

log				${DIR}/log.run_${NAME}
log				run_5/log.run_${NAME}
log				run_5/log.run_het_freeze_5
