LAMMPS data file via write_data, version 16 Mar 2018, timestep = 6000000

6768 atoms
2 atom types

0.0000000000000000e+00 4.9219999999999999e+01 xlo xhi
0.0000000000000000e+00 4.9019635930410494e+01 ylo yhi
2.1106261418863070e-01 5.9850937385823300e+01 zlo zhi

Masses

1 18.015
2 12.01

Atoms # atomic

5705 1 1.7515483589972349e+00 2.9894682015482350e+00 1.5423037863901972e+00 0 1 0
2048 1 4.5259911417817920e+00 3.0860348143091576e+00 2.1591817761961121e+00 1 1 0
3742 1 1.0506942056231949e+01 2.3470797796822147e+01 8.9645939044702239e+00 2 -1 0
5394 1 5.4289602999372875e+00 5.7419956161044761e-01 1.7250017550031769e+00 1 1 0
3684 1 7.8594794217263839e+00 1.0848729507099764e+00 2.5898868450734303e+00 1 -1 0
2042 1 8.8214377303251563e+00 3.2914963702761999e+00 1.4406712859848394e+00 -1 3 0
3567 1 1.1285122152106338e+01 3.6543492274052705e+00 2.6380137233657672e+00 0 1 0
1340 1 1.6313222967876282e+00 7.2186278542974840e+00 1.1932695730488598e+00 -1 0 1
3272 1 3.5181083577429645e-01 1.4018296741194995e+01 2.4457309462273669e+00 1 -2 1
3898 1 4.2795102839426518e+00 7.7215830398246332e+00 2.3162099994379175e+00 -1 2 1
3716 1 5.5650310567340480e+00 5.6617515308601662e+00 1.5403515416574993e+00 -1 -1 1
5219 1 8.1882064393553797e+00 5.7603100955860347e+00 2.5551106122214815e+00 0 1 0
1525 1 9.4060709525094399e+00 7.9262505126651135e+00 1.8705757558617049e+00 -1 1 1
3242 1 4.2434337721157994e-01 7.0213665346189857e-01 2.7328649090598374e+00 -1 2 1
5267 1 1.5356252389308580e+00 1.1680578777916578e+01 1.7327137928933127e+00 0 1 0
50 1 4.0594521027762204e-01 4.9732426657726387e+00 5.2413298787311655e+00 2 -1 0
5529 1 3.9684304569693145e+00 1.1999203462937345e+01 2.4875685921502915e+00 2 0 1
5527 1 5.5348762210214115e+00 1.0083010414913240e+01 1.5037194891798997e+00 2 0 0
3106 1 8.0308213285535892e+00 9.9683491088174119e+00 2.6867240168608295e+00 -1 1 1
3923 1 1.3601636023630315e-01 1.4160843742947476e+01 9.3243622723615260e+00 0 0 1
1562 1 5.3123350497879178e+00 1.4413189037557737e+01 1.4727379028419258e+00 0 1 1
3437 1 7.8601035776452672e+00 1.4298876439591391e+01 2.4373026135929448e+00 -1 -2 0
160 1 9.2927033719244410e+00 1.2282859696572960e+01 1.9615742228860047e+00 1 0 0
3876 1 1.1864717802703318e+01 1.2550090616137883e+01 2.4099445067121108e+00 1 -1 0
3283 1 1.5323542528573484e+00 1.6399711569789684e+01 1.4887927456128036e+00 0 0 1
5119 1 4.0233207556843817e+00 1.6598671136251248e+01 2.3953145829147586e+00 0 -2 0
4881 1 1.1845496166590838e+01 8.0856000229351146e+00 2.9468446092065883e+00 0 0 1
1882 1 5.4433155611879798e+00 1.8694871470230733e+01 1.7464371702045669e+00 0 1 0
1391 1 7.8349792218358125e+00 1.8651712239884386e+01 2.7876168620273440e+00 0 1 1
2310 1 9.1308633640537273e+00 1.6636556983367559e+01 1.8184908040182828e+00 -1 -2 1
1832 1 1.1439621983117513e+01 1.6875818403670245e+01 2.9527944988844141e+00 -1 3 0
408 1 1.8011502748867316e+00 2.0706878006847091e+01 1.5246313624757799e+00 -2 0 1
3833 1 1.1681802682137524e+01 2.1264860930598811e+01 1.0158773306095298e+01 2 -2 1
5496 1 4.2683950972682982e+00 2.0850320690644800e+01 2.7205902420927490e+00 -1 -2 0
5557 1 5.5985027461744910e+00 2.3017535571314848e+01 1.8180665049156071e+00 0 -1 0
1683 1 8.0525124136948136e+00 2.3335584295362370e+01 2.6981029644405217e+00 -1 -1 1
3454 1 1.1944867105047434e+01 2.1210322368112543e+01 2.6036860866321740e+00 1 0 1
1393 1 9.2293394725608504e+00 2.1138332224220001e+01 1.9587298852390413e+00 1 2 1
264 1 3.0397995099259183e+00 1.1964596293481582e+00 6.2419157185423657e+00 0 1 0
6673 1 7.9128981693629674e+00 2.3269048006997156e+01 1.0202835742167329e+01 -1 -1 1
1770 1 4.3417256225033496e+00 3.2297230964067247e+00 5.1754658320290856e+00 0 0 1
494 1 6.9921185591223907e+00 3.0306295257683140e+00 6.1641401750356355e+00 0 -3 0
6653 1 8.2146834882331561e+00 8.6687991351286120e-01 5.3124572846067695e+00 1 0 0
3740 1 1.0524563480763504e+01 1.3387289759076384e+00 6.3699469510849749e+00 1 2 0
6442 1 1.1587787629891160e+01 3.4139602452516478e+00 5.4690603407824296e+00 0 0 1
353 1 3.7497892298548458e-01 1.3749573633023960e+01 5.2182223589386636e+00 0 1 0
3664 1 3.0279648071756213e+00 5.5168875734245555e+00 6.0909937006022359e+00 0 1 0
5124 1 4.3630892817526679e+00 7.8473916101367482e+00 5.3045568507384537e+00 3 0 1
3645 1 6.6083498748196154e+00 7.7561953596426605e+00 6.2238413424517400e+00 1 1 0
3788 1 7.9893251121964992e+00 5.5376766604509973e+00 5.3726639123926754e+00 -2 -1 0
3547 1 1.0398431060208669e+01 5.6782262685123799e+00 6.4065577692571889e+00 0 0 0
3038 1 1.1723220625679781e+01 7.9017898002574629e+00 5.6523093139399050e+00 -1 1 1
3959 1 2.7526946462705451e+00 9.9266298334562713e+00 5.8352881979512246e+00 -1 -1 1
541 1 1.6305457513272009e-01 9.2464530687912649e+00 5.1527522573132876e+00 0 0 1
3757 1 4.1574853949441435e+00 1.2185653166971910e+01 5.1639987944632253e+00 1 0 0
2252 1 7.8794658872204977e+00 1.0377241352854568e+01 5.3512334520651299e+00 0 3 1
5341 1 1.0182951782171685e+01 9.9974985749923899e+00 6.4337928264139661e+00 1 0 0
5268 1 3.1314694211303284e+00 1.4443921057203154e+01 6.1449100864313442e+00 1 1 0
1736 1 2.9960626664717582e-01 2.3431233586604211e+01 1.0133719313513925e+01 -2 0 0
5174 1 6.4724570078592825e+00 1.2402280569988660e+01 6.3010573864520802e+00 1 1 1
2257 1 8.0981302059482960e+00 1.4571524912237946e+01 5.3543953302614282e+00 1 0 0
5396 1 1.1678257739578170e+01 1.2164500100014807e+01 5.4951583500556547e+00 -2 0 0
5063 1 1.0400194144358217e+01 1.4631064474563757e+01 6.3243521128613729e+00 1 0 0
5338 1 2.7036655966331344e+00 1.8802562622997151e+01 6.2049987253343835e+00 1 2 0
385 1 4.3069203201131199e+00 1.6583775648290903e+01 5.1883882512402550e+00 0 -1 0
5623 1 6.3919735896059482e+00 2.0793952881186062e+01 9.2188577127580054e+00 0 2 1
6754 1 6.6908529902733820e+00 1.6430112224914556e+01 6.6035909283715357e+00 3 0 1
3605 1 7.8347277428493225e+00 1.8562015535588667e+01 5.5711824036671453e+00 1 0 0
4721 1 1.0137719566676246e+01 1.9240908336375181e+01 6.3887092179830303e+00 1 -1 1
5671 1 1.1612550262691393e+01 1.6985344319338783e+01 5.6957304326307305e+00 -1 1 1
522 1 4.2984134180981332e-01 8.1446606670749544e-01 5.2617482427406541e+00 0 0 0
1670 1 2.8059225061020312e+00 2.3115021879413458e+01 6.6493618841585338e+00 2 0 0
6523 1 4.1136653204228617e+00 2.1064914555752505e+01 5.6379673899058202e+00 1 -1 1
131 1 6.8330385026288010e+00 2.0827356285552224e+01 6.4836885131851671e+00 -1 -1 1
1463 1 7.5962156867881063e+00 2.3126895988875305e+01 5.2355887623529336e+00 1 2 1
457 1 1.0204366061338533e+01 2.3455563996727200e+01 6.3049054536031992e+00 0 -1 0
6524 1 1.1436838564594467e+01 2.1047671762069811e+01 5.1934096558116689e+00 0 0 1
6394 1 3.1434317494016124e+00 9.2038434865770302e-01 9.0312293729459086e+00 0 -1 0
3763 1 3.9811605373207826e+00 3.3008490924225558e+00 9.8433546215634902e+00 2 0 0
3942 1 2.5192390359220124e-01 9.5426667548788675e+00 2.4049515820476626e+00 3 2 0
6504 1 6.5309657018681975e+00 3.2511614032568512e+00 8.7912067320625216e+00 0 0 1
6603 1 7.3298488084644031e+00 1.1351087200674483e+00 9.9799293040087509e+00 0 -1 1
578 1 1.1741604448794998e+01 3.4746499561329038e+00 9.7820301732942454e+00 0 0 1
3410 1 1.0013530187315405e+01 1.2399000528823547e+00 9.0858466504936235e+00 0 1 0
2315 1 2.6620445367345900e+00 5.3934834393272251e+00 8.8254248540995430e+00 1 1 1
3435 1 3.8525003421613557e+00 7.6022438017952148e+00 9.8444255732241750e+00 -1 -2 0
3313 1 2.6137386345254515e-01 2.2761223903911258e+01 2.4686814122634289e+00 1 -1 1
418 1 6.4373071545174447e+00 7.5466105821624359e+00 8.9000373943537916e+00 -2 1 0
5096 1 7.9354970855390983e+00 5.6391376171531151e+00 9.8786015959353168e+00 1 0 0
3797 1 1.0425632102044249e+01 5.6275193181037579e+00 8.9715359236775534e+00 0 0 0
6630 1 1.1509966285203893e+01 7.8314906347320976e+00 1.0075714231330652e+01 1 0 1
1782 1 5.3853635347407480e-01 1.1401188010970940e+00 9.7877319876717461e+00 0 2 1
3448 1 2.9580506154017030e+00 9.7943851698538964e+00 8.5766741237782984e+00 0 0 0
5659 1 7.7692310946056748e+00 9.8787748514125404e+00 9.7365762918923657e+00 1 -1 0
4747 1 6.4216326726664210e+00 1.2152074947942934e+01 8.9617675299487356e+00 1 2 1
3694 1 3.6709707574502186e+00 1.1934225560596241e+01 9.8565144511162455e+00 2 0 0
3760 1 1.0337406011933371e+01 1.0153914327610343e+01 9.0636780067731468e+00 -2 1 0
5647 1 1.1576761779901428e+01 1.2340952547825601e+01 1.0110780061874561e+01 2 -2 1
2296 1 2.6216703610318866e+00 1.4186132082083335e+01 8.5865683591826603e+00 -1 1 1
5391 1 3.9108642859114413e+00 2.0971643796603026e+01 1.0224418692031810e+01 2 0 0
1317 1 7.7975328003634914e+00 1.4382359003869455e+01 9.8294719197949671e+00 -1 0 1
5362 1 1.0222615051153635e+01 1.4312294401871702e+01 9.1414713775016612e+00 -1 1 0
5673 1 2.6659740045269729e+00 2.3269354588036279e+01 9.4519526059855803e+00 0 1 1
5296 1 3.5213103868142976e+00 1.6366218106889960e+01 1.0020916812735736e+01 1 1 0
554 1 2.4167777086025262e+00 1.8590207348737788e+01 9.1106828673733879e+00 1 -1 1
4846 1 6.4282344696671556e+00 1.6499561269606865e+01 9.5515486452125273e+00 0 0 1
3937 1 7.7188274313953462e+00 1.8916129265719196e+01 1.0144762729444736e+01 0 1 1
5146 1 1.0504526063788589e+01 1.9272340621366396e+01 9.2342712120814525e+00 2 1 1
10 1 1.1726807160287988e+01 1.6677849027492240e+01 9.6036830291692858e+00 0 -1 1
5371 1 3.2744408025802918e-01 4.9205943025732326e+00 2.5568598348072280e+00 1 1 0
6595 1 1.0161474807554870e-01 1.8496245526629618e+01 5.2680698876730121e+00 0 0 1
101 1 3.2155981549748208e-01 1.8662339538493544e+01 2.5395722798214333e+00 1 0 0
3494 1 4.1917541538530406e-01 2.3035822130881094e+01 5.2592585794024176e+00 1 0 0
3755 1 4.3300664089072410e-01 9.6882137961072470e+00 9.6633411365863928e+00 0 0 0
1709 1 4.0909866715187793e-01 1.3804829679635938e+01 1.1985966308189512e+01 3 0 1
53 1 1.3398739342147752e+00 3.0008048040770667e+00 1.3575168701555347e+01 1 0 0
142 1 5.2662523842954811e-01 8.2946357745166932e-01 1.7000888345118302e+01 0 -1 0
5017 1 5.2394384708349637e+00 1.1490374339973308e+00 1.3362020000849611e+01 1 3 1
3137 1 3.8234121918439854e+00 3.1899793492142403e+00 1.2528653007296144e+01 4 1 1
1677 1 6.7845992082670534e+00 1.5509836125695399e+01 2.3494935300626704e+01 -2 0 0
1482 1 9.0784149489484935e+00 3.5991647985785238e+00 1.3165241564486999e+01 0 0 1
1727 1 1.9101024430366725e-01 9.4536339060674077e+00 1.2303560795866488e+01 0 2 0
4728 1 1.4353875871616970e+00 7.6338518746603565e+00 1.3475699642584239e+01 -2 0 1
3188 1 1.1030416975019634e+01 2.2660993897195052e+01 2.3933259510033292e+01 2 2 1
3101 1 1.8848455800363262e+00 7.1348658013432624e+00 1.6352788489861243e+01 0 0 1
3446 1 2.4902869499785593e-01 1.3883583876590915e+01 1.9670359743129314e+01 -2 0 0
1529 1 5.4360553450190681e+00 5.4135886584367077e+00 1.3713450663560465e+01 0 0 1
3335 1 7.8354599832214591e+00 5.6310682057985098e+00 1.2696540103095639e+01 3 0 1
2154 1 9.1169683417380352e+00 8.0318709068601617e+00 1.3610701366297151e+01 2 2 0
2307 1 1.1597235924049455e+01 7.7311997627702187e+00 1.2692649814811293e+01 2 -2 1
3321 1 1.5176540471347750e+00 1.1521609740900786e+01 1.2890576110660149e+01 2 0 1
3595 1 9.5682222072019041e+00 2.0482773873684373e+01 2.3877395110447498e+01 0 -4 0
1368 1 5.5237650397690752e+00 9.9245310793404649e+00 1.3590191588315761e+01 -4 0 1
1765 1 7.8939690705147614e+00 9.9056942271139157e+00 1.2464923593392959e+01 -1 2 1
1565 1 8.9534761594265415e+00 1.2067521468363113e+01 1.3687494420526054e+01 0 1 1
1706 1 4.2155244758355526e+00 1.6570062550058832e+01 1.2737550216827286e+01 0 1 1
5230 1 6.6907786153334623e+00 2.0479738297283856e+01 2.3932354111371403e+01 1 -1 0
3477 1 5.4651402999836503e+00 1.4369267527052161e+01 1.3812194592167000e+01 0 1 0
6522 1 4.0888524954755843e+00 7.7295241335802434e+00 1.2487066117340698e+01 0 0 1
6700 1 4.0470780065517689e+00 2.0701913074531415e+01 1.2873045776552848e+01 1 0 0
3835 1 1.5804133378977794e+00 1.6044325724486555e+01 1.3412282484861123e+01 0 -1 1
1449 1 1.1845982950967511e-01 8.5453712872086662e-01 1.2604807093975197e+01 2 -1 1
2215 1 7.8861221217804438e+00 1.8842486495415006e+01 1.2997526968596683e+01 -1 -1 1
3991 1 5.4431054747361634e+00 1.8735684639428687e+01 1.3798098742540011e+01 0 0 1
3216 1 9.1341091943601835e+00 1.6503966374193784e+01 1.3662738771619573e+01 1 -1 1
3048 1 1.1490295210378004e+01 1.6599598965611197e+01 1.2365174215722922e+01 0 0 1
3173 1 1.6847038043343882e-01 6.9869085671610920e-01 1.9514710709845531e+01 -2 2 1
4808 1 1.3990267224420831e+00 2.0446909910502718e+01 1.3489482418340918e+01 0 1 1
5484 1 7.2160909332177936e-01 9.2840525877103666e+00 1.7150896354689603e+01 0 0 0
4951 1 5.4024276180946691e+00 2.3132803085959154e+01 1.3744957983347717e+01 3 -1 1
3329 1 7.8607251619463598e+00 2.3356419152217928e+01 1.2911497487953518e+01 0 -1 0
5408 1 9.0269584028653931e+00 2.1150333888980899e+01 1.3591336239065502e+01 2 1 0
6440 1 8.9415690623983437e+00 2.0943926999018409e+01 1.6652485842713826e+01 1 -1 1
5330 1 1.1531141388321437e+01 2.1206770947543731e+01 1.2730807332527887e+01 1 0 0
1919 1 9.8330938614672654e+00 1.0406116853224580e+01 2.3281039297576900e+01 1 -2 0
3919 1 1.9445008194823863e+00 2.8933375609336176e+00 1.6171765916397760e+01 1 1 0
1509 1 4.2306893517723214e+00 3.1635560363367641e+00 1.7330220472570403e+01 2 -1 1
5697 1 2.3370662031558478e-01 1.8067971540415606e+01 1.7224375972548071e+01 -1 0 1
451 1 4.0717857520588003e+00 3.1902232431868303e+00 1.9924707526700754e+01 1 -1 0
2199 1 5.2372760427477854e+00 1.0025437248321143e+00 1.6162029164657923e+01 1 0 0
3905 1 7.9339503663869566e+00 1.1541995889461742e+00 1.6998524441677294e+01 0 0 0
5662 1 7.8370303469546236e+00 1.1213263327648162e+00 1.9422709952420156e+01 2 0 1
5051 1 9.3336745305770847e+00 3.5642370811527924e+00 1.5929612409485058e+01 0 0 0
189 1 1.1994677660662951e+01 3.7556104414278577e+00 1.6918231785131063e+01 1 -2 0
270 1 1.1889383052529920e+01 3.6767208729534682e+00 1.9692380028407570e+01 2 -1 0
3981 1 5.2889292133763544e-01 5.0787846181601575e+00 1.9794579951410530e+01 0 0 1
1406 1 4.4513208322688822e+00 7.4804077672358771e+00 1.6926487416801304e+01 1 -1 1
6446 1 3.9786083156496082e+00 4.0184262105845336e+00 2.3888935527264866e+01 2 -1 1
6479 1 4.3595254021693908e+00 7.2891764345134380e+00 1.9646428275277273e+01 1 1 1
6508 1 5.8326149118831427e+00 5.2153492546871583e+00 1.6333738925057741e+01 1 0 0
3192 1 8.2877205476276945e+00 5.7689658028584194e+00 1.6988390739213870e+01 -2 1 1
3145 1 9.0589386467747310e+00 8.2900542636650432e+00 1.6511309965659436e+01 0 1 0
1669 1 1.1635889391821177e+01 8.0576258351711818e+00 1.7579026965277244e+01 -2 -1 1
1532 1 1.1891537821806384e+01 7.6522168083483333e+00 2.0265698836570515e+01 0 -3 1
3290 1 1.7176132772514072e+00 1.1616141212810904e+01 1.5752954961916231e+01 0 1 0
5162 1 4.1404868997237188e+00 1.1992308817733171e+01 1.7212221299835115e+01 0 1 0
1424 1 1.0467114949692839e+01 2.3825416274071817e+01 2.0980209815777421e+01 -3 0 1
3541 1 5.4355402631603145e+00 9.7194091073212334e+00 1.6315841875451667e+01 3 -1 0
4723 1 7.5877763329999963e+00 9.9466277914846088e+00 1.7434127135309808e+01 0 0 1
3249 1 7.8219507724993464e+00 1.0078419987000300e+01 2.0308525670450329e+01 2 2 0
1722 1 1.1464860256351614e+01 1.2766011037608028e+01 1.7198520679855314e+01 -1 0 1
3881 1 1.4793587891794622e+00 1.5910671958563443e+01 1.6306798968251975e+01 0 1 1
3936 1 7.9341353128827672e+00 1.4286357793911828e+01 1.2403332597490566e+01 2 -1 1
3086 1 5.2885606363542728e+00 1.4150170258553080e+01 1.6520036345236221e+01 -1 0 1
3570 1 7.7870073369691397e+00 1.4181471078721325e+01 1.7089771233356959e+01 -1 0 0
5003 1 8.9835990175259326e+00 1.2023391668469451e+01 1.6616361932562377e+01 0 -1 1
5505 1 1.1700743114230768e+01 1.2427426954368013e+01 2.0052638154271101e+01 0 0 0
6426 1 3.9839458920029309e+00 1.6237977301230412e+01 1.7023461550890815e+01 -1 1 1
5315 1 2.2301376328854134e+00 6.3031112684610680e+00 2.3506283185006243e+01 1 0 0
1352 1 2.5094427467123798e-01 1.8226461928766962e+01 1.9938367758701432e+01 0 -1 1
73 1 5.2139020674836392e+00 1.8520103051086082e+01 1.6212553059149361e+01 -2 -1 0
1868 1 7.6642918633240971e+00 1.8698923440158232e+01 1.7158631897141046e+01 -1 -1 0
5218 1 7.5968446010749471e+00 1.8844203651075905e+01 2.0002306807659696e+01 1 0 0
190 1 8.8130007707218212e+00 1.6424435583235159e+01 1.6131907563053709e+01 -1 -1 0
3 1 1.1675584429140393e+01 1.6555670942191377e+01 1.7300821034329388e+01 0 -1 0
245 1 1.1640626139244583e+01 1.6878315641784948e+01 2.0206274456521765e+01 1 0 0
5530 1 1.3996165271363652e+00 2.0272661285524613e+01 1.6583088398113947e+01 1 -1 0
5438 1 3.8596116748679199e+00 2.0645625519977873e+01 1.9904922461371342e+01 2 -2 0
3948 1 4.0448709079049339e+00 2.0793722623239734e+01 1.7139299453799904e+01 1 -2 1
5178 1 5.5435861089241838e+00 2.2905826517741868e+01 1.6310052388312286e+01 -2 0 0
5560 1 7.7908213328200278e+00 2.3274327468370064e+01 1.7811512514430511e+01 0 0 0
1561 1 7.6438882582765677e+00 1.2832360183767437e+00 1.2725281675079115e+01 0 0 1
1430 1 1.1375932922618059e+01 2.1224980792324345e+01 1.7612361355793070e+01 1 0 1
2200 1 6.6982997587462219e+00 3.5217609193118502e+00 2.3639980010706953e+01 0 0 0
3850 1 2.7793294852031982e+00 1.1493506302913341e+00 2.0557634530359191e+01 0 1 0
5645 1 5.1773661912640874e+00 1.3315505882068024e+01 2.3645559435021394e+01 2 0 1
3661 1 6.6109514798151894e+00 3.2823200436623448e+00 2.0856813884859360e+01 -1 0 0
1864 1 1.0625453178014407e+01 1.5219954843944112e+00 2.2981066019190823e+01 2 1 0
1777 1 1.0384737105349016e+01 1.4687568809412175e+00 2.0359099018641970e+01 -1 0 0
3126 1 3.0300440525849295e+00 8.9256024464097017e+00 2.3474798647072003e+01 2 0 1
103 1 3.0472800124724735e+00 5.4467351093938650e+00 2.1061212336478238e+01 3 -1 0
2172 1 2.9039628914149054e+00 1.6858258974597340e+00 2.3264645004688678e+01 1 1 0
1844 1 7.7849081748857696e+00 5.2430079077034319e+00 1.9861717046833412e+01 0 1 0
3043 1 6.7768579198603955e+00 7.6149672367142793e+00 2.0636173387445240e+01 0 1 1
5166 1 2.5571309809302054e+00 1.3950525829226850e+01 2.3447809136761130e+01 3 1 0
5381 1 1.0085078578975367e+01 6.0576648972040994e+00 2.3518316953840856e+01 -1 1 0
3169 1 1.0319717101552877e+01 5.6929120233045660e+00 2.0762146097285711e+01 2 0 1
1604 1 2.5591826375557911e+00 2.2891022045937884e+01 2.3803029551274729e+01 0 -1 0
1403 1 7.8015864034724292e+00 2.3327758265556557e+01 2.0305068585354380e+01 1 0 1
39 1 4.1180754395266508e+00 1.1679506328476931e+01 1.9983036690082557e+01 0 1 1
4900 1 3.2581161035151052e+00 9.4073559337843857e+00 2.0890832821019227e+01 0 0 0
4785 1 1.2157816568554454e-01 2.2561558038713994e+01 1.9924567012936929e+01 0 -1 1
1805 1 6.4528004284854812e-01 4.8216620949727442e+00 1.7356445919958436e+01 2 0 0
3245 1 4.7259096875464990e-01 2.3097687127196235e+01 1.2913479887376370e+01 0 1 1
5173 1 1.0533082352537859e+01 1.0009324487352467e+01 2.0703600560636346e+01 -1 0 0
3033 1 2.7482110414488079e+00 2.2863036349050688e+01 2.1076997735040049e+01 1 2 1
4764 1 4.2834554286608295e+00 1.2198560940213428e+01 1.2767569899131892e+01 0 -2 1
5567 1 2.9108563486513774e+00 1.4017163640503869e+01 2.0677826453389894e+01 1 1 0
1862 1 1.1643243096580612e+01 3.5364246745134915e+00 1.2379732134373919e+01 1 -2 0
4919 1 1.1517472916561490e+01 1.2333350376607108e+01 1.2881720772498259e+01 1 -1 0
5010 1 6.2934414304808106e+00 1.2215948687476970e+01 2.1173174272540560e+01 1 0 1
4809 1 7.5877375463617147e+00 1.4521915628232465e+01 1.9888615581330608e+01 -1 -1 1
597 1 1.0298664066623408e+01 1.4588699372178503e+01 2.1002435925191364e+01 0 -1 1
1356 1 7.1749967766897722e+00 1.0900528971073376e+01 2.3834319744108964e+01 -1 0 1
1629 1 2.7478479412640411e+00 1.8344758075181520e+01 2.0975486892210164e+01 0 -2 1
1330 1 3.7782379002456183e+00 1.6188659343843931e+01 1.9735553273060241e+01 0 1 1
3122 1 6.2135274797764870e+00 1.6692483365667254e+01 2.1002974532852999e+01 3 -1 1
3414 1 6.3068660605972715e+00 2.1072223584901618e+01 2.1146620245280733e+01 1 1 0
5101 1 1.0122935641014470e+01 1.9050232073328210e+01 2.1221161230930932e+01 2 -1 1
1893 1 1.6405692055692234e-01 2.2653118623745513e+01 1.7150378807891066e+01 1 0 0
4774 1 2.4641851921788258e+00 1.8271594992190415e+01 2.3702849192545337e+01 0 -2 1
6496 1 1.1744830063036519e+01 2.1468252990040678e+01 2.0309671594059594e+01 0 -1 1
5287 1 4.4590861832005957e-01 9.2249304296588228e+00 1.9940154020784512e+01 -1 1 0
5183 1 2.6510616394696762e-01 1.3755992323924355e+01 1.6798808532870613e+01 0 1 0
128 1 5.9842407717668298e+00 8.1694637448770422e+00 2.3362789135625544e+01 0 2 0
6364 1 1.1027893372567005e+01 1.3032692318934027e+01 2.3537503805731752e+01 -2 0 1
3545 1 1.0895273848427729e+01 1.7849619597912515e+01 2.4057302982774413e+01 1 2 1
3811 1 8.0025726609527492e-01 2.0646029311623082e+01 2.3788715527551688e+01 0 0 0
3600 1 1.4269348389581009e+00 1.1352863083933686e+01 2.3910216847068607e+01 1 1 1
459 1 9.4717647685285336e+00 1.5300024853341927e+01 2.3661630982927633e+01 -1 1 0
5000 1 5.3986288946875494e-01 5.4163749054440968e+00 1.2505037779506647e+01 2 1 1
5032 1 6.0759023675146295e-02 1.8243388977964688e+01 1.2572585968404645e+01 0 0 1
1841 1 5.3080180648751654e+00 1.8125608871027122e+01 2.4055117478355498e+01 0 0 0
623 2 0.0000000000000000e+00 2.8417180249513345e+00 2.6845386830331240e+01 0 0 0
625 2 0.0000000000000000e+00 0.0000000000000000e+00 2.6845386830331240e+01 0 0 0
627 2 1.2305000000000001e+00 7.1042950623783474e-01 2.6845386830331240e+01 0 0 0
634 2 1.2305000000000001e+00 2.1312885187134998e+00 2.6845386830331240e+01 0 0 0
636 2 2.4610000000000003e+00 2.8417180249513345e+00 2.6845386830331240e+01 0 0 0
638 2 2.4610000000000003e+00 0.0000000000000000e+00 2.6845386830331240e+01 0 0 0
640 2 3.6915000000000004e+00 7.1042950623783474e-01 2.6845386830331240e+01 0 0 0
655 2 3.6914999999999996e+00 2.1312885187134998e+00 2.6845386830331240e+01 0 0 0
383 1 8.3472954943435909e+00 1.1189400384503545e+00 2.4306353039808798e+01 1 1 0
6421 1 2.7086226439466929e+00 1.8024523738772295e+01 3.5520957872326193e+01 2 1 0
657 2 4.9220000000000006e+00 2.8417180249513332e+00 2.6845386830331240e+01 0 0 0
659 2 4.9220000000000006e+00 0.0000000000000000e+00 2.6845386830331240e+01 0 0 0
661 2 6.1524999999999999e+00 7.1042950623783407e-01 2.6845386830331240e+01 0 0 0
684 2 6.1524999999999999e+00 2.1312885187134989e+00 2.6845386830331240e+01 0 0 0
686 2 7.3829999999999991e+00 2.8417180249513345e+00 2.6845386830331240e+01 0 0 0
688 2 7.3829999999999991e+00 0.0000000000000000e+00 2.6845386830331240e+01 0 0 0
4888 1 6.1101506500243330e+00 2.0424226772366559e+01 3.5778700760724789e+01 0 -1 0
690 2 8.6134999999999984e+00 7.1042950623783407e-01 2.6845386830331240e+01 0 0 0
721 2 8.6134999999999984e+00 2.1312885187135002e+00 2.6845386830331240e+01 0 0 0
723 2 9.8440000000000012e+00 2.8417180249513332e+00 2.6845386830331240e+01 0 0 0
725 2 9.8440000000000012e+00 0.0000000000000000e+00 2.6845386830331240e+01 0 0 0
727 2 1.1074500000000002e+01 7.1042950623783330e-01 2.6845386830331240e+01 0 0 0
766 2 1.1074500000000002e+01 2.1312885187135002e+00 2.6845386830331240e+01 0 0 0
5160 1 1.1319748942772511e+01 3.7254445043458007e+00 2.4256126386827070e+01 0 1 0
628 2 0.0000000000000000e+00 7.1042950623783341e+00 2.6845386830331240e+01 0 0 0
630 2 0.0000000000000000e+00 4.2625770374269996e+00 2.6845386830331240e+01 0 0 0
632 2 1.2305000000000001e+00 4.9730065436648339e+00 2.6845386830331240e+01 0 0 0
647 2 1.2305000000000001e+00 6.3938655561404980e+00 2.6845386830331240e+01 0 0 0
649 2 2.4610000000000003e+00 7.1042950623783341e+00 2.6845386830331240e+01 0 0 0
651 2 2.4610000000000003e+00 4.2625770374269996e+00 2.6845386830331240e+01 0 0 0
653 2 3.6914999999999996e+00 4.9730065436648339e+00 2.6845386830331240e+01 0 0 0
676 2 3.6914999999999996e+00 6.3938655561404980e+00 2.6845386830331240e+01 0 0 0
678 2 4.9220000000000006e+00 7.1042950623783341e+00 2.6845386830331240e+01 0 0 0
680 2 4.9220000000000006e+00 4.2625770374269978e+00 2.6845386830331240e+01 0 0 0
682 2 6.1524999999999999e+00 4.9730065436648339e+00 2.6845386830331240e+01 0 0 0
713 2 6.1524999999999999e+00 6.3938655561404980e+00 2.6845386830331240e+01 0 0 0
715 2 7.3830000000000009e+00 7.1042950623783341e+00 2.6845386830331240e+01 0 0 0
717 2 7.3829999999999991e+00 4.2625770374269996e+00 2.6845386830331240e+01 0 0 0
719 2 8.6135000000000002e+00 4.9730065436648339e+00 2.6845386830331240e+01 0 0 0
758 2 8.6135000000000002e+00 6.3938655561404980e+00 2.6845386830331240e+01 0 0 0
760 2 9.8440000000000012e+00 7.1042950623783341e+00 2.6845386830331240e+01 0 0 0
762 2 9.8440000000000012e+00 4.2625770374270004e+00 2.6845386830331240e+01 0 0 0
764 2 1.1074500000000002e+01 4.9730065436648339e+00 2.6845386830331240e+01 0 0 0
805 2 1.1074500000000002e+01 6.3938655561404980e+00 2.6845386830331240e+01 0 0 0
641 2 0.0000000000000000e+00 1.1366872099805333e+01 2.6845386830331240e+01 0 0 0
643 2 0.0000000000000000e+00 8.5251540748539991e+00 2.6845386830331240e+01 0 0 0
645 2 1.2305000000000001e+00 9.2355835810918343e+00 2.6845386830331240e+01 0 0 0
668 2 1.2305000000000001e+00 1.0656442593567498e+01 2.6845386830331240e+01 0 0 0
670 2 2.4610000000000003e+00 1.1366872099805333e+01 2.6845386830331240e+01 0 0 0
672 2 2.4610000000000003e+00 8.5251540748539991e+00 2.6845386830331240e+01 0 0 0
674 2 3.6915000000000004e+00 9.2355835810918343e+00 2.6845386830331240e+01 0 0 0
705 2 3.6914999999999996e+00 1.0656442593567499e+01 2.6845386830331240e+01 0 0 0
707 2 4.9220000000000006e+00 1.1366872099805333e+01 2.6845386830331240e+01 0 0 0
709 2 4.9220000000000006e+00 8.5251540748539991e+00 2.6845386830331240e+01 0 0 0
711 2 6.1524999999999999e+00 9.2355835810918343e+00 2.6845386830331240e+01 0 0 0
750 2 6.1524999999999999e+00 1.0656442593567499e+01 2.6845386830331240e+01 0 0 0
752 2 7.3829999999999991e+00 1.1366872099805333e+01 2.6845386830331240e+01 0 0 0
754 2 7.3830000000000009e+00 8.5251540748539991e+00 2.6845386830331240e+01 0 0 0
320 1 6.4884395556145389e+00 3.1579951741151642e+00 3.5839145816735964e+01 -2 0 0
756 2 8.6134999999999984e+00 9.2355835810918343e+00 2.6845386830331240e+01 0 0 0
797 2 8.6134999999999984e+00 1.0656442593567498e+01 2.6845386830331240e+01 0 0 0
799 2 9.8440000000000012e+00 1.1366872099805333e+01 2.6845386830331240e+01 0 0 0
801 2 9.8440000000000012e+00 8.5251540748539956e+00 2.6845386830331240e+01 0 0 0
803 2 1.1074500000000002e+01 9.2355835810918343e+00 2.6845386830331240e+01 0 0 0
844 2 1.1074500000000002e+01 1.0656442593567498e+01 2.6845386830331240e+01 0 0 0
846 2 1.2304999999999998e+01 1.1366872099805333e+01 2.6845386830331240e+01 0 0 0
662 2 0.0000000000000000e+00 1.5629449137232333e+01 2.6845386830331240e+01 0 0 0
664 2 0.0000000000000000e+00 1.2787731112280996e+01 2.6845386830331240e+01 0 0 0
666 2 1.2305000000000001e+00 1.3498160618518829e+01 2.6845386830331240e+01 0 0 0
697 2 1.2305000000000001e+00 1.4919019630994494e+01 2.6845386830331240e+01 0 0 0
699 2 2.4610000000000003e+00 1.5629449137232328e+01 2.6845386830331240e+01 0 0 0
701 2 2.4610000000000003e+00 1.2787731112280996e+01 2.6845386830331240e+01 0 0 0
703 2 3.6915000000000004e+00 1.3498160618518829e+01 2.6845386830331240e+01 0 0 0
742 2 3.6915000000000004e+00 1.4919019630994494e+01 2.6845386830331240e+01 0 0 0
1094 2 9.8440000000000012e+00 2.1312885187134999e+01 3.3216613169697894e+01 0 0 0
744 2 4.9220000000000006e+00 1.5629449137232333e+01 2.6845386830331240e+01 0 0 0
746 2 4.9220000000000006e+00 1.2787731112280996e+01 2.6845386830331240e+01 0 0 0
748 2 6.1524999999999990e+00 1.3498160618518829e+01 2.6845386830331240e+01 0 0 0
789 2 6.1524999999999990e+00 1.4919019630994494e+01 2.6845386830331240e+01 0 0 0
791 2 7.3829999999999991e+00 1.5629449137232333e+01 2.6845386830331240e+01 0 0 0
793 2 7.3829999999999991e+00 1.2787731112280996e+01 2.6845386830331240e+01 0 0 0
795 2 8.6135000000000002e+00 1.3498160618518835e+01 2.6845386830331240e+01 0 0 0
836 2 8.6135000000000002e+00 1.4919019630994494e+01 2.6845386830331240e+01 0 0 0
838 2 9.8440000000000012e+00 1.5629449137232328e+01 2.6845386830331240e+01 0 0 0
840 2 9.8440000000000012e+00 1.2787731112280996e+01 2.6845386830331240e+01 0 0 0
842 2 1.1074500000000002e+01 1.3498160618518829e+01 2.6845386830331240e+01 0 0 0
878 2 1.1074500000000002e+01 1.4919019630994494e+01 2.6845386830331240e+01 0 0 0
1078 2 8.6135000000000002e+00 2.2023314693372832e+01 3.3216613169697894e+01 0 0 0
5109 1 6.5606083877532440e-01 1.2221849999931140e+00 2.4543959521332596e+01 2 1 0
691 2 0.0000000000000000e+00 1.9892026174659328e+01 2.6845386830331240e+01 0 0 0
693 2 0.0000000000000000e+00 1.7050308149707998e+01 2.6845386830331240e+01 0 0 0
695 2 1.2305000000000001e+00 1.7760737655945832e+01 2.6845386830331240e+01 0 0 0
734 2 1.2305000000000001e+00 1.9181596668421495e+01 2.6845386830331240e+01 0 0 0
736 2 2.4610000000000003e+00 1.9892026174659328e+01 2.6845386830331240e+01 0 0 0
738 2 2.4610000000000003e+00 1.7050308149707998e+01 2.6845386830331240e+01 0 0 0
740 2 3.6914999999999996e+00 1.7760737655945832e+01 2.6845386830331240e+01 0 0 0
781 2 3.6914999999999996e+00 1.9181596668421495e+01 2.6845386830331240e+01 0 0 0
1093 2 9.8440000000000012e+00 2.4154603212086336e+01 3.3216613169697894e+01 0 0 0
783 2 4.9220000000000006e+00 1.9892026174659328e+01 2.6845386830331240e+01 0 0 0
785 2 4.9220000000000006e+00 1.7050308149707998e+01 2.6845386830331240e+01 0 0 0
787 2 6.1524999999999999e+00 1.7760737655945832e+01 2.6845386830331240e+01 0 0 0
828 2 6.1524999999999999e+00 1.9181596668421495e+01 2.6845386830331240e+01 0 0 0
830 2 7.3829999999999991e+00 1.9892026174659328e+01 2.6845386830331240e+01 0 0 0
832 2 7.3830000000000009e+00 1.7050308149707998e+01 2.6845386830331240e+01 0 0 0
834 2 8.6134999999999984e+00 1.7760737655945832e+01 2.6845386830331240e+01 0 0 0
870 2 8.6135000000000002e+00 1.9181596668421495e+01 2.6845386830331240e+01 0 0 0
872 2 9.8440000000000012e+00 1.9892026174659335e+01 2.6845386830331240e+01 0 0 0
874 2 9.8440000000000012e+00 1.7050308149707998e+01 2.6845386830331240e+01 0 0 0
876 2 1.1074500000000002e+01 1.7760737655945835e+01 2.6845386830331240e+01 0 0 0