
# Create simulation box and atoms

read_data data.graphite_substrate_1000
  orthogonal box = (0 0 -1.03859) to (49.22 49.0196 61.1006)
  4 by 2 by 5 MPI processor grid
  reading atoms ...
  6768 atoms
  reading velocities ...
  6768 velocities
group water type 1
4008 atoms in group water
group graphite type 2
2760 atoms in group graphite

# Define potential

pair_style sw
pair_coeff * * mWC.sw mW C
Reading potential file mWC.sw with DATE: 2019-02-27


# Fix graphite atoms in place

fix 5 graphite setforce 0.0 0.0 0.0
velocity graphite set 0.0 0.0 0.0


# Equilibration of molecular water

# Add velocity/set timestep

velocity	    water create ${TEMP} ${SEED} rot yes dist gaussian
velocity	    water create 225 ${SEED} rot yes dist gaussian
velocity	    water create 225 660 rot yes dist gaussian
timestep	    5.0

# Define output

compute			1 water msd
compute			3 water temp
thermo	    	50
thermo_style	custom step temp press vol etotal ke pe c_1[4] c_3

# Neighbor lists

neigh_modify    delay 0 every 1 check yes

# Set fixes

fix             1 water momentum 10 linear 1 1 1 rescale
fix             2 water nve
fix             3 water temp/csvr ${TEMP} ${TEMP} 500.0 ${SEED}
fix             3 water temp/csvr 225 ${TEMP} 500.0 ${SEED}
fix             3 water temp/csvr 225 225 500.0 ${SEED}
fix             3 water temp/csvr 225 225 500.0 660
fix             4 water press/berendsen z ${PRES} ${PRES} 1000.0 modulus 20000
fix             4 water press/berendsen z -1000 ${PRES} 1000.0 modulus 20000
fix             4 water press/berendsen z -1000 -1000 1000.0 modulus 20000

# Run 0.5 ns equilibration

dump		    1 all atom 2000 ${DIR}/eq.${NAME}-${TEMP}.dump
dump		    1 all atom 2000 run_12/eq.${NAME}-${TEMP}.dump
dump		    1 all atom 2000 run_12/eq.het_freeze_12-${TEMP}.dump
dump		    1 all atom 2000 run_12/eq.het_freeze_12-225.dump

reset_timestep  0

run	            100000
Neighbor list info ...
  update every 1 steps, delay 0 steps, check yes
  max neighbors/atom: 2000, page size: 100000
  master list distance cutoff = 7.76
  ghost atom cutoff = 7.76
  binsize = 3.88, bins = 13 13 17
  1 neighbor lists, perpetual/occasional/extra = 1 0 0
  (1) pair sw, perpetual
      attributes: full, newton on
      pair build: full/bin/atomonly
      stencil: full/bin/3d
      bin: standard
Per MPI rank memory allocation (min/avg/max) = 4.107 | 4.219 | 4.543 Mbytes
Step Temp Press Volume TotEng KinEng PotEng c_1[4] c_3 
       0    133.23112   -1309.3276    149926.08   -35971.017    2687.4238   -38658.441            0          225 
      50    173.62417   -1756.1523    149566.13   -36392.138    3502.1977   -39894.336   0.85616238    293.21556 
     100    166.71057   -1712.8743    149079.62   -36828.879    3362.7426   -40191.621    1.8773902    281.53992 
     150    159.44604   -1561.1885    148726.83   -37158.395    3216.2086   -40374.604    2.6971935    269.27161 
     200    160.31475   -1606.7561    148446.42   -37390.305    3233.7316   -40624.036    3.4501364    270.73869 
     250    153.62474   -1573.0655    148111.87   -37648.275    3098.7863   -40747.061     4.119984    259.44062 
     300     153.8399   -1767.5913    147794.59   -37858.733    3103.1263   -40961.859    4.7250164    259.80399 
     350    149.07956   -1764.9888    147382.77   -38117.232    3007.1049   -41124.337    5.2947339    251.76475 
     400    145.48612   -1685.5562    147156.67   -38275.704     2934.621   -41210.325    5.8148277    245.69617 
     450      144.708   -1563.1259    146877.58   -38396.753    2918.9256   -41315.679    6.3757759     244.3821 
     500    144.49501   -1522.7188    146606.15   -38537.992    2914.6293   -41452.622    6.8873117    244.02239 
     550    142.73045   -1573.4651    146389.85   -38657.869    2879.0361   -41536.905    7.3515452    241.04241 
     600     140.3966    -1206.107    146281.69   -38736.362    2831.9598   -41568.322    7.7579506    237.10103 
     650    137.84677   -1277.9347    146183.33   -38844.039    2780.5268   -41624.565    8.2076611    232.79489 
     700    140.24163   -1522.7804    146039.85   -38897.499    2828.8339   -41726.333     8.572848    236.83931 
     750    138.81962   -1063.7334    145960.76   -38999.031    2800.1501   -41799.181    8.9068751    234.43782 
     800    138.62491   -1516.1727    145887.65   -39009.246    2796.2227   -41805.469    9.2144703      234.109 
     850    141.19507   -1390.6927    145783.95   -38996.721    2848.0658   -41844.786    9.4964423    238.44948 
     900    136.87951   -1388.3084    145683.57   -39036.949     2761.016   -41797.965    9.9067522    231.16138 
     950    137.18502    -1433.565    145529.44   -39119.972    2767.1784   -41887.151     10.28588    231.67732 
    1000    136.56717     -1146.74    145452.51   -39125.362    2754.7157   -41880.078    10.621966     230.6339 
    1050    138.41992    -1141.324    145460.14   -39130.585    2792.0878   -41922.673    10.879726    233.76281 
    1100    136.15894   -1290.8188    145389.33   -39172.325    2746.4813   -41918.806    11.246168    229.94449 
    1150    136.34566   -1236.9049    145295.36    -39152.34    2750.2476   -41902.587    11.655051    230.25981 
    1200    136.90142   -1152.2078    145246.82   -39206.091    2761.4579   -41967.549    11.920447    231.19837 
    1250    135.06721   -1297.2592    145263.89   -39300.943    2724.4598   -42025.403    12.257638    228.10078 
    1300    135.51237    -1356.717     145171.1   -39339.726    2733.4392   -42073.165    12.624541    228.85256 
    1350    135.63285   -1335.6824     145092.4   -39331.943    2735.8694   -42067.813    13.078264    229.05603 
    1400    132.97645   -1108.3149    145056.26   -39342.877    2682.2868   -42025.164    13.357875    224.56991 
    1450    134.61683    -1327.517    145030.65   -39418.594    2715.3752   -42133.969    13.655615    227.34018 
    1500    133.30308   -890.45441    144984.27   -39411.838    2688.8753   -42100.713    13.863223    225.12152 
    1550    133.14306   -1231.7515    144937.55   -39488.009    2685.6476   -42173.657    14.092321    224.85129 
    1600    134.78491   -1170.9459    144956.15   -39451.225    2718.7655    -42169.99    14.339473    227.62403 
    1650     134.7914   -1294.4024    144983.09    -39467.39    2718.8965   -42186.286    14.548505      227.635 
    1700    134.81845   -1294.0919    144963.43   -39537.888     2719.442    -42257.33    14.831358    227.68066 
    1750    134.92205   -1025.7167    144951.03   -39539.259    2721.5318   -42260.791    15.014935    227.85563 
    1800     133.3083   -1069.9744    145028.08   -39528.973    2688.9806   -42217.953    15.277223    225.13033 
    1850    130.99729   -1092.3188    145034.64   -39583.292    2642.3649   -42225.657    15.578976    221.22752 
    1900    135.26252   -1282.7603    144953.58   -39529.315    2728.3995   -42257.715    15.757572    228.43062 
    1950    133.47278   -983.36862    144985.29   -39517.753    2692.2983   -42210.051    15.954181     225.4081 
    2000     130.4254   -1096.4146    144965.68   -39529.415    2630.8292   -42160.244    16.163062    220.26171 
    2050    137.08614   -1204.5898    144987.54   -39473.565     2765.184   -42238.749    16.304975    231.51034 
    2100    135.51473   -1040.0318    144975.23   -39475.189    2733.4867   -42208.675    16.455093    228.85654 
    2150    135.82873   -1133.3599       145010   -39479.261    2739.8205   -42219.082    16.766442    229.38682 
    2200    131.59981    -1297.334    145083.06   -39510.931    2654.5185    -42165.45    17.160234    222.24506 
    2250    134.40473   -1163.4395     145008.7   -39557.829    2711.0969   -42268.926    17.461321    226.98199 
    2300    134.10909   -1174.3374    145018.93   -39503.903    2705.1335   -42209.037    17.644241    226.48271 
    2350    131.37613   -1198.2038     145067.8   -39510.236    2650.0065   -42160.243    17.751489     221.8673 
    2400    133.34992   -1225.3488    145099.29   -39542.124    2689.8202   -42231.944    17.891339    225.20063 
    2450    135.25079   -1234.4403    145085.67   -39520.262    2728.1629   -42248.425     17.97845    228.41081 
    2500    135.27693   -1331.4841    145126.61   -39525.188    2728.6902   -42253.878    18.296481    228.45496 
    2550    132.45156   -1207.9596    145133.85   -39533.811    2671.6991   -42205.511    18.534225    223.68347 
    2600    131.11408   -1102.4792     145167.4   -39609.927    2644.7207   -42254.647    18.631967    221.42475 
    2650    132.81774   -1052.2634    145180.52   -39610.823    2679.0854   -42289.908    18.809609    224.30188 
    2700    134.55086   -1223.6145    145217.91   -39640.627    2714.0445   -42354.671    18.896677    227.22877 
    2750    135.79338   -1195.3758    145191.42   -39580.159    2739.1076   -42319.266    19.028157    229.32713 
    2800    136.73074   -1081.4892     145185.3   -39509.999    2758.0151   -42268.014    19.220215    230.91014 
    2850    135.07368   -1271.5547    145160.63   -39574.133    2724.5902   -42298.723    19.463513     228.1117 
    2900    132.85818   -1252.1784    145136.52   -39617.542    2679.9011   -42297.443     19.72917    224.37017 
    2950    135.42297   -1073.0843    145023.95   -39601.621    2731.6359   -42333.257    20.037359    228.70158 
    3000    135.84432   -1019.6242    145117.02   -39673.865    2740.1351       -42414    20.234827    229.41316 
    3050    133.05473   -1039.5905    145183.18   -39694.013    2683.8659   -42377.879    20.325222    224.70212 
    3100    132.49779    -1063.593    145198.02   -39702.673    2672.6317   -42375.305    20.478168    223.76155 
    3150    132.11478   -1093.1198    145213.33   -39688.657    2664.9058   -42353.563    20.749821    223.11472 
    3200    131.58635   -1278.9157    145248.28   -39749.506     2654.247   -42403.753    20.744801    222.22233 
    3250    132.08505   -1332.2811    145267.15   -39754.029    2664.3063   -42418.335    20.918935    223.06452 
    3300    132.41967   -1195.8713    145279.77   -39728.004     2671.056    -42399.06     21.06532    223.62963 
    3350    130.89766    -1087.534    145355.42    -39690.71    2640.3552   -42331.065    21.293049    221.05926 
    3400    131.33196   -1159.5422    145351.09   -39679.923    2649.1155   -42329.039    21.456762     221.7927 
    3450    133.09281   -1320.0278    145275.46   -39695.459    2684.6339   -42380.093     21.72442    224.76642 
    3500    134.53816   -1228.5824    145184.71   -39656.959    2713.7883   -42370.747    21.925942    227.20733 
    3550    133.00011   -1215.1843    145223.05   -39655.865     2682.764   -42338.629    22.151396    224.60986 
    3600    134.92466   -1150.9556    145141.35   -39625.082    2721.5845   -42346.666     22.42575    227.86004 
    3650    135.29145   -1290.9818    145089.08   -39657.726     2728.983   -42386.709    22.689518    228.47947 
    3700    135.96202   -1173.2161    145083.14   -39627.797    2742.5091   -42370.306    22.822909    229.61192 
    3750    134.73355   -926.56166    145089.88   -39629.588    2717.7295   -42347.317    22.991996    227.53729 
    3800    135.09981   -1074.9487    145203.36   -39597.137    2725.1174   -42322.255    23.102207    228.15583 
    3850    135.87668   -1027.0635    145292.97   -39628.338    2740.7878   -42369.126    23.347268     229.4678 
    3900    134.76571   -1097.4679    145371.78   -39630.257    2718.3781   -42348.636    23.585331     227.5916 
    3950      131.962   -1102.2327    145380.78   -39624.246    2661.8243    -42286.07    23.926075    222.85672 
    4000    133.97488   -1102.3017    145441.91   -39601.553    2702.4264   -42303.979    24.176221    226.25606 
    4050    134.55876   -1249.5718    145472.05   -39617.062    2714.2039   -42331.265    24.391336    227.24212 
    4100    136.37325   -1214.4969    145479.67   -39643.412    2750.8042   -42394.216    24.614119    230.30641 
    4150    135.05981   -1297.6612    145498.66   -39684.851    2724.3106   -42409.161    24.874388    228.08828 
    4200    135.66006   -1229.4126    145489.49   -39709.805    2736.4182   -42446.223    25.086778    229.10197 
    4250    132.82389   -1200.6973    145528.18   -39712.405    2679.2096   -42391.615    25.245881    224.31228 
    4300    135.65849   -1109.8222    145555.87   -39651.201    2736.3866   -42387.587    25.498222    229.09932 
    4350    136.79297   -1110.4441    145547.56   -39642.664    2759.2703   -42401.935    25.662198    231.01522 
    4400    136.33957   -1048.6973    145612.75    -39694.39    2750.1248   -42444.515    25.746413    230.24953 
    4450    133.92048   -1192.7054    145685.46   -39680.152    2701.3289   -42381.481     25.92632    226.16418 
    4500    134.16271   -1197.5276    145664.39   -39655.182     2706.215   -42361.397    26.073248    226.57326 
    4550    133.14265   -986.12788    145774.26   -39631.087    2685.6393   -42316.726    26.275186    224.85059 
    4600    134.65146   -1275.5869    145778.69    -39615.78    2716.0737   -42331.854    26.400153    227.39866 
    4650    134.44182   -1397.0361    145692.77   -39663.561     2711.845   -42375.406    26.671445    227.04462 
    4700    135.13021   -1126.5012    145636.32   -39627.063    2725.7306   -42352.793    26.853795    228.20717 
    4750    133.16729   -1234.0516     145560.2   -39683.279    2686.1363   -42369.416    27.114141     224.8922 
    4800    132.03477   -1148.8093    145483.49   -39758.616     2663.292   -42421.908    27.432819     222.9796 
    4850    133.78272   -1287.8915    145457.56   -39734.558    2698.5502   -42433.109    27.635525    225.93154 
    4900    133.12558   -1209.9669    145367.92   -39738.081    2685.2949   -42423.376    27.843355    224.82176 
    4950    134.70102   -1003.0133    145358.27   -39724.186    2717.0734   -42441.259    27.939399    227.48236 
    5000    138.23577   -845.97375    145460.75   -39671.192    2788.3734   -42459.565    28.134669    233.45183 
    5050    135.71158    -1072.328    145539.64   -39648.368    2737.4574   -42385.826    28.472819    229.18898 
    5100    135.23499   -1308.9281     145556.8   -39687.102    2727.8442   -42414.947    28.588817    228.38413 
    5150    136.22146   -1069.3356    145589.03    -39721.79    2747.7424   -42469.533      28.8223    230.05007 
    5200    133.12095   -1211.2488    145559.35   -39726.412    2685.2014   -42411.613    29.076822    224.81394 
    5250    135.72484   -1117.8212    145577.32   -39691.773     2737.725   -42429.498    29.282019    229.21138 
    5300    134.38822   -1214.8971    145586.57   -39722.232    2710.7637   -42432.996    29.489082     226.9541 
    5350    135.08263   -1384.7227    145495.19   -39697.824    2724.7708   -42422.595    29.787872    228.12682 
    5400    136.47178   -1204.3704    145541.29   -39689.639    2752.7916   -42442.431    30.044875    230.47281 
    5450     135.1966   -1112.5988     145541.2   -39706.169    2727.0697   -42433.238    30.100303    228.31928 
    5500    130.99952   -1123.6402    145561.62   -39750.051      2642.41   -42392.461    30.241234    221.23129 
    5550    135.34109   -993.34558    145620.01   -39772.661    2729.9843   -42502.645    30.477375     228.5633 
    5600    134.33255    -1150.661     145717.1   -39763.342     2709.641   -42472.983    30.651441    226.86009 
    5650    133.83192   -1087.8682    145777.33   -39740.175    2699.5427   -42439.717    30.745134    226.01463 
    5700    136.35788   -938.97527    145895.66   -39722.195    2750.4941   -42472.689    30.724385    230.28045 
    5750    134.07952   -1155.1464     145929.8   -39751.184     2704.537   -42455.721    30.845221    226.43277 
    5800    133.21371   -1126.5433    145934.61   -39751.651    2687.0726   -42438.723    31.054495    224.97059 
    5850    133.74926   -1174.2192    146001.67   -39725.934    2697.8752    -42423.81    31.362764    225.87503 
    5900    133.83493   -1205.3445    146057.15   -39695.709    2699.6033   -42395.312    31.412173     226.0197 
    5950    133.25675   -1204.6933    146052.75   -39678.319    2687.9408   -42366.259    31.522473    225.04329 
    6000    135.18376   -1129.3691    146029.16   -39675.842    2726.8107   -42402.653    31.698312     228.2976 
    6050    132.75537   -1103.1897    146102.81   -39681.437    2677.8274   -42359.265    31.777096    224.19656 
    6100    134.47538   -1304.2871    146090.38    -39709.03    2712.5219   -42421.552    31.860695    227.10129 
    6150    134.05265     -1303.37    145965.61   -39666.629     2703.995   -42370.624    32.047186     226.3874 
    6200     134.6714   -1335.8547    145911.33   -39727.466    2716.4759   -42443.942    32.124701    227.43234 
    6250    136.95343   -1268.0931    145809.81    -39706.19    2762.5071   -42468.697    32.341967    231.28622 
    6300    133.92937   -1260.3504    145790.03   -39714.908    2701.5082   -42416.416    32.655069    226.17919 
    6350    136.92244   -1363.8361    145812.18   -39692.327     2761.882   -42454.209    32.796173    231.23389 
    6400    135.69847   -1029.5482    145906.11   -39644.022     2737.193   -42381.215    32.988148    229.16684 
    6450    136.16505   -1228.5559    145937.65   -39666.777    2746.6046   -42413.382     32.99235    229.95481 
    6500    131.40463   -1316.7588    145853.75   -39728.384    2650.5813   -42378.965    33.165434    221.91542 
    6550    135.81907   -1315.7961    145758.53   -39690.571    2739.6256   -42430.197     33.47483    229.37051 
    6600    136.56593   -1348.6786     145802.6   -39714.369    2754.6907    -42469.06    33.533926    230.63181 
    6650    134.54388   -1279.9646    145687.08   -39766.762    2713.9036   -42480.666    33.594262    227.21697 
    6700    134.78612   -1239.7509       145673   -39803.137    2718.7899   -42521.927      33.5794    227.62607 
    6750    133.29607   -1249.0512    145575.79   -39793.786    2688.7338    -42482.52    33.780037    225.10968 
    6800    133.06838   -1207.4637    145561.58   -39794.735    2684.1411   -42478.877    33.948077    224.72516 
    6850    135.62902   -1256.0181    145531.93   -39755.057    2735.7922   -42490.849    34.050805    229.04956 
    6900    134.35334   -1094.7862    145413.15   -39807.587    2710.0602   -42517.647    34.120554     226.8952 
    6950    134.03374   -1302.8959    145332.07   -39800.631    2703.6135   -42504.244    34.271095    226.35545 
    7000    135.87009   -1048.3474    145298.39   -39765.043    2740.6547   -42505.698     34.53427    229.45667 
    7050    136.11035   -1098.0287     145363.3   -39759.043    2745.5012   -42504.544    34.534012    229.86243 
    7100     132.2667   -1037.2229    145373.76   -39781.981    2667.9704   -42449.951    34.638015    223.37129 
    7150    133.48547   -1182.3307    145404.83   -39794.824    2692.5543   -42487.379    34.714393    225.42954 
    7200    131.33864   -1097.3017    145453.99     -39802.1    2649.2503    -42451.35    34.899198    221.80399 
    7250    132.47896   -1130.8038    145507.18   -39761.544    2672.2518   -42433.796    34.993558    223.72975 
    7300     134.0517   -1123.6955    145478.22   -39785.821    2703.9757   -42489.797    35.203312    226.38578 
    7350    134.06963     -1101.34    145540.04   -39771.887    2704.3375   -42476.225    35.563758    226.41607 
    7400    132.89894   -1204.4186    145552.32   -39789.315    2680.7233   -42470.038    35.742918    224.43901 
    7450    133.54021    -1209.929    145467.22   -39784.392    2693.6585   -42478.051    35.929118    225.52199 
    7500     134.6832   -1195.3561    145435.45    -39777.03     2716.714   -42493.744    36.091385    227.45227 
    7550    135.48129   -967.35758    145425.08   -39776.001    2732.8123   -42508.813    36.206715    228.80007 
    7600    134.83057   -1007.5419    145520.74   -39730.391    2719.6866   -42450.077    36.432185    227.70114 
    7650    135.85091   -1176.1145    145497.17   -39699.722    2740.2679    -42439.99    36.374022    229.42428 
    7700    134.69617   -1013.5501    145440.71   -39725.042    2716.9755   -42442.018    36.584942    227.47416 
    7750    136.15146   -1196.8523    145459.78   -39796.221    2746.3303   -42542.552    36.730442    229.93184 
    7800    133.42558   -1146.3559     145465.7   -39820.985    2691.3463   -42512.331    36.804853    225.32841 
    7850    133.25482   -1131.1551    145501.13    -39813.58    2687.9019   -42501.482    36.753489    225.04003 
    7900    134.62238   -1007.0537    145528.94   -39857.353    2715.4872    -42572.84    36.780111    227.34956 
    7950    130.31125   -1270.2757    145497.87   -39906.677    2628.5266   -42535.204    37.051233    220.06893 
    8000    129.86231   -1141.2052    145376.68   -39927.761     2619.471   -42547.232    37.144813    219.31077 
    8050    131.92142   -973.08334     145402.3   -39901.212    2661.0056   -42562.218    37.264133    222.78818 
    8100    131.83452   -1044.0496    145500.45   -39863.575    2659.2528   -42522.828    37.347392    222.64143 
    8150    135.04293   -1052.9637    145557.51   -39818.407    2723.9701   -42542.377    37.563492    228.05977 
    8200    135.31484   -1290.4798    145536.13   -39781.995    2729.4547    -42511.45    37.596797    228.51896 
    8250    132.36721   -1214.5137    145492.34   -39833.536    2669.9977   -42503.534    37.830538    223.54103 
    8300    131.50971   -1213.6759    145510.33   -39912.035    2652.7009   -42564.736    37.904319    222.09288 
    8350    132.23015   -1155.5991    145526.99   -39876.127    2667.2331    -42543.36    37.946972    223.30956 
    8400    130.88497   -1000.4695    145553.03   -39889.245    2640.0993   -42529.344    38.224501    221.03784 
    8450    132.84532    -1196.649    145606.77   -39904.194    2679.6417   -42583.836    38.454896    224.34845 
    8500    132.63876   -1035.3976    145653.06   -39926.023    2675.4752   -42601.498    38.548595    223.99962 
    8550    128.38971   -1313.5583    145670.55   -39934.226    2589.7671   -42523.993    38.622384    216.82385 
    8600    132.37639   -1106.1277    145610.36   -39949.711    2670.1829   -42619.894    38.859782    223.55654 
    8650    130.06196   -1056.6841    145658.54    -39896.89    2623.4982   -42520.388    38.923997    219.64794 
    8700    135.26941   -941.63323    145698.61   -39893.221    2728.5384   -42621.759    38.948495    228.44225 
    8750    131.16381    -1181.506    145768.07   -39920.147    2645.7237   -42565.871    39.145459    221.50873 
    8800    131.54776   -1074.2761    145765.27   -39953.941    2653.4684   -42607.409     39.09568    222.15714 
    8850    132.98822   -1209.0901    145733.48   -39891.634    2682.5243   -42574.159    39.092446    224.58979 
    8900    132.48621   -1023.6563    145721.67   -39923.236    2672.3981   -42595.634    39.228205    223.74199 
    8950    131.07022   -1267.8286    145739.55   -39952.841     2643.836   -42596.677    39.237938    221.35068 
    9000    134.35686   -994.36374    145798.23   -39899.402    2710.1313   -42609.533    39.283531    226.90115 
    9050    132.37707   -1121.7412    145872.19   -39926.897    2670.1967   -42597.094    39.371301    223.55769 
    9100    130.46331   -1159.3718    145849.93   -39912.502    2631.5939   -42544.096    39.524135    220.32573 
    9150     132.2053   -1043.9205    145815.27   -39880.087    2666.7318   -42546.819     39.70044     223.2676 
    9200    133.11611   -1153.8704    145763.86   -39872.442     2685.104   -42557.546    39.991368    224.80577 
    9250    133.07995   -1120.7763    145783.62   -39809.835    2684.3745    -42494.21     40.01093     224.7447 
    9300    133.05248    -1238.435    145790.36    -39828.68    2683.8205     -42512.5     40.16016    224.69832 
    9350    136.03756   -1107.4851    145784.46   -39804.402    2744.0328   -42548.435    40.094592    229.73949 
    9400    132.52725   -1192.0473     145813.9   -39827.019    2673.2259   -42500.245    40.280562    223.81131 
    9450    130.76271   -1102.9903    145759.29   -39862.608    2637.6331   -42500.241    40.325622    220.83136 
    9500    132.96384    -1184.807    145716.53   -39859.363    2682.0325   -42541.395    40.542305    224.54862 
    9550    130.35077   -1203.3171    145680.19   -39851.904    2629.3239   -42481.228    40.734677    220.13568 
    9600    133.39315     -1167.72       145666   -39850.218    2690.6921    -42540.91    40.820944    225.27363 
    9650    132.87155    -888.0203    145616.58   -39863.411    2680.1709   -42543.582    40.992707    224.39276 
    9700    135.96724   -1165.1382     145608.3   -39852.876    2742.6145    -42595.49    41.025791    229.62074 
    9750    136.62795   -1102.2404    145619.09   -39833.446    2755.9418   -42589.388    41.246344    230.73655 
    9800    135.99838   -1109.6082    145740.85   -39803.343    2743.2427   -42546.586    41.341962    229.67334 
    9850    133.29672   -1019.6983    145853.75   -39776.902    2688.7469   -42465.649    41.500007    225.11078 
    9900    134.52672   -1148.5528    145872.73   -39766.955    2713.5576   -42480.513    41.702236    227.18801 
    9950    137.59266    -1323.006     145794.2   -39780.869    2775.4011    -42556.27    41.828537    232.36575 
   10000    132.94714   -1136.5145     145767.7    -39809.81    2681.6955   -42491.505    41.892455    224.52041 
   10050    133.55579   -1437.7487    145701.69   -39860.886    2693.9727   -42554.859    41.764871     225.5483 
   10100    133.49366   -1251.5156    145613.32   -39896.766    2692.7196   -42589.486    41.996467    225.44338 
   10150    133.88261   -1074.2627    145573.68   -39877.349    2700.5651   -42577.914    42.194419    226.10023 
   10200    132.92088   -1242.3403     145627.8   -39886.719    2681.1658   -42567.885    42.238467    224.47606 
   10250    136.01139    -1124.878    145682.41   -39853.235     2743.505    -42596.74    42.460765     229.6953 
   10300    132.20416   -1167.8649    145658.13   -39837.193    2666.7089   -42503.902    42.596735    223.26568 
   10350    132.16505   -1026.8034    145679.45   -39897.109    2665.9199   -42563.029    42.765632    223.19962 
   10400     131.5539   -1107.4224    145753.97   -39936.584    2653.5924   -42590.176    42.881457    222.16752 
   10450     129.2625   -1053.1748    145718.35   -39946.862    2607.3722   -42554.234    43.138137    218.29781 
   10500     132.4182   -1040.6254     145732.4   -39848.568    2671.0262   -42519.594    43.196204    223.62714 
   10550    135.68281   -1123.4932    145739.52   -39771.806    2736.8771   -42508.684    43.350045    229.14039 
   10600    133.83948   -1158.8678     145756.4   -39816.984    2699.6951   -42516.679    43.421249    226.02739 
   10650    132.85101   -1266.3578    145734.54   -39855.286    2679.7565   -42535.043    43.668288    224.35807 
   10700    133.41391   -1153.3553     145651.8   -39821.843    2691.1108   -42512.954    43.728641    225.30869 
   10750    136.32986   -1189.2942    145677.56   -39773.532     2749.929   -42523.461    43.811545    230.23314 
   10800    132.64183   -1110.8355    145678.16   -39784.924    2675.5372   -42460.461     44.02987    224.00481 
   10850    134.49889   -1071.9168    145783.49   -39802.015    2712.9962   -42515.011     44.07754      227.141 
   10900     136.3527   -1135.8052    145824.34   -39799.046    2750.3897   -42549.436    44.296761    230.27171 
   10950    133.28577   -1220.7935    145877.61   -39848.057    2688.5261   -42536.583    44.477931    225.09228 
   11000     133.7726   -1300.3228    145856.78   -39820.152     2698.346   -42518.498    44.669879    225.91444 
   11050    135.53076   -1012.9739    145827.48   -39753.102    2733.8102   -42486.912      44.7373    228.88362 
   11100    134.72004   -1095.2133    145884.62   -39755.723     2717.457    -42473.18    44.595139    227.51448 
   11150    137.19318   -998.32133    145916.89   -39785.503    2767.3431   -42552.846    44.724575    231.69111 
   11200     136.2414   -1203.8088    145946.15   -39804.717    2748.1445   -42552.861    44.931606    230.08374 
   11250    133.58428   -1111.6829     145869.9   -39853.602    2694.5474   -42548.149    45.203517    225.59641 
   11300    135.38008   -1126.9156    145877.74   -39892.492    2730.7709   -42623.263    45.342779    228.62916 
   11350    131.16759   -1186.2356    145851.31   -39917.294    2645.7999   -42563.094    45.412726    221.51511 
   11400    132.10168   -1054.3725    145844.47   -39925.033    2664.6416   -42589.674     45.60183     223.0926 
   11450    132.99305   -1068.6268     145851.8   -39926.498    2682.6216   -42609.119    45.696343    224.59794 
   11500    132.20395   -1004.2571    145842.76   -39934.826    2666.7047   -42601.531    45.803484    223.26532 
   11550    133.46528   -1216.8275     145829.9   -39921.428    2692.1471   -42613.576    45.912479    225.39545 
   11600    132.04995   -973.49553     145819.9    -39925.47    2663.5983   -42589.068    46.142689    223.00525 
   11650    132.60346   -1142.6852    145742.32   -39907.021    2674.7632   -42581.784    46.484767    223.94001 
   11700    133.11874   -977.31613     145765.5   -39902.844     2685.157   -42588.001    46.756788    224.81022 
   11750    131.79155   -1016.6066    145807.97    -39900.64    2658.3861   -42559.026    46.792735    222.56886 
   11800    132.62994   -997.41777    145906.91   -39852.235    2675.2972   -42527.532    46.729739    223.98472 
   11850    132.21807    -1343.397    145887.74   -39847.692    2666.9895   -42514.682    46.974275    223.28917 
   11900    135.40731   -1244.5303     145881.6   -39909.848    2731.3201   -42641.168    47.161583    228.67514 
   11950    133.81076   -1153.1732    145896.96   -39904.326    2699.1159   -42603.442    47.417338     225.9789 
   12000    132.14029   -1052.8133    145929.46   -39946.196    2665.4205   -42611.617    47.561946    223.15781 
   12050    130.26306    -1208.445     145897.4   -39926.829    2627.5546   -42554.383     47.74506    219.98755 
   12100    135.18409    -1125.925    145879.13   -39925.283    2726.8175   -42652.101    47.953665    228.29817 
   12150    131.36271   -1186.4282    145848.31   -39910.866    2649.7359   -42560.602     48.24259    221.84464 
   12200    133.08429   -1251.2375    145799.05   -39904.734     2684.462   -42589.196    48.354991    224.75202 
   12250    133.44781   -1209.1728    145774.83   -39920.741    2691.7946   -42612.535    48.632707    225.36594 
   12300    134.36327   -1000.1283    145757.86   -39895.928    2710.2606   -42606.188    48.817568    226.91197 
   12350     132.9044    -947.0794     145798.2   -39889.065    2680.8335   -42569.899    49.147553    224.44824 
   12400    135.69147   -866.14918    145837.98    -39914.32    2737.0518   -42651.372    49.260959    229.15502 
   12450    133.10754   -1044.8919    145852.29   -39921.912     2684.931   -42606.843    49.553951     224.7913 
   12500    135.83014   -787.75288    145838.46   -39906.149     2739.849   -42645.998    49.882435    229.38921 
   12550    131.94273   -1285.9293    145821.62   -39963.909    2661.4355   -42625.344    50.031099    222.82417 
   12600    132.80115   -1240.1509    145758.04   -39954.025    2678.7509   -42632.776    50.229051    224.27387 
   12650    132.68236   -1220.8622    145645.77   -39982.848    2676.3547   -42659.203    50.450812    224.07325 
   12700    134.93199   -1111.3333    145577.54   -39952.603    2721.7322   -42674.335    50.715884    227.87241 
   12750    135.25081   -1034.1606    145588.42   -39938.754    2728.1632   -42666.917    50.913408    228.41083 
   12800     133.2475   -943.55062    145581.53   -39998.452    2687.7541   -42686.206    51.113713    225.02765 
   12850    131.99084   -1106.0627    145650.65   -40007.938     2662.406   -42670.344     51.27631    222.90543 
   12900     134.3039   -1099.9838    145757.77   -39985.789    2709.0629   -42694.852    51.419598     226.8117 
   12950     132.1323   -1077.2324    145803.46    -39979.41    2665.2594   -42644.669    51.667655    223.14432 
   13000    133.35663    -1127.916    145806.14   -39967.492    2689.9556   -42657.447    51.646477    225.21197 
   13050    133.37772   -1102.1359    145889.65    -39962.87    2690.3808   -42653.251    51.792342    225.24757 
   13100    133.36799   -1160.4627    145998.14   -39966.004    2690.1846   -42656.189    52.014029    225.23114 
   13150     134.5944   -1345.3756     145978.4   -39910.962    2714.9227   -42625.885    51.953418    227.30229 
   13200    131.76744   -1214.1326    145917.77   -39970.633    2657.8996   -42628.532    52.048884    222.52814 
   13250    132.89814   -1204.0244     145862.7   -39976.353    2680.7072    -42657.06    52.193574    224.43767 
   13300    131.41459   -1100.3626    145845.99   -40007.151    2650.7823   -42657.933    52.351624    221.93225 
   13350    134.32969   -1119.5456    145853.46   -39993.449    2709.5831   -42703.032    52.579496    226.85525 
   13400    132.12489   -1224.9536    145858.13   -40015.111    2665.1098   -42680.221    52.885634    223.13179 
   13450    130.28631   -1090.2094    145807.04   -40008.107    2628.0237    -42636.13     53.18346    220.02682 
   13500    132.58524    -1123.729    145781.18   -39956.145    2674.3957   -42630.541    53.336921    223.90924 
   13550    133.20224   -1103.9685    145716.31   -39962.416    2686.8413   -42649.257    53.651179    224.95123 
   13600    133.75512   -1142.8152     145680.7   -39941.281    2697.9934   -42639.275     53.70396    225.88492 
   13650    133.08157   -1126.8336    145658.72   -39911.615    2684.4073   -42596.022    53.695494    224.74744 
   13700    133.05036   -1224.9288    145560.18   -39888.808    2683.7777   -42572.586    54.011698    224.69474 
   13750    133.47396   -1023.6054    145593.86   -39902.281    2692.3221   -42594.603    54.213243     225.4101 
   13800    133.70069   -1057.4147    145615.51   -39933.223    2696.8955   -42630.119    54.348881      225.793 
   13850    132.65935   -1041.6817       145578   -39935.121    2675.8905   -42611.011     54.38937    224.03439 
   13900    132.42852   -1233.5118    145541.63   -39886.568    2671.2345   -42557.802    54.598327    223.64457 
   13950    135.65725   -1039.4546    145461.96   -39878.119    2736.3615    -42614.48    54.708801    229.09723 
   14000    131.25906   -1046.4231    145513.09   -39918.949    2647.6452   -42566.595    54.736914     221.6696 
   14050    132.63383   -996.93779    145527.16   -39943.814    2675.3758    -42619.19    54.961012     223.9913 
   14100    132.69987   -1033.9694    145573.52   -39928.073    2676.7078   -42604.781    55.161964    224.10282 
   14150    134.13554   -1003.4365     145571.2    -39906.96    2705.6669   -42612.627    55.310054    226.52737 
   14200    134.78129   -1086.6188    145509.07    -39895.86    2718.6924   -42614.552    55.580466    227.61791 
   14250    134.38188   -1041.3018    145485.71   -39896.721    2710.6359   -42607.357    55.806454    226.94339 
   14300     134.8516   -1017.7082    145446.35   -39862.552    2720.1106   -42582.663    55.900983    227.73665 
   14350    133.03038   -901.88537    145553.87    -39837.75    2683.3746   -42521.124    56.049771    224.66099 
   14400     137.2987   -1155.0881    145581.44   -39817.588    2769.4716    -42587.06    55.969546    231.86931 
   14450     131.5951   -925.24298    145579.29   -39833.392    2654.4235   -42487.816    56.051997     222.2371 
   14500    135.23937   -1143.4905    145605.06   -39832.879    2727.9325   -42560.811    56.300686    228.39152 
   14550    135.35534   -1233.5002    145584.23   -39836.308    2730.2718    -42566.58    56.626706    228.58737 
   14600    133.94813   -1099.2309    145591.01   -39825.162    2701.8866   -42527.049    56.728528    226.21087 
   14650    133.97206   -898.46477    145640.85   -39796.033    2702.3693   -42498.403    56.901761    226.25129 
   14700    134.38838   -1153.2022    145716.25   -39793.172    2710.7669   -42503.939    57.097792    226.95436 
   14750    133.72325   -1223.0871    145744.04   -39747.407    2697.3507   -42444.758    57.196397    225.83111 
   14800    133.49114   -1206.8419    145716.05   -39801.288    2692.6687   -42493.956    57.535999    225.43912 
   14850    134.68829   -1131.8901    145748.26   -39875.905    2716.8165   -42592.722    57.529266    227.46085 
   14900    133.85279   -1230.7036    145730.95   -39813.748    2699.9635   -42513.712    57.611914    226.04987 
   14950    134.59158   -1247.9185     145718.2   -39790.238    2714.8658   -42505.103    57.808151    227.29754 
   15000     134.4004   -1013.5573    145706.46    -39768.24    2711.0095    -42479.25    58.075439    226.97467 
   15050    134.81045   -1022.4788    145730.04   -39792.057    2719.2806   -42511.338    58.289577    227.66716 
   15100    132.81478   -1172.3846    145688.37   -39784.397    2679.0258   -42463.423    58.454732    224.29689 
   15150    133.46815   -1268.6347     145594.5   -39781.147    2692.2049   -42473.352    58.728267    225.40029 
   15200    136.21841   -1127.8373    145547.44   -39770.121    2747.6808   -42517.802    58.915322    230.04491 
   15250    134.86228     -1096.55    145524.24   -39756.079    2720.3262   -42476.405    59.060995    227.75469 
   15300    134.04392   -1207.1859    145472.81   -39740.564    2703.8189   -42444.383    59.207394    226.37265 
   15350     132.7452   -998.22991     145530.6   -39711.564    2677.6223   -42389.186    59.163796    224.17939 
   15400    132.80226    -925.6001     145513.1   -39754.776    2678.7732   -42433.549    59.222452    224.27574 
   15450    135.56753   -963.14188    145626.35   -39714.184    2734.5519   -42448.736    59.285178    228.94572 
   15500    137.88752   -1135.1325    145672.76   -39764.943    2781.3486   -42546.292    59.521129     232.8637 
   15550    133.00236   -1084.0765    145635.53   -39811.606    2682.8095   -42494.415    59.858854    224.61368 
   15600    134.76549   -1192.7987    145610.21    -39779.07    2718.3738   -42497.444    60.066383    227.59123 
   15650    133.87529   -1262.7911    145497.57   -39781.258    2700.4175   -42481.675    60.257724    226.08787 
   15700    136.18422   -1174.6471    145469.88   -39742.926    2746.9912   -42489.917    60.307875    229.98718 
   15750    131.84215   -1044.2377    145497.14   -39801.048    2659.4067   -42460.455    60.433921    222.65432 
   15800    134.70849   -1224.7093    145515.88   -39802.303     2717.224   -42519.527    60.703738    227.49497 
   15850    132.06397   -1128.5336    145417.07   -39820.925    2663.8811   -42484.806    60.957909    223.02892 
   15900    133.02405   -1225.3193    145370.76   -39818.545     2683.247   -42501.792    61.150355     224.6503 
   15950    134.79754   -1069.0681    145350.37   -39843.733    2719.0202   -42562.753    61.298953    227.64535 
   16000    132.01825   -1270.8762    145389.58   -39831.852    2662.9587   -42494.811    61.421102     222.9517 
   16050    132.25045   -976.10016    145411.73   -39817.532    2667.6426   -42485.174    61.680029    223.34385 
   16100     135.9815   -1051.3785    145462.74   -39790.725     2742.902   -42533.627    61.811635    229.64482 
   16150    131.93931   -1239.3895    145512.05   -39827.292    2661.3666   -42488.658    61.737979     222.8184 
   16200     133.4629   -1461.5514    145434.86   -39797.014    2692.0991   -42489.113    62.001201    225.39143 
   16250    131.85868   -1438.9608    145319.28     -39825.2    2659.7402    -42484.94    62.157789    222.68223 
   16300    132.27219    -1250.983    145209.26   -39856.733    2668.0811   -42524.814    62.353838    223.38057 
   16350    132.09924   -926.11521    145177.38   -39834.898    2664.5926    -42499.49     62.48378    223.08849 
   16400    129.80413   -1065.6272    145209.27   -39840.686    2618.2975   -42458.984    62.601656    219.21252 
   16450    130.29099   -1141.2664     145247.6   -39888.041    2628.1181   -42516.159    62.689068    220.03473 
   16500    132.64851   -1064.0758    145216.07    -39871.08    2675.6718   -42546.751      62.9413    224.01608 
   16550    133.81569   -1196.3246    145206.29   -39852.112    2699.2152   -42551.327    63.164437    225.98722 
   16600    132.48303   -1211.8757     145183.5   -39854.646    2672.3339    -42526.98    63.236391    223.73663 
   16650    132.28128   -1173.0066    145163.46    -39820.12    2668.2645   -42488.385    63.028903    223.39592 
   16700    133.87235   -1078.1097    145219.04   -39797.543    2700.3581   -42497.901    63.056114     226.0829 
   16750    132.10377   -1171.8634     145291.1   -39787.411    2664.6838   -42452.095    63.179296    223.09613 
   16800    135.54627   -1098.9848    145361.03    -39789.12    2734.1231   -42523.243       63.375    228.90981 
   16850    134.41973    -1181.657    145363.37   -39784.534    2711.3995   -42495.934     63.67728    227.00732 
   16900    131.59848   -1092.8404    145319.82   -39791.527    2654.4915   -42446.018    63.861992     222.2428 
   16950    131.23093   -1295.0398    145266.41   -39807.042    2647.0777    -42454.12    63.938046    221.62209 
   17000    132.01877   -1187.1633    145165.52   -39819.398    2662.9693   -42482.367    64.098977    222.95259 
   17050    134.22735   -1086.1228    145070.36   -39801.658     2707.519   -42509.177    64.334814    226.68243 
   17100    130.92652    -1036.002     145136.9   -39829.858    2640.9373   -42470.796    64.352017      221.108 
   17150    132.53746   -1098.7886       145176   -39789.874     2673.432   -42463.306    64.395629    223.82856 
   17200    134.47037   -1031.7706    145150.65   -39803.453    2712.4209   -42515.874    64.492729    227.09283 
   17250    132.70993   -1115.4949    145213.27   -39794.622    2676.9108   -42471.533    64.611899    224.11981 
   17300    131.60614   -1237.6818    145180.01   -39801.147    2654.6462   -42455.793    64.758495    222.25575 
   17350    132.61445    -1040.138    145124.21   -39841.993    2674.9849   -42516.978    65.012992    223.95857 
   17400    131.65197   -1215.5267    145143.24   -39870.233    2655.5706   -42525.804    64.946577    222.33314 
   17450     129.5302   -1180.3848    145151.13   -39866.382    2612.7719   -42479.154    64.877809     218.7499 
   17500    129.32228   -1027.4087    145185.02   -39893.739     2608.578   -42502.317    64.841209    218.39877 
   17550     131.1587   -1081.9013    145268.09   -39841.573    2645.6208   -42487.194    64.828444    221.50011 
   17600    130.42518   -1229.2125    145199.96   -39840.654    2630.8247   -42471.478     65.17838    220.26133 
   17650    134.72773    -1132.372    145146.62   -39776.143    2717.6121   -42493.755    65.442947    227.52746 
   17700    133.25508   -1120.5196    145183.35   -39812.836     2687.907   -42500.743    65.640627    225.04046 
   17750    133.17346   -1133.3946    145212.21    -39868.97    2686.2608    -42555.23     65.86328    224.90263 
   17800    131.68524    -1125.634    145236.26   -39853.069    2656.2417   -42509.311    66.049255    222.38933 
   17850    131.82697   -996.03269    145325.07   -39924.623    2659.1006   -42583.723    66.356696    222.62868 
   17900    133.46457   -1113.3382    145351.71   -39885.209    2692.1327   -42577.341    66.619454    225.39425 
   17950    132.14227    -1242.135    145357.61   -39830.647    2665.4604   -42496.108    66.833901    223.16115 
   18000    137.32286   -1262.7732    145341.97     -39824.2    2769.9589   -42594.159    67.044568    231.91011 
   18050    134.11085   -1076.3913    145348.57   -39809.017     2705.169   -42514.186    67.391863    226.48568 
   18100    134.68912    -1203.358    145389.79   -39805.772    2716.8333   -42522.605    67.488231    227.46226 
   18150    134.63103   -1392.2293    145417.41   -39814.914    2715.6615   -42530.575    67.732456    227.36415 
   18200    134.79127   -1033.2985    145403.12   -39835.664    2718.8938   -42554.558    67.872651    227.63477 
   18250     131.0798     -1291.52    145472.96   -39835.695    2644.0291   -42479.724    68.147746    221.36685 
   18300    133.05876   -1202.8251    145458.88   -39825.855     2683.947   -42509.802    68.284539    224.70891 
   18350    134.16816    -1143.838    145453.01   -39819.393     2706.325   -42525.717    68.504328    226.58247 
   18400    134.74961   -1133.1293    145470.53   -39838.118    2718.0535   -42556.172    68.749448    227.56442 
   18450    133.23633   -1344.3721    145405.64   -39887.213    2687.5289   -42574.742    68.869427     225.0088 
   18500    131.62243   -1174.5715    145381.92   -39894.909    2654.9746   -42549.884    69.008927    222.28325 
   18550    130.75169   -1075.2611    145389.58    -39897.82    2637.4108   -42535.231    69.148926    220.81274 
   18600    130.49151   -1110.5127     145426.3   -39919.234    2632.1628   -42551.397    69.093912    220.37336 
   18650    132.75933   -1190.1042    145366.83   -39943.208    2677.9073   -42621.115    69.077786    224.20324 
   18700    131.55311   -1111.5231    145426.21   -39925.567    2653.5765   -42579.144    69.147308    222.16619 
   18750    130.67892   -1058.4497    145377.99   -39945.069    2635.9431   -42581.012    69.172405    220.68986 
   18800     133.9068   -1058.3612    145383.88    -39934.64    2701.0531   -42635.694    69.290776    226.14109 
   18850    131.23435   -1044.4821    145487.64    -39971.55    2647.1467   -42618.697    69.305804    221.62786 
   18900    133.81518    -1333.799    145420.87   -39966.288    2699.2049   -42665.493     69.51777    225.98635 
   18950    135.38273    -1184.824    145344.98   -39926.164    2730.8242   -42656.989    69.519925    228.63362 
   19000    133.67215   -1430.1005    145357.63    -39891.88    2696.3198     -42588.2    69.797108     225.7448 
   19050    130.90782   -1030.4239    145286.35   -39881.143    2640.5603   -42521.704    69.906733    221.07643 
   19100    131.43913   -1224.9979    145258.78   -39850.031    2651.2773   -42501.308    69.805786     221.9737 
   19150    132.92413   -1174.0655    145290.97    -39838.85    2681.2315   -42520.082    70.011987    224.48156 
   19200     133.0714   -1111.5591    145353.56   -39851.046    2684.2021   -42535.248    69.995408    224.73027 
   19250    132.97842   -986.95623    145455.96   -39867.231    2682.3265   -42549.558    70.122081    224.57324 
   19300    131.91583   -1030.2292    145555.56   -39858.918    2660.8928   -42519.811    70.456981    222.77874 
   19350    135.63262   -1090.7565    145585.03   -39866.691    2735.8648   -42602.555    70.487086    229.05564 
   19400    134.57164   -1122.0479    145618.62   -39869.152    2714.4636   -42583.616    70.668223    227.26386 
   19450    134.33201   -1106.3379    145668.26   -39892.995    2709.6301   -42602.625    70.838752    226.85918 
   19500    135.02844     -1172.86    145705.78   -39878.025    2723.6779   -42601.703    71.067306    228.03531 
   19550    133.47481   -1330.5508    145720.03   -39942.235    2692.3392   -42634.574    71.177047    225.41153 
   19600     132.6586   -1135.7852    145735.76   -39980.199    2675.8754   -42656.074    71.597669    224.03312 
   19650    130.94393   -1058.8226    145717.42   -39897.487    2641.2886   -42538.775     71.57151     221.1374 
   19700    131.91242   -1148.4992    145758.24    -39924.87    2660.8241   -42585.694    71.769417    222.77298 
   19750    132.04363   -1176.0867    145757.23   -39990.909    2663.4708    -42654.38    71.817484    222.99458 
   19800    126.74358   -1228.3006    145741.73   -40028.275    2556.5627   -42584.838    71.784211    214.04388 
   19850    128.59205   -1233.1217    145760.25   -39956.553    2593.8484   -42550.401    71.992492    217.16555 
   19900    131.63771   -1275.7131    145654.33   -39965.752    2655.2828   -42621.035     72.10146    222.30905 
   19950     132.1196    -1055.231    145619.76   -39919.239    2665.0032   -42584.242    72.275394    223.12287 
   20000    132.84158   -1324.1447    145624.83    -39942.61    2679.5663   -42622.176    72.416069    224.34214 
   20050    130.75217   -1090.6649    145676.74   -39867.033    2637.4206   -42504.453    72.499483    220.81356 
   20100    130.42909   -1223.9952    145678.91   -39865.808    2630.9036   -42496.712    72.526768    220.26794 
   20150      133.207   -1134.0275    145646.68   -39859.278    2686.9372   -42546.215    72.733713    224.95926 
   20200    131.54556    -1126.649    145618.12   -39899.734    2653.4241   -42553.158    73.014688    222.15343 
   20250    131.08757   -1229.2339    145615.01   -39905.306     2644.186   -42549.492     72.84097    221.37999 
   20300    132.39093   -1040.7791    145663.14   -39869.554    2670.4761   -42540.031    73.173567    223.58108 
   20350    131.46658   -876.45675    145688.06   -39881.522    2651.8309   -42533.353    73.196033    222.02004 
   20400     133.9433   -1110.5718    145779.59   -39865.468    2701.7893   -42567.257    73.267067    226.20272 
   20450    131.80512   -1191.5366    145787.68   -39914.034    2658.6597   -42572.693    73.408727    222.59177 
   20500     131.9015   -1253.2148     145695.4   -39916.083    2660.6038   -42576.686    73.743926    222.75454 
   20550    129.63838   -1079.0235    145696.29   -39881.376    2614.9541    -42496.33    73.951884     218.9326 
   20600    132.86924   -1126.3756    145712.59   -39874.712    2680.1243   -42554.836     74.02661    224.38886 
   20650    128.82896   -1043.8355    145688.85   -39911.147    2598.6272   -42509.774    74.430584    217.56565 
   20700    130.43783   -1248.1008    145683.42   -39899.184    2631.0799   -42530.264    74.701958     220.2827 
   20750    131.07739   -1126.9814     145646.1   -39837.635    2643.9806   -42481.616    74.730561    221.36279 
   20800    133.62434     -1169.78    145665.62   -39855.916    2695.3555   -42551.272    75.014967    225.66407 
   20850    131.69437   -1239.0437    145733.18   -39878.143    2656.4258   -42534.568    75.402683    222.40474 
   20900    134.87867   -1045.5007    145798.56   -39834.172    2720.6568   -42554.829    75.667627    227.78237 
   20950    130.53207   -1284.3411    145837.03   -39826.881     2632.981   -42459.862    75.754163    220.44186 
   21000     134.3506   -1118.6495    145816.03   -39815.104    2710.0051   -42525.109    75.935903    226.89058 
   21050    133.06792   -936.02963    145851.79   -39829.617    2684.1318   -42513.748     75.81522    224.72438 
   21100    132.03937   -1167.6118    145804.98   -39869.312    2663.3849   -42532.697    76.212183    222.98738 
   21150     134.1818   -1157.7161    145817.38    -39851.07    2706.6001    -42557.67    76.530375    226.60551 
   21200    131.98009   -1208.9225    145815.16   -39903.014     2662.189   -42565.203     76.50746    222.88726 
   21250    130.75055   -1246.1642    145785.42   -39892.609    2637.3879   -42529.997     76.86248    220.81083 
   21300    130.57274   -1144.0383    145711.12   -39918.501    2633.8013   -42552.303    76.960561    220.51054 
   21350    133.51617   -1095.0605    145724.78   -39856.348    2693.1735   -42549.522    77.194351    225.48138 
   21400    132.24044   -1209.1826    145739.43   -39810.167    2667.4407   -42477.608    77.625076    223.32694 
   21450    134.85162   -1181.8014    145710.15   -39828.183     2720.111   -42548.294    77.822695    227.73668 
   21500    135.62265   -1086.2407    145645.91    -39841.83    2735.6636   -42577.494    77.942479    229.03879 
   21550    132.48558   -1053.0011    145651.31   -39864.515    2672.3853     -42536.9    78.067929    223.74093 
   21600    130.64931   -1162.7627    145607.57     -39841.2    2635.3458   -42476.546    78.518851    220.63985 
   21650    133.33876   -1211.1408    145615.69   -39800.711     2689.595   -42490.306    78.853006    225.18178 
   21700       134.08   -1285.0111    145631.08   -39774.923    2704.5466   -42479.469    78.978444    226.43358 
   21750    133.83587   -1295.3461    145624.85    -39731.03    2699.6224   -42430.652    79.128919     226.0213 
   21800    132.22539   -1206.6794    145617.33   -39769.747    2667.1371   -42436.884    79.265646    223.30153 
   21850    129.20476   -971.43695    145630.43   -39772.817    2606.2075   -42379.025    79.467427     218.2003 
   21900     136.5647   -988.21114    145688.92   -39745.852    2754.6658   -42500.518    79.545807    230.62972 
   21950    131.88574   -1133.8064    145717.05    -39791.84    2660.2859   -42452.126    79.744575    222.72792 
   22000    132.24778   -1082.2585    145665.59   -39817.973    2667.5887   -42485.561    79.919193    223.33934 
   22050    131.46508   -1350.6411    145616.56   -39793.391    2651.8008   -42445.192    80.026371    222.01752 
   22100    131.90897   -1262.2772    145458.59   -39784.564    2660.7544   -42445.318    80.113309    222.76715 
   22150    135.65355   -1164.0117    145401.99   -39825.051    2736.2869   -42561.338    80.342275    229.09098 
   22200    131.35246   -1172.3739    145414.52   -39797.029     2649.529   -42446.558    80.693808    221.82732 
   22250    133.01925   -1047.9922    145407.22   -39815.642    2683.1501   -42498.792    80.797184    224.64219 
   22300    133.70746    -1166.023     145342.6   -39826.144    2697.0321   -42523.176     80.91708    225.80444 
   22350    132.77766   -1153.4466    145302.86   -39863.287    2678.2769   -42541.564    80.997019    224.23419 
   22400    131.87523   -950.99164    145347.37   -39834.727     2660.074   -42494.801    81.177863    222.71019 
   22450    131.87163   -1105.4937    145364.36   -39827.246    2660.0013   -42487.248    80.948542     222.7041 
   22500    132.22253   -1309.0255    145370.28   -39835.771    2667.0794    -42502.85    80.914739    223.29669 
   22550    131.45198   -1156.3111    145317.82    -39895.12    2651.5366   -42546.656    80.905174     221.9954 
   22600    133.71481   -1122.9391    145359.36    -39890.59    2697.1804    -42587.77    80.823642    225.81686 
   22650     133.2474   -1144.7994    145438.32   -39829.775    2687.7522   -42517.527    81.003825    225.02749 
   22700    133.13392   -1260.1859     145393.2   -39876.562    2685.4631   -42562.025    81.171035    224.83584 
   22750    130.45098   -1196.4644    145419.94   -39849.641    2631.3452   -42480.986    81.400212    220.30491 
   22800    131.63243   -1264.7643    145367.46   -39865.519    2655.1763   -42520.695     81.66909    222.30013 
   22850    130.54122   -1215.1341    145270.36   -39888.105    2633.1655   -42521.271      81.8696    220.45731 
   22900    133.22579   -1009.0453    145319.54   -39851.509    2687.3163   -42538.825    82.005258      224.991 
   22950     134.4997   -1308.1729     145329.3   -39867.097    2713.0125   -42580.109    82.279895    227.14237 
   23000    129.99638   -1184.6689    145411.79   -39866.603    2622.1754   -42488.778     82.49783    219.53719 
   23050    131.45725   -1270.5117    145432.33   -39875.331    2651.6428   -42526.974    82.886622     222.0043 
   23100    131.91412    -1289.757    145442.87   -39858.421    2660.8584    -42519.28    83.316937    222.77586 
   23150    130.89088   -1114.3429    145451.35   -39807.691    2640.2185   -42447.909    83.403019    221.04782 
   23200    130.30764   -1020.1215    145498.81   -39879.493    2628.4538   -42507.947    83.469246    220.06283 
   23250     130.4862   -1069.5085     145508.7   -39927.226    2632.0557   -42559.281    83.434693     220.3644 
   23300    133.14227   -1092.4394    145632.11   -39900.084    2685.6316   -42585.716    83.556819    224.84995 
   23350    133.18276   -1245.2657    145610.41   -39894.081    2686.4482   -42580.529    83.632662    224.91832 
   23400    133.13416   -1344.1042    145600.13   -39903.388     2685.468   -42588.856      83.6555    224.83625 
   23450    133.69059   -1346.5363    145625.09   -39913.697    2696.6918   -42610.389    83.841106    225.77595 
   23500    131.19431   -1407.0836    145623.15   -39922.351    2646.3391    -42568.69    83.739946    221.56025 
   23550      134.438   -1265.7405    145510.69    -39865.74    2711.7679   -42577.508    83.861234    227.03817 
   23600    133.88684   -1084.0766     145537.1   -39862.977    2700.6504   -42563.627    84.046712    226.10737 
   23650    133.01976   -1154.1748    145596.13   -39851.457    2683.1603   -42534.617    84.107028    224.64305 
   23700    132.12173   -1232.5141    145595.32   -39861.519     2665.046   -42526.566    84.338098    223.12646 
   23750    133.38633   -1173.4756    145645.75   -39865.778    2690.5546   -42556.333    84.449415    225.26212 
   23800    131.42531   -1364.8032    145585.08   -39923.808    2650.9985   -42574.807    84.589954    221.95035 
   23850    133.22739   -1249.1224    145555.85   -39947.949    2687.3486   -42635.298     84.58698     224.9937 
   23900    131.80141   -991.43893    145582.03   -39950.573    2658.5848   -42609.158    84.589478     222.5855 
   23950    134.35039   -1030.6552    145681.65    -39946.68    2710.0007   -42656.681    84.668368    226.89021 
   24000    133.49581   -1098.1331    145704.38    -39857.24    2692.7629   -42550.002    84.903766      225.447 
   24050    137.14832   -1283.5299    145714.32   -39854.728    2766.4383   -42621.166    85.183429    231.61535 
   24100    135.16243   -1066.9969    145758.87   -39809.438    2726.3806   -42535.819    85.241343    228.26159 
   24150    134.24285    -1098.971    145775.29   -39826.571    2707.8316   -42534.402    85.437451    226.70861 
   24200    133.83274   -1104.3642    145770.86   -39848.475    2699.5592   -42548.034    85.781968    226.01602 
   24250    135.59617   -1063.5218    145791.84   -39855.031    2735.1295   -42590.161    86.002154    228.99408 
   24300    134.74856    -1208.518    145769.43   -39820.017    2718.0323    -42538.05    86.118902    227.56264 
   24350    132.09686   -1208.6088    145673.11   -39850.301    2664.5446   -42514.845    85.977974    223.08447 
   24400    135.06944    -1052.183    145620.76   -39855.503    2724.5047   -42580.008    86.386095    228.10454 
   24450    134.21833   -1147.6723    145555.59    -39847.63    2707.3369   -42554.967    86.591731    226.66719 
   24500    133.36288   -1000.6168    145634.86   -39852.165    2690.0814   -42542.246    86.885737     225.2225 
   24550    135.53432   -1128.3071    145629.64   -39847.728    2733.8819    -42581.61    86.945399    228.88962 
   24600    132.37827   -1275.3247    145468.15   -39856.884    2670.2208   -42527.105     87.27598    223.55971 
   24650    131.98929   -1053.6691     145386.8   -39843.041    2662.3746   -42505.416    87.428321     222.9028 
   24700    131.84051   -1165.7839    145313.71   -39865.617    2659.3735   -42524.991    87.363233    222.65154 
   24750    134.62666   -1142.6965    145349.09   -39831.563    2715.5734   -42547.136    87.449832    227.35677 
   24800    131.74185   -1164.7582    145319.35   -39848.307    2657.3835    -42505.69    87.807454    222.48492 
   24850    135.30088   -1103.6207    145296.33    -39811.73    2729.1732   -42540.903    87.939543     228.4954 
   24900    131.47378   -1236.1849    145254.73   -39837.205    2651.9762   -42489.181    88.244887    222.03221 
   24950    133.65301   -1162.0044    145219.81   -39881.013    2695.9337   -42576.947     88.35214    225.71248 
   25000    131.85609   -1090.9229    145255.92   -39916.596    2659.6879   -42576.284    88.628475    222.67786 
   25050    131.34135   -1120.1598    145255.69   -39951.738    2649.3049   -42601.043    89.143204    221.80856 
   25100    128.79574   -1371.7013    145206.59   -39932.332     2597.957   -42530.289    89.243073    217.50954 
   25150    132.88503   -962.41454    145207.52   -39885.785    2680.4427   -42566.228    89.729783    224.41552 
   25200    131.44329   -1258.7076    145283.38   -39895.684    2651.3612   -42547.045    89.977622    221.98072 
   25250    130.90429   -1179.1925    145231.37   -39904.486    2640.4889   -42544.975    89.997705    221.07046 
   25300     130.1973   -819.16021    145248.34    -39944.24    2626.2281   -42570.469    90.344553    219.87649 
   25350    133.38652   -1253.5194    145340.13   -39882.266    2690.5585   -42572.824    90.594801    225.26244 
   25400    134.58159   -1106.2424    145349.35    -39888.61    2714.6644   -42603.275    90.879146    227.28067 
   25450    132.89287   -1036.6028     145391.9   -39950.112    2680.6008   -42630.713    91.119476    224.42876 
   25500    130.97154   -867.10166    145416.63   -39901.852    2641.8455   -42543.698    91.339908    221.18403 
   25550    130.42383   -1314.4336    145432.21   -39898.839    2630.7975   -42529.637    91.704717    220.25906 
   25600    134.09302   -1160.0644    145445.53   -39904.339    2704.8093   -42609.148    91.700444    226.45557 
   25650    131.69411   -994.49253    145440.69    -39877.42    2656.4206   -42533.841    91.676095    222.40431 
   25700    134.16542   -1004.5311    145487.52   -39892.521    2706.2698   -42598.791    91.894915    226.57784 
   25750    132.67972   -1087.3866    145476.45   -39881.571    2676.3014   -42557.872    92.106107    224.06879 
   25800    132.68925   -912.33531    145529.06   -39904.052    2676.4937   -42580.546    92.144169     224.0849 
   25850    132.48685   -1211.1562    145570.26   -39920.743    2672.4111   -42593.154    92.166732    223.74309 
   25900    130.43239   -1310.6566    145517.22   -39923.715    2630.9702   -42554.685    92.463661    220.27352 
   25950    132.25003   -1158.1451    145513.13   -39888.172     2667.634   -42555.806    92.443418    223.34313 
   26000    133.01278    -1302.213    145543.39   -39854.111    2683.0195    -42537.13     92.73497    224.63126 
   26050    132.44743   -983.79931    145559.96   -39855.728    2671.6159   -42527.344    92.725734    223.67651 
   26100    133.78028   -1235.0167    145570.29   -39886.395     2698.501   -42584.896    93.158343    225.92742 
   26150    133.02506   -1226.5823    145599.47   -39870.477    2683.2674   -42553.745    93.272585    224.65201 
   26200    133.87845   -1273.5727    145642.31   -39869.013    2700.4812   -42569.495    93.284254    226.09321 
   26250    134.88488   -1128.2178    145593.94     -39808.8    2720.7821   -42529.582    93.471756    227.79287 
   26300    133.50969   -1079.2865    145555.07    -39827.13    2693.0428   -42520.173    93.562973    225.47044 
   26350    133.21558   -972.59138    145656.19   -39795.411    2687.1103   -42482.522    93.783189    224.97375 
   26400    133.93937    -1059.182    145640.91   -39817.972      2701.71   -42519.682    93.961173    226.19609 
   26450    135.36203   -1219.7733    145654.87   -39836.508    2730.4067   -42566.914    94.361541    228.59867 
   26500     133.1565   -1108.9308     145667.8   -39851.618    2685.9186   -42537.536    94.565035    224.87398 
   26550    132.26898   -1247.3583    145685.69   -39848.433    2668.0162   -42516.449    94.846518    223.37513 
   26600     131.4815   -1294.2038    145603.76   -39863.141     2652.132   -42515.272    94.860602    222.04525 
   26650    131.97468   -957.12554    145617.38   -39887.669    2662.0799   -42549.748    94.996615    222.87812 
   26700    134.90798   -1170.0335    145680.35   -39839.775     2721.248   -42561.023    95.389679    227.83187 
   26750    133.89288   -1298.0457     145591.4   -39806.392    2700.7723   -42507.165    95.791285    226.11758 
   26800    134.30366   -1224.3319    145578.17    -39769.41    2709.0581   -42478.468    95.862307     226.8113 
   26850    135.39428   -1165.2055     145549.4   -39776.845    2731.0571   -42507.902    95.826899    228.65312 
   26900    135.05925   -1109.1264    145554.57   -39768.814    2724.2993   -42493.114    95.660668    228.08734 
   26950     131.3684   -1187.4327    145514.83   -39808.042    2649.8506   -42457.893    95.804407    221.85424 
   27000    134.23983   -1132.5508    145445.43   -39808.603    2707.7707   -42516.374    95.855136     226.7035 
   27050    133.98535   -1149.7106    145428.89   -39840.232    2702.6374    -42542.87    95.927693    226.27373 
   27100    135.02682   -1303.1445    145365.94   -39814.217    2723.6451   -42537.862    96.167046    228.03257 
   27150    131.15139   -1171.4717    145332.93    -39887.02    2645.4733   -42532.493    96.306016    221.48776 
   27200    134.75428   -1141.9626    145369.34   -39890.706    2718.1477   -42608.854     96.67983     227.5723 
   27250    132.16046    -1164.581    145348.51   -39902.673    2665.8273   -42568.501     96.97623    223.19187 
   27300    133.41264   -1186.8191    145436.08   -39906.826    2691.0853   -42597.912    97.236814    225.30655 
   27350    131.48863   -1099.0822    145460.65   -39919.675    2652.2757   -42571.951    97.298204    222.05728 
   27400    132.06894     -1090.91    145565.31    -39838.97    2663.9813   -42502.951     97.29236    223.03731 
   27450    132.89265   -1057.4309    145591.34   -39855.003    2680.5964     -42535.6    97.633265    224.42838 
   27500     136.1036   -1003.7034    145647.25   -39846.668    2745.3649   -42592.032    97.731573    229.85102 
   27550    133.00098   -1120.5891    145692.13   -39883.499    2682.7816   -42566.281    97.936095    224.61134 
   27600    135.22802     -1017.91    145732.02    -39845.58    2727.7035   -42573.284    98.301417    228.37235 
   27650    132.66527   -1076.2694    145862.81   -39850.263      2676.01   -42526.273    98.455235     224.0444 
   27700    132.51281   -1373.7787     145903.7   -39867.741    2672.9347   -42540.675    98.627062    223.78692 
   27750    134.60771   -1112.0167    145927.76    -39866.94    2715.1912   -42582.132    98.879972    227.32478 
   27800     133.0177   -1278.8426    145909.35   -39923.053     2683.119   -42606.172    99.185604    224.63958 
   27850    131.26103   -1213.4616    145856.71   -39956.834    2647.6848   -42604.519     99.40895    221.67292 
   27900    132.35376   -1159.0826    145769.57   -39919.229    2669.7264   -42588.955    99.297437    223.51831 
   27950    133.71534   -1102.2444    145724.11    -39867.04    2697.1911   -42564.232    99.604538    225.81775 
   28000    132.20965   -1223.9844    145676.63   -39908.616    2666.8195   -42575.435    99.823207    223.27494 
   28050    133.63326   -1207.1287    145599.97   -39891.093    2695.5355   -42586.628    99.808407    225.67913 
   28100    134.61823   -1173.9331     145520.1   -39892.847    2715.4033    -42608.25     99.86803    227.34253 
   28150    133.63331   -1218.7524    145512.63   -39891.805    2695.5363   -42587.341    99.985801    225.67921 
   28200    134.66432   -1148.2682    145467.09   -39849.431     2716.333   -42565.764    99.917935    227.42038 
   28250     131.7156   -1195.5369     145461.6   -39890.865    2656.8541   -42547.719    100.19625     222.4406 
   28300    134.42569   -1082.0162    145403.39   -39881.618    2711.5196   -42593.138    100.53343    227.01738 
   28350    131.77317   -1116.2923    145426.28    -39910.51    2658.0152   -42568.525    100.54888    222.53782 
   28400    133.06016    -753.2511     145532.1   -39885.583    2683.9754   -42569.559    100.81747    224.71129 
   28450    134.86835   -1064.0275    145631.09   -39898.858    2720.4487   -42619.307     100.9745    227.76495 
   28500    135.01393   -971.97984    145741.22   -39936.294    2723.3851   -42659.679    101.33097    228.01079 
   28550    133.55993   -1152.9898    145823.67   -39919.666    2694.0562   -42613.722    101.51944    225.55528 
   28600    130.65595   -1218.2111    145810.55   -39909.199    2635.4797   -42544.679    101.48955    220.65107 
   28650    135.55901   -983.76422    145862.79   -39895.256    2734.3799   -42629.636    101.60385    228.93132 
   28700    135.80887   -1116.7581    145942.54    -39869.13    2739.4199    -42608.55    101.48845    229.35328 
   28750    131.42708   -1240.5658     145995.5   -39925.946    2651.0343    -42576.98    101.87264    221.95335 
   28800    134.18151   -1286.6216    145927.42    -39904.23    2706.5943   -42610.824    102.14606    226.60502 
   28850    133.92003   -922.89096    146016.29   -39872.135      2701.32   -42573.455    102.19681    226.16343 
   28900    132.85272   -1090.7316    146099.76   -39922.376    2679.7911   -42602.167    102.41406    224.36096 
   28950    135.76167   -1398.1726    146070.86   -39937.626    2738.4679   -42676.094    102.54139    229.27358 
   29000    130.38217   -988.14286    146038.05   -39978.525    2629.9572   -42608.482    102.61627    220.18871 
   29050     131.3176   -916.68948    146111.52   -39970.338     2648.826   -42619.164    102.54801    221.76846 
   29100     131.4994   -1213.2057    146108.18   -39981.303    2652.4931   -42633.797    102.89046    222.07548 
   29150    133.09962   -1107.7552    146094.49   -40022.242    2684.7714   -42707.013    102.53945    224.77793 
   29200    131.65889   -1093.0582    146087.73   -39988.147    2655.7102   -42643.858    102.55629    222.34483 
   29250    130.80306   -995.24166    146156.13   -40020.214    2638.4471   -42658.661     102.8042     220.8995 
   29300    130.08438   -1203.0907    146127.38   -40059.128    2623.9504   -42683.078    103.32482    219.68579 
   29350    131.39038   -1142.9579    146121.73   -40045.968     2650.294   -42696.262    103.44222    221.89137 
   29400    133.63029   -1129.0672    146127.55    -40032.46    2695.4755   -42727.935      103.589    225.67411 
   29450    131.03043   -1175.7586    146140.62   -40066.002    2643.0333   -42709.035    103.78957    221.28348 
   29500    128.57751   -1173.9639    146162.43   -40097.393    2593.5552   -42690.948    103.81372    217.14101 
   29550    130.22687   -1135.4352    146112.42   -40117.148    2626.8246   -42743.973    103.93261    219.92643 
   29600    131.68069    -1078.063    146116.05   -40091.868    2656.1498   -42748.018    103.96924    222.38163 
   29650     129.9945    -1106.919    146159.43   -40068.295    2622.1374   -42690.433    104.29884    219.53401 
   29700    132.31951   -1150.7449    146183.58   -40042.566    2669.0356   -42711.602    104.43999    223.46048 
   29750    131.57938   -1193.4923    146187.48   -40078.207    2654.1064   -42732.313      104.604    222.21055 
   29800    132.86649   -1397.7904    146158.93   -40076.714    2680.0688   -42756.783    104.80314    224.38421 
   29850    131.92604   -919.13813    146174.29    -40020.08    2661.0988   -42681.179    104.93098    222.79598 
   29900    132.22265   -1269.1482    146148.93   -40115.925    2667.0819   -42783.006    105.32172    223.29691 
   29950    132.38249   -1186.8864    146035.17   -40065.471    2670.3059   -42735.776    105.35809    223.56683 
   30000     131.3656   -1162.7724    146037.76   -40012.065     2649.794   -42661.859    105.34774    221.84951 
   30050    132.24345   -1085.4957    145984.63   -39994.527    2667.5013   -42662.028    105.57028    223.33202 
   30100    133.95732   -1238.1098    145919.28   -40020.563     2702.072   -42722.635    105.57772    226.22639 
   30150    136.16188   -1111.6073    145866.31   -39955.187    2746.5406   -42701.728    105.69737    229.94945 
   30200    136.32088    -1242.871    145796.33   -39943.028    2749.7479   -42692.776    105.74519    230.21797 
   30250    135.88108   -1025.4642     145778.4   -39954.315    2740.8764   -42695.191    106.05636    229.47523 
   30300    131.28393    -1139.631    145823.69   -39954.429    2648.1468   -42602.576     106.0371     221.7116 
   30350    136.67552   -1094.0116    145802.95   -40022.217    2756.9012   -42779.118    105.95673    230.81687 
   30400    134.19776   -1034.1549    145831.86   -40020.806    2706.9221   -42727.728    106.11618    226.63246 
   30450    131.13701   -1080.8245    145802.96   -40056.974    2645.1833   -42702.158    106.38552    221.46348 
   30500    134.17436   -990.40239    145894.65   -40040.231    2706.4499   -42746.681     106.6395    226.59293 
   30550    132.27402   -1023.2624    145876.71   -40030.899    2668.1179   -42699.016    106.67729    223.38365 
   30600    133.30423   -1095.2856    145890.92   -39986.363    2688.8986   -42675.262    106.74335    225.12347 
   30650    136.42204    -1036.021    145978.83   -39939.774    2751.7883   -42691.562    107.13887     230.3888 
   30700    133.29152   -1274.6052     145954.4   -39990.197    2688.6421   -42678.839    107.28823      225.102 
   30750    130.67241   -1020.6295    145968.93   -40020.144    2635.8117   -42655.956    107.44586    220.67886 
   30800    132.10278   -1204.0863     146031.1   -40021.063    2664.6639   -42685.727    107.51505    223.09447 
   30850    132.69907   -1078.4626    145996.96   -40011.815    2676.6917   -42688.507    107.56059    224.10148 
   30900    133.21018   -1085.7095    146011.44   -39969.804    2687.0014   -42656.805    107.79023    224.96464 
   30950    133.18709   -1286.1054    146031.07   -39971.369    2686.5356   -42657.904    107.89662    224.92563 
   31000    133.99263   -1091.2055    145981.64   -39921.827    2702.7843   -42624.611    107.81791    226.28603 
   31050    135.07339   -1081.2971    145911.14   -39947.833    2724.5845   -42672.417    107.81853    228.11121 
   31100    132.00435   -1103.2449    145889.26   -39954.343    2662.6784   -42617.021    107.94071    222.92823 
   31150    133.97147   -1018.4434    145941.91   -39941.997    2702.3576   -42644.355    108.22275     226.2503 
   31200    134.33936   -1312.5387       146008   -39906.963    2709.7782   -42616.742    108.39063    226.87158 
   31250    133.28051   -1113.7086    145835.89   -39910.488      2688.42   -42598.908    108.40869    225.08341 
   31300    132.68437   -1088.2162    145825.98   -39923.556    2676.3953   -42599.951    108.37132    224.07665 
   31350    135.19206   -1174.4221     145741.3   -39904.953    2726.9782   -42631.931    108.44088    228.31162 
   31400    133.95008   -1188.2216    145680.42   -39930.808     2701.926   -42632.734    108.56225    226.21417 
   31450    134.46586   -1343.9884     145634.2   -39944.262      2712.33   -42656.592    108.65141    227.08523 
   31500    133.06531    -947.5885    145549.22   -39964.767    2684.0793   -42648.846    108.88854    224.71999 
   31550    131.88829   -1124.3091    145531.15   -39977.532    2660.3373   -42637.869    108.78253    222.73223 
   31600    129.50604   -1021.4078    145443.58   -40022.299    2612.2847   -42634.584    108.88776    218.70911 
   31650    130.76262     -1108.01    145424.09   -40040.504    2637.6313   -42678.136    108.59364     220.8312 
   31700    130.80353   -973.52597    145393.02   -40065.608    2638.4566   -42704.065    108.50234     220.9003 
   31750    133.52815   -885.93208    145443.73   -40022.311    2693.4152   -42715.726    108.54177    225.50162 
   31800    134.34852   -939.34436    145532.24   -39979.821    2709.9631   -42689.784    108.84958    226.88706 
   31850    132.56943   -956.70465    145537.79    -39997.63    2674.0768   -42671.707    109.24221    223.88255 
   31900    133.24002   -1009.5534     145590.6   -39978.683    2687.6033   -42666.286    109.06725    225.01503 
   31950    131.47261   -1025.6597    145662.13   -39920.581    2651.9526   -42572.533    109.31698    222.03023 
   32000    133.05475   -1057.9418    145641.14   -39952.244    2683.8662    -42636.11     109.5399    224.70215 
   32050    134.21618   -1022.2733     145682.6   -39973.968    2707.2935   -42681.261    109.48851    226.66356 
   32100    132.23968   -1108.3844    145710.17   -39985.371    2667.4254   -42652.796    109.81858    223.32567 
   32150    132.10194   -997.16189    145645.55   -39943.838     2664.647   -42608.485    109.97857    223.09305 
   32200    133.32665   -1115.4194    145658.63   -39906.737    2689.3507   -42596.088    110.14212    225.16133 
   32250    134.82782   -1141.9162    145721.81   -39876.324    2719.6311   -42595.955    110.44389     227.6965 
   32300    132.87696   -824.55328    145786.24   -39858.407    2680.2799   -42538.686     110.5578    224.40189 
   32350    134.71429   -1078.8206    145835.65    -39894.05    2717.3409   -42611.391    110.94399    227.50476 
   32400    133.23578   -1049.7078    145822.58    -39923.73    2687.5177   -42611.247    111.09183    225.00786 
   32450    131.92089   -1244.4425    145821.52   -39923.291     2660.995   -42584.286    111.35414    222.78729 
   32500    134.67333   -1090.5022    145812.05   -39906.364    2716.5148   -42622.879    111.54485     227.4356 
   32550    133.14154   -1206.4577    145795.86   -39913.303    2685.6168    -42598.92    111.64601    224.84871 
   32600    134.21738   -1223.3648    145738.22     -39918.9    2707.3178   -42626.218    112.15874    226.66559 
   32650     130.9914   -1336.3585    145715.08   -39936.094    2642.2462    -42578.34    112.14901    221.21758 
   32700    133.69492   -980.77305    145740.96   -39919.011    2696.7791    -42615.79    112.21795    225.78325 
   32750    131.85313   -995.30453    145760.22   -39905.912    2659.6282    -42565.54    112.39553    222.67286 
   32800    131.71187   -999.54462    145752.65   -39947.574    2656.7787   -42604.353    112.36885    222.43429 
   32850    131.59784   -1106.6585    145810.48   -39964.468    2654.4786   -42618.947    112.62227    222.24172 
   32900     133.7637   -1160.6587    145810.66   -39934.706    2698.1665   -42632.873    113.05207    225.89941 
   32950    131.62404   -1204.8518    145758.46   -39940.176    2655.0071   -42595.183    113.38583    222.28596 
   33000    135.66867   -1094.6385    145687.87   -39899.292    2736.5919   -42635.883    113.50791    229.11651 
   33050    134.56647   -1185.7942    145669.68   -39928.466    2714.3593   -42642.825     113.7952    227.25512 
   33100    134.70651   -1223.0019    145609.63   -39873.069     2717.184   -42590.253    113.74727    227.49162 
   33150    133.46947   -1163.4083    145522.62    -39886.35    2692.2316   -42578.581    113.85748    225.40252 
   33200    134.42062   -1172.4832    145512.22   -39885.463    2711.4174    -42596.88    114.37449    227.00882 
   33250    134.88362   -1189.0766    145492.55   -39896.881    2720.7567   -42617.638    114.37224    227.79074 
   33300     135.2211   -1080.7249    145492.21   -39877.555    2727.5639   -42605.119    114.52402    228.36066 
   33350    133.77493   -1155.3075    145520.06   -39920.153    2698.3931   -42618.546    114.64003    225.91838 
   33400    130.82259   -1079.6669    145552.18   -39961.238    2638.8411   -42600.079    114.81135    220.93249 
   33450    130.37078   -1128.1647    145534.36   -39976.647    2629.7274   -42606.374    115.01016    220.16946 
   33500    131.91771   -1231.0305    145539.27   -39973.526    2660.9308   -42634.457    115.40145    222.78192 
   33550    132.76965   -1181.7718    145483.89   -39951.981    2678.1155   -42630.097    115.87871    224.22067 
   33600    133.93867   -1208.1697    145465.77   -39942.972    2701.6959   -42644.668    115.96218     226.1949 
   33650    131.25039   -1006.1578       145367   -39974.433    2647.4701   -42621.903     116.1429    221.65494 
   33700     132.2093   -1093.2846       145284   -39991.903    2666.8125   -42658.716    116.08071    223.27435 
   33750    132.12856    -1302.147     145271.2   -39984.902     2665.184   -42650.086    116.36408    223.13801 
   33800     132.0671    -1100.186    145215.05    -39956.92    2663.9441   -42620.865    116.50786     223.0342 
   33850    131.87243   -1005.2141    145249.12   -39971.365    2660.0174   -42631.383    116.36494    222.70544 
   33900    133.73546   -1081.2053    145259.59    -39959.54     2697.597   -42657.136    116.69696    225.85173 
   33950    133.24579   -936.78001    145379.51   -39977.858    2687.7197   -42665.578    116.77142    225.02477 
[...]
   92000    134.71026    -1364.286     145958.4   -39902.328    2717.2597   -42619.588    265.14172    227.49796 
   92050    132.71183   -1113.2539    145955.31   -39929.355    2676.9491   -42606.304    265.22814    224.12302 
   92100    132.05709   -1243.9994    145988.81   -39879.042    2663.7423   -42542.784    265.21014    223.01731 
   92150    131.08116   -1140.8124    145990.53   -39925.025    2644.0566   -42569.082    265.25453    221.36916 
   92200    132.80165   -1246.0646     145968.9   -39891.365    2678.7609   -42570.126    265.67262    224.27471 
   92250    134.22683   -1153.4885    146024.07   -39915.646    2707.5083   -42623.154    265.72926    226.68154 
   92300    132.42334    -1214.134    146096.01   -39918.044    2671.1299   -42589.174    266.36236    223.63582 
   92350    131.89577   -1171.8249    146089.47   -39942.451    2660.4882   -42602.939    266.38948    222.74486 
   92400    132.87166   -1026.9042     146100.3   -39913.501    2680.1731   -42593.674    266.41678    224.39294 
   92450    133.21399   -1244.0495    146093.26    -39885.07    2687.0782   -42572.148    266.49736    224.97106 
   92500    130.32533    -1113.819    146117.58    -39913.09    2628.8108   -42541.901    266.76361    220.09272 
   92550    131.43876   -1400.9839    146082.73   -39946.678    2651.2698   -42597.947    266.48551    221.97306 
   92600     131.6147   -1102.8543    146091.25   -39916.906    2654.8188   -42571.725     266.8162     222.2702 
   92650    132.37963   -1154.0955    146172.64   -39917.655    2670.2484   -42587.903    267.30459    223.56201 
   92700    135.68288   -1218.8264    146148.35   -39873.262    2736.8787    -42610.14     267.4297    229.14052 
   92750     133.8858   -1298.6114    146146.67   -39830.252    2700.6293   -42530.881    267.50982    226.10561 
   92800    133.10305   -1173.4942    146134.74   -39817.562    2684.8404   -42502.403    267.99502    224.78371 
   92850    133.37495   -1262.0782    146174.28   -39825.785     2690.325    -42516.11    268.30354    225.24289 
   92900     133.2898   -1225.5565    146100.74   -39864.176    2688.6074   -42552.783    268.58531    225.09909 
   92950    134.22257   -1030.9365    146147.34   -39885.732    2707.4224   -42593.154    268.64109    226.67435 
   93000    133.47995   -1229.6943     146075.6    -39886.55     2692.443   -42578.993    268.76663    225.42022 
   93050    133.63919   -1165.5146    146042.11   -39944.537     2695.655   -42640.192     268.9419    225.68914 
   93100    132.25675   -1284.5197    146020.93   -39953.121    2667.7695   -42620.891    268.68736    223.35448 
   93150    132.86197   -1183.6659    146031.58   -39913.096    2679.9777   -42593.074    268.87133    224.37659 
   93200    132.60795   -1221.7876    146017.46   -39907.317    2674.8538   -42582.171    269.31265     223.9476 
   93250    135.46194   -1038.0572    145974.09   -39885.014     2732.422   -42617.436    269.09665     228.7674 
   93300    132.09514   -1186.7258    145996.14   -39897.661    2664.5097   -42562.171    269.64002    223.08155 
   93350     133.6408   -1331.9417     145981.3   -39928.871    2695.6874   -42624.558    269.86528    225.69185 
   93400    134.93227   -1122.1541    145965.21   -39865.327     2721.738   -42587.065    270.14585     227.8729 
   93450    133.99846    -1213.869    145929.88   -39868.897    2702.9019   -42571.799    270.43259    226.29588 
   93500    133.16603   -1241.4247    145876.61    -39811.73    2686.1108   -42497.841    270.49112    224.89007 
   93550    135.32949   -1261.2053    145822.62   -39803.917    2729.7502   -42533.667     270.6153    228.54371 
   93600     131.1666    -1161.667    145762.23   -39879.753      2645.78   -42525.533    270.70149    221.51344 
   93650    132.38268   -1176.9419    145756.66   -39840.461    2670.3098   -42510.771    271.24535    223.56715 
   93700    132.17065   -1324.0816    145675.65   -39864.692    2666.0329   -42530.725    271.31764    223.20908 
   93750    133.63238   -1229.9551    145656.72   -39900.345    2695.5176   -42595.862    271.45923    225.67764 
   93800     132.9338    -1262.558    145669.17   -39881.453    2681.4264    -42562.88    271.32354    224.49788 
   93850    131.57823   -1204.4596     145641.4   -39836.219     2654.083   -42490.302    271.20218     222.2086 
   93900    135.77567   -967.56424    145727.86   -39827.275    2738.7503   -42566.026    271.17009    229.29722 
   93950    131.16596   -1244.0386     145832.5   -39852.352    2645.7672    -42498.12    271.36906    221.51237 
   94000    135.24687   -1166.3646    145792.79   -39867.478    2728.0837   -42595.561    271.34512    228.40418 
   94050    134.11946   -1290.6358    145850.28   -39898.548    2705.3427   -42603.891    271.40922    226.50022 
   94100     135.0055   -1142.7259    145806.67   -39870.291     2723.215   -42593.506    271.78236    227.99655 
   94150     133.9065   -1057.3956    145806.59    -39857.29    2701.0469   -42558.337    272.13017    226.14057 
   94200    131.18436   -972.89322     145853.9   -39938.799    2646.1382   -42584.937    272.30864    221.54343 
   94250     130.6574   -1073.4196    145876.91   -39886.338     2635.509   -42521.847    272.51921    220.65352 
   94300    133.18481   -1098.5269    145937.53   -39875.905    2686.4897   -42562.395    272.52655     224.9218 
   94350    133.96794   -1204.5777    145981.96   -39892.433    2702.2862   -42594.719     272.4572    226.24433 
   94400    133.26902   -1047.5591     146044.4    -39873.18    2688.1883   -42561.368    272.58368      225.064 
   94450    132.60474   -1170.8801    146081.04   -39868.638     2674.789   -42543.427    272.77618    223.94217 
   94500    131.97154   -1286.9455    146059.33   -39908.479    2662.0166   -42570.496    272.98349    222.87282 
   94550    133.29914   -1155.5522    146036.65   -39893.848    2688.7959   -42582.643    273.38224    225.11488 
   94600    131.10672   -1291.8556    146078.59   -39865.742    2644.5723   -42510.314    273.48614    221.41233 
   94650    129.59555   -1165.4932    146095.89   -39840.381    2614.0902   -42454.471    273.72185    218.86027 
   94700    132.12434   -1317.2091    146130.25   -39868.115    2665.0988   -42533.214    273.86703    223.13088 
   94750    133.22634   -1126.2702    146111.51   -39848.076    2687.3274   -42535.403    273.71446    224.99192 
   94800     131.6318   -1242.1826    146097.84   -39845.156    2655.1637    -42500.32    274.36668    222.29907 
   94850    131.52822   -1298.5037    146052.67   -39856.357    2653.0744   -42509.431    275.04139    222.12416 
   94900    131.97577   -1347.3735    146022.05   -39894.712     2662.102   -42556.814    275.18204    222.87997 
   94950    130.04485    -1240.374    146059.95   -39919.991     2623.153   -42543.144    275.34463    219.61904 
   95000    133.37768   -1261.6204    146009.39   -39844.177    2690.3801   -42534.557    275.55228    225.24751 
   95050    135.61223   -1315.0905    146039.33   -39787.702    2735.4535   -42523.155     275.5301     229.0212 
   95100    134.73428   -1192.1489    146070.52   -39782.997    2717.7442   -42500.741    275.14951    227.53852 
   95150     134.7336   -1120.2654    146105.94   -39771.005    2717.7306   -42488.735    275.18782    227.53739 
   95200    135.69433   -1131.9306    146065.41   -39774.974    2737.1096   -42512.083    274.86709    229.15986 
   95250    133.93638   -1357.4856    146034.15   -39837.045    2701.6497   -42538.695    274.91813    226.19104 
   95300    132.95778   -1220.9255    146017.21    -39812.67    2681.9102    -42494.58    275.44999    224.53838 
   95350    134.35449   -1092.6154    146069.44   -39868.684    2710.0835   -42578.767    275.73254    226.89714 
   95400    129.61211   -1263.4143    145994.75   -39916.174    2614.4243   -42530.598    275.57857    218.88824 
   95450    132.47911   -1117.3427    146001.02   -39901.993    2672.2548   -42574.247    275.77952       223.73 
   95500    133.11896   -1143.6387    146039.99   -39905.239    2685.1614   -42590.401    276.13207    224.81058 
   95550    134.54455   -1229.4973    146111.05   -39840.596    2713.9171   -42554.513    276.29876     227.2181 
   95600    135.82718   -1230.8084     146112.2   -39850.134    2739.7893   -42589.923    276.34551    229.38421 
   95650    134.50147   -1103.1969    146205.75   -39823.491    2713.0481   -42536.539    276.76006    227.14535 
   95700    132.78164   -939.41833       146244   -39809.262    2678.3572    -42487.62    276.72469    224.24091 
   95750    134.54612   -1083.7161    146254.68   -39809.923    2713.9488   -42523.871    276.42883    227.22076 
   95800    134.69651   -1202.7663    146279.72   -39781.619    2716.9825   -42498.601    276.14851    227.47475 
   95850    137.92981   -1120.8861    146218.99   -39728.248    2782.2018   -42510.449    276.40651    232.93512 
   95900    136.55255   -1186.1774    146253.67   -39697.465    2754.4208   -42451.886    276.38565    230.60921 
   95950    137.05721   -1278.8742    146264.11   -39754.954    2764.6004   -42519.555    276.59145    231.46148 
   96000    136.02107   -1277.0189    146195.98   -39742.199    2743.7002   -42485.899    277.22796    229.71165 
   96050    136.53525   -1225.7094    146199.19   -39753.703    2754.0719   -42507.775    277.57878       230.58 
   96100    135.26535   -1223.7005    146121.12   -39774.516    2728.4566   -42502.973    277.88218     228.4354 
   96150    134.19761   -1170.4342    146125.77   -39788.426    2706.9191   -42495.345    277.78976    226.63221 
   96200    135.02484   -1104.2276    146054.43   -39792.994    2723.6052   -42516.599    277.74452    228.02923 
   96250    134.32032   -1059.3387    146038.23   -39837.966    2709.3942   -42547.361      277.726    226.83943 
   96300    135.32671   -1274.5274    146093.67   -39874.249    2729.6943   -42603.944    277.45234    228.53902 
   96350    134.51415   -1233.0743    146047.48   -39887.362    2713.3039   -42600.666    277.74496    227.16677 
   96400    134.76523   -1112.2117    146002.25   -39860.752    2718.3685    -42579.12    277.76222    227.59079 
   96450    133.59196   -1123.5285    146045.27   -39867.376    2694.7023   -42562.078    277.87717    225.60938 
   96500    134.68137    -1117.616    146026.49   -39814.307     2716.677   -42530.984    277.76848    227.44917 
   96550    132.88013   -1169.5559    146065.44   -39820.969    2680.3439   -42501.313    277.85087    224.40725 
   96600    133.64731    -1014.644    146055.06   -39785.254    2695.8188   -42481.072    277.76623    225.70285 
   96650     134.6641   -1221.3432     146032.8   -39744.439    2716.3286   -42460.767    278.51019       227.42 
   96700    133.80863   -1240.1149    145927.72   -39744.672    2699.0728   -42443.744    278.45685    225.97529 
   96750    134.08743   -1291.1851       145828   -39795.796    2704.6965   -42500.493     278.4968    226.44613 
   96800    132.74634   -1211.9529    145828.39    -39822.65    2677.6452   -42500.296    278.92643     224.1813 
   96850    131.94284   -1109.6831    145770.11   -39801.728    2661.4378   -42463.166    278.79001    222.82436 
   96900    133.03122   -1249.0099    145797.36   -39805.849    2683.3915   -42489.241    278.90738     224.6624 
   96950    132.65632   -1172.4224    145754.85   -39757.603    2675.8293   -42433.432    279.32042    224.02927 
   97000    134.33167   -1005.1107    145779.49   -39787.461    2709.6232   -42497.085    279.64193    226.85861 
   97050    133.62326   -1077.7781    145795.74   -39821.921    2695.3337   -42517.254    279.88375    225.66225 
   97100     135.7015   -1295.7355    145800.15   -39796.486    2737.2543    -42533.74    279.94179    229.17197 
   97150     133.9145   -1151.5571    145832.33   -39784.371    2701.2084   -42485.579    280.07632    226.15409 
   97200    132.71131   -1233.7278    145844.02   -39741.089    2676.9386   -42418.028    279.82438    224.12214 
   97250    133.57174   -1138.9038     145831.3   -39761.971    2694.2946   -42456.265    279.77422    225.57524 
   97300    135.10542   -1202.7871    145794.58   -39733.148    2725.2307   -42458.379    280.16597    228.16531 
   97350    134.83965   -1065.0876    145838.86   -39704.183    2719.8698   -42424.053    280.57146    227.71648 
   97400     134.2157   -1139.3883    145858.21    -39764.12    2707.2839   -42471.404    280.63255    226.66276 
   97450    135.97978   -1025.0665     145868.7   -39738.673    2742.8675    -42481.54    280.44149    229.64193 
   97500    134.54468   -908.35358     145967.7   -39765.504    2713.9197   -42479.423    280.30156    227.21833 
   97550    134.44889   -1161.1891    146022.76   -39785.702    2711.9877    -42497.69     280.9102    227.05657 
   97600    132.91135   -1079.0918    146005.12   -39789.496    2680.9736    -42470.47    281.02659    224.45997 
   97650    133.72503   -1250.2972    146055.95   -39815.477    2697.3866   -42512.863    281.50891    225.83412 
   97700    131.21288   -1095.5121    146076.82   -39809.075    2646.7137   -42455.788    281.71555    221.59161 
   97750    130.83956   -1230.1481    146059.34    -39807.35    2639.1833   -42446.533    281.67123    220.96114 
   97800    133.08069   -1080.8132    146089.74   -39835.801    2684.3895    -42520.19    281.80887    224.74596 
   97850    134.87583   -1168.3935    146143.85   -39801.841    2720.5994   -42522.441    281.96803    227.77757 
   97900     130.6699   -1380.0233    146147.73   -39839.825     2635.761   -42475.586    282.12055    220.67462 
   97950     133.1883   -1342.9386     146154.4   -39850.079      2686.56   -42536.639    282.28021    224.92768 
   98000    130.23823   -1140.1372    146218.84   -39839.837    2627.0537    -42466.89    282.18351    219.94561 
   98050    134.05655   -1199.3141    146207.01   -39825.041    2704.0737   -42529.115    282.62334    226.39398 
   98100    132.69436   -1088.3092    146195.06   -39787.952    2676.5967   -42464.548    282.76782    224.09352 
   98150    131.88369   -1102.0709    146148.39   -39807.846    2660.2445   -42468.091    282.48255    222.72446 
   98200    134.63695   -1300.4796    146127.55   -39813.013     2715.781   -42528.794    282.74012    227.37416 
   98250    132.51077   -1133.8061    146032.42   -39798.685    2672.8936   -42471.578    282.56008    223.78348 
   98300    132.45213   -1071.7259    146022.07   -39858.292    2671.7107   -42530.002    282.98791    223.68445 
   98350    131.54984   -1024.0305    145972.43    -39887.35    2653.5104    -42540.86    283.08852    222.16065 
   98400    132.72564   -1052.3281    145975.74   -39877.854    2677.2277   -42555.081    283.28769    224.14634 
   98450    133.52114   -1316.6526    145898.16    -39885.76    2693.2739   -42579.034    283.50864    225.48979 
   98500    132.05966   -1107.0714    145867.78   -39897.617     2663.794   -42561.411    283.55256    223.02163 
   98550    132.69738   -983.39647     145935.2    -39900.09    2676.6576   -42576.748    283.79007    224.09862 
   98600    130.82744   -1291.4484    145934.62   -39890.163    2638.9389   -42529.102    283.58316    220.94068 
   98650    134.59469   -1032.4044    146023.47   -39843.718    2714.9285   -42558.647    283.82913    227.30278 
   98700     132.1397   -1189.1552    146008.65   -39865.898    2665.4086   -42531.307    283.80893    223.15681 
   98750     131.5846   -1210.5636     145993.8   -39878.327    2654.2116   -42532.538     283.8709    222.21936 
   98800    131.96132   -1218.1126    145985.81   -39898.075    2661.8104   -42559.885    283.82446    222.85556 
   98850    135.11857   -1240.1573     146011.4   -39859.875    2725.4958   -42585.371    283.85729    228.18751 
   98900    134.35841   -1180.5634    146079.28   -39837.834    2710.1626   -42547.996    284.01966    226.90376 
   98950    134.21836   -1094.9408    146155.22   -39825.764    2707.3376   -42533.102    284.50291    226.66725 
   99000     132.5794   -1261.8452    146161.38   -39847.841    2674.2779   -42522.119    284.83724    223.89938 
   99050    133.32149   -1196.0152    146145.64   -39844.957    2689.2466   -42534.203    284.72748    225.15261 
   99100    133.66347   -1327.6034     146096.1   -39818.456    2696.1447   -42514.601    284.97913    225.73014 
   99150    134.38951   -1109.4015    146056.14   -39834.667    2710.7898   -42545.457      285.076    226.95628 
   99200    136.68568   -1251.1606    146090.77   -39858.449    2757.1063   -42615.555    285.05205    230.83404 
   99250    133.08051   -954.96655    146124.89   -39847.632    2684.3858   -42532.018    285.21975    224.74565 
   99300    134.38548   -1238.4991    146224.78   -39829.975    2710.7086   -42540.683    285.24524    226.94948 
   99350    132.74244   -1171.2589    146116.26   -39857.734    2677.5666     -42535.3    285.40725    224.17472 
   99400     133.5066   -1183.6979    146106.02   -39839.705    2692.9804   -42532.685    285.57328    225.46522 
   99450    130.34344    -1097.964    146148.38   -39884.415     2629.176   -42513.591    285.28502     220.1233 
   99500    133.28025   -1227.0192    146136.25   -39850.876    2688.4148   -42539.291    285.10776    225.08297 
   99550    131.95727   -1301.8832    146111.16   -39859.087    2661.7288   -42520.816    284.91444    222.84873 
   99600    132.43691   -1143.9409    146116.76   -39872.571    2671.4036   -42543.975    284.99285    223.65873 
   99650     132.7289   -1185.7601    146075.48   -39862.003    2677.2934   -42539.297    285.05239    224.15185 
   99700    131.42379   -1245.0713    146056.58   -39869.542    2650.9679    -42520.51    285.03707    221.94779 
   99750    132.72888   -1232.7833    146045.51   -39903.499    2677.2931   -42580.792    285.52774    224.15182 
   99800    134.32202    -1241.002    146073.67   -39893.283    2709.4285   -42602.711     285.6596    226.84231 
   99850    131.58864   -1284.5736     146071.1   -39943.731    2654.2931   -42598.024    285.92956    222.22619 
   99900    133.85951   -1176.4871    146014.87   -39969.193    2700.0992   -42669.292    285.81857    226.06122 
   99950    135.64269   -1255.6299    146022.82   -39910.806     2736.068   -42646.874    285.76312    229.07265 
  100000    133.00514    -1077.234    146039.23   -39907.938    2682.8656   -42590.803    285.83941    224.61837 
Loop time of 318.277 on 40 procs for 100000 steps with 6768 atoms

Performance: 135.731 ns/day, 0.177 hours/ns, 314.192 timesteps/s
99.6% CPU use with 40 MPI tasks x no OpenMP threads

MPI task timing breakdown:
Section |  min time  |  avg time  |  max time  |%varavg| %total
---------------------------------------------------------------
Pair    | 50.092     | 134.15     | 257.37     | 637.9 | 42.15
Neigh   | 1.9378     | 4.0563     | 11.175     | 164.2 |  1.27
Comm    | 36.003     | 120.52     | 150.96     | 338.7 | 37.87
Output  | 0.17201    | 0.178      | 0.27597    |   3.7 |  0.06
Modify  | 8.0811     | 57.959     | 128.04     | 736.6 | 18.21
Other   |            | 1.419      |            |       |  0.45

Nlocal:    169.2 ave 388 max 111 min
Histogram: 32 0 0 0 0 0 0 0 3 5
Nghost:    1273.33 ave 1618 max 857 min
Histogram: 16 0 0 0 0 0 0 0 16 8
Neighs:    0 ave 0 max 0 min
Histogram: 40 0 0 0 0 0 0 0 0 0
FullNghs:  19906.7 ave 70131 max 6813 min
Histogram: 32 0 0 0 0 0 0 0 3 5

Total # of neighbors = 796266
Ave neighs/atom = 117.652
Neighbor list builds = 6127
Dangerous builds = 0

write_data		${DIR}/data.eq-${NAME}-${TEMP}
write_data		run_12/data.eq-${NAME}-${TEMP}
write_data		run_12/data.eq-het_freeze_12-${TEMP}
write_data		run_12/data.eq-het_freeze_12-225
undump          1

reset_timestep  0

unfix           2
unfix           3
unfix           4


################################################
#######         Run Simulation         #########
################################################

log				${DIR}/log.run_${NAME}
log				run_12/log.run_${NAME}
log				run_12/log.run_het_freeze_12
