LAMMPS data file via write_data, version 16 Mar 2018, timestep = 8000000

4537 atoms
2 atom types

0.0000000000000000e+00 4.9219999999999999e+01 xlo xhi
0.0000000000000000e+00 4.9019635930410494e+01 ylo yhi
8.2428793327918015e-01 3.3115712066702912e+01 zlo zhi

Masses

1 18.015
2 12.01

Atoms # atomic

96 2 0.0000000000000000e+00 2.8417180249513345e+00 2.5623092454059919e+00 0 0 0
98 2 0.0000000000000000e+00 0.0000000000000000e+00 2.5623092454059919e+00 0 0 0
100 2 1.2305000000000001e+00 7.1042950623783474e-01 2.5623092454059919e+00 0 0 0
107 2 1.2305000000000001e+00 2.1312885187134998e+00 2.5623092454059919e+00 0 0 0
109 2 2.4610000000000003e+00 2.8417180249513345e+00 2.5623092454059919e+00 0 0 0
111 2 2.4610000000000003e+00 0.0000000000000000e+00 2.5623092454059919e+00 0 0 0
113 2 3.6915000000000004e+00 7.1042950623783474e-01 2.5623092454059919e+00 0 0 0
128 2 3.6914999999999996e+00 2.1312885187134998e+00 2.5623092454059919e+00 0 0 0
130 2 4.9220000000000006e+00 2.8417180249513332e+00 2.5623092454059919e+00 0 0 0
132 2 4.9220000000000006e+00 0.0000000000000000e+00 2.5623092454059919e+00 0 0 0
134 2 6.1524999999999999e+00 7.1042950623783407e-01 2.5623092454059919e+00 0 0 0
157 2 6.1524999999999999e+00 2.1312885187134989e+00 2.5623092454059919e+00 0 0 0
159 2 7.3829999999999991e+00 2.8417180249513345e+00 2.5623092454059919e+00 0 0 0
161 2 7.3829999999999991e+00 0.0000000000000000e+00 2.5623092454059919e+00 0 0 0
163 2 8.6134999999999984e+00 7.1042950623783407e-01 2.5623092454059919e+00 0 0 0
194 2 8.6134999999999984e+00 2.1312885187135002e+00 2.5623092454059919e+00 0 0 0
103 2 0.0000000000000000e+00 4.2625770374269996e+00 2.5623092454059919e+00 0 0 0
105 2 1.2305000000000001e+00 4.9730065436648339e+00 2.5623092454059919e+00 0 0 0
120 2 1.2305000000000001e+00 6.3938655561404980e+00 2.5623092454059919e+00 0 0 0
124 2 2.4610000000000003e+00 4.2625770374269996e+00 2.5623092454059919e+00 0 0 0
126 2 3.6914999999999996e+00 4.9730065436648339e+00 2.5623092454059919e+00 0 0 0
149 2 3.6914999999999996e+00 6.3938655561404980e+00 2.5623092454059919e+00 0 0 0
101 2 0.0000000000000000e+00 7.1042950623783341e+00 2.5623092454059919e+00 0 0 0
122 2 2.4610000000000003e+00 7.1042950623783341e+00 2.5623092454059919e+00 0 0 0
153 2 4.9220000000000006e+00 4.2625770374269978e+00 2.5623092454059919e+00 0 0 0
155 2 6.1524999999999999e+00 4.9730065436648339e+00 2.5623092454059919e+00 0 0 0
186 2 6.1524999999999999e+00 6.3938655561404980e+00 2.5623092454059919e+00 0 0 0
190 2 7.3829999999999991e+00 4.2625770374269996e+00 2.5623092454059919e+00 0 0 0
192 2 8.6135000000000002e+00 4.9730065436648339e+00 2.5623092454059919e+00 0 0 0
231 2 8.6135000000000002e+00 6.3938655561404980e+00 2.5623092454059919e+00 0 0 0
151 2 4.9220000000000006e+00 7.1042950623783341e+00 2.5623092454059919e+00 0 0 0
188 2 7.3830000000000009e+00 7.1042950623783341e+00 2.5623092454059919e+00 0 0 0
116 2 0.0000000000000000e+00 8.5251540748539991e+00 2.5623092454059919e+00 0 0 0
118 2 1.2305000000000001e+00 9.2355835810918343e+00 2.5623092454059919e+00 0 0 0
145 2 2.4610000000000003e+00 8.5251540748539991e+00 2.5623092454059919e+00 0 0 0
147 2 3.6915000000000004e+00 9.2355835810918343e+00 2.5623092454059919e+00 0 0 0
114 2 0.0000000000000000e+00 1.1366872099805333e+01 2.5623092454059919e+00 0 0 0
141 2 1.2305000000000001e+00 1.0656442593567498e+01 2.5623092454059919e+00 0 0 0
143 2 2.4610000000000003e+00 1.1366872099805333e+01 2.5623092454059919e+00 0 0 0
178 2 3.6914999999999996e+00 1.0656442593567499e+01 2.5623092454059919e+00 0 0 0
182 2 4.9220000000000006e+00 8.5251540748539991e+00 2.5623092454059919e+00 0 0 0
184 2 6.1524999999999999e+00 9.2355835810918343e+00 2.5623092454059919e+00 0 0 0
227 2 7.3830000000000009e+00 8.5251540748539991e+00 2.5623092454059919e+00 0 0 0
229 2 8.6134999999999984e+00 9.2355835810918343e+00 2.5623092454059919e+00 0 0 0
180 2 4.9220000000000006e+00 1.1366872099805333e+01 2.5623092454059919e+00 0 0 0
223 2 6.1524999999999999e+00 1.0656442593567499e+01 2.5623092454059919e+00 0 0 0
225 2 7.3829999999999991e+00 1.1366872099805333e+01 2.5623092454059919e+00 0 0 0
270 2 8.6134999999999984e+00 1.0656442593567498e+01 2.5623092454059919e+00 0 0 0
97 2 0.0000000000000000e+00 1.4208590124756650e+00 5.7221467390882026e+00 0 0 0
99 2 0.0000000000000000e+00 0.0000000000000000e+00 5.7221467390882026e+00 0 0 0
108 2 1.2305000000000001e+00 2.1312885187134998e+00 5.7221467390882026e+00 0 0 0
110 2 2.4610000000000003e+00 1.4208590124756650e+00 5.7221467390882026e+00 0 0 0
112 2 2.4610000000000003e+00 0.0000000000000000e+00 5.7221467390882026e+00 0 0 0
129 2 3.6914999999999996e+00 2.1312885187134998e+00 5.7221467390882026e+00 0 0 0
106 2 1.2305000000000001e+00 3.5521475311891644e+00 5.7221467390882026e+00 0 0 0
127 2 3.6914999999999996e+00 3.5521475311891644e+00 5.7221467390882026e+00 0 0 0
131 2 4.9220000000000006e+00 1.4208590124756650e+00 5.7221467390882026e+00 0 0 0
133 2 4.9220000000000006e+00 0.0000000000000000e+00 5.7221467390882026e+00 0 0 0
158 2 6.1524999999999999e+00 2.1312885187134989e+00 5.7221467390882026e+00 0 0 0
160 2 7.3829999999999991e+00 1.4208590124756659e+00 5.7221467390882026e+00 0 0 0
162 2 7.3829999999999991e+00 0.0000000000000000e+00 5.7221467390882026e+00 0 0 0
195 2 8.6134999999999984e+00 2.1312885187135002e+00 5.7221467390882026e+00 0 0 0
156 2 6.1524999999999999e+00 3.5521475311891644e+00 5.7221467390882026e+00 0 0 0
193 2 8.6134999999999984e+00 3.5521475311891657e+00 5.7221467390882026e+00 0 0 0
102 2 0.0000000000000000e+00 5.6834360499026637e+00 5.7221467390882026e+00 0 0 0
104 2 0.0000000000000000e+00 4.2625770374269996e+00 5.7221467390882026e+00 0 0 0
121 2 1.2305000000000001e+00 6.3938655561404980e+00 5.7221467390882026e+00 0 0 0
123 2 2.4610000000000003e+00 5.6834360499026637e+00 5.7221467390882026e+00 0 0 0
125 2 2.4610000000000003e+00 4.2625770374269996e+00 5.7221467390882026e+00 0 0 0
150 2 3.6914999999999996e+00 6.3938655561404980e+00 5.7221467390882026e+00 0 0 0
119 2 1.2305000000000001e+00 7.8147245686161639e+00 5.7221467390882026e+00 0 0 0
148 2 3.6914999999999996e+00 7.8147245686161639e+00 5.7221467390882026e+00 0 0 0
152 2 4.9220000000000006e+00 5.6834360499026637e+00 5.7221467390882026e+00 0 0 0
154 2 4.9220000000000006e+00 4.2625770374269978e+00 5.7221467390882026e+00 0 0 0
187 2 6.1524999999999999e+00 6.3938655561404980e+00 5.7221467390882026e+00 0 0 0
189 2 7.3829999999999991e+00 5.6834360499026637e+00 5.7221467390882026e+00 0 0 0
191 2 7.3829999999999991e+00 4.2625770374269996e+00 5.7221467390882026e+00 0 0 0
232 2 8.6135000000000002e+00 6.3938655561404980e+00 5.7221467390882026e+00 0 0 0
185 2 6.1524999999999999e+00 7.8147245686161639e+00 5.7221467390882026e+00 0 0 0
230 2 8.6135000000000002e+00 7.8147245686161639e+00 5.7221467390882026e+00 0 0 0
115 2 0.0000000000000000e+00 9.9460130873296642e+00 5.7221467390882026e+00 0 0 0
117 2 0.0000000000000000e+00 8.5251540748539991e+00 5.7221467390882026e+00 0 0 0
144 2 2.4610000000000003e+00 9.9460130873296642e+00 5.7221467390882026e+00 0 0 0
146 2 2.4610000000000003e+00 8.5251540748539991e+00 5.7221467390882026e+00 0 0 0
140 2 1.2305000000000001e+00 1.2077301606043163e+01 5.7221467390882026e+00 0 0 0
142 2 1.2305000000000001e+00 1.0656442593567498e+01 5.7221467390882026e+00 0 0 0
177 2 3.6914999999999996e+00 1.2077301606043163e+01 5.7221467390882026e+00 0 0 0
179 2 3.6914999999999996e+00 1.0656442593567499e+01 5.7221467390882026e+00 0 0 0
181 2 4.9220000000000006e+00 9.9460130873296642e+00 5.7221467390882026e+00 0 0 0
183 2 4.9220000000000006e+00 8.5251540748539991e+00 5.7221467390882026e+00 0 0 0
226 2 7.3830000000000009e+00 9.9460130873296642e+00 5.7221467390882026e+00 0 0 0
228 2 7.3830000000000009e+00 8.5251540748539991e+00 5.7221467390882026e+00 0 0 0
222 2 6.1524999999999999e+00 1.2077301606043163e+01 5.7221467390882026e+00 0 0 0
224 2 6.1524999999999999e+00 1.0656442593567499e+01 5.7221467390882026e+00 0 0 0
269 2 8.6135000000000002e+00 1.2077301606043163e+01 5.7221467390882026e+00 0 0 0
271 2 8.6134999999999984e+00 1.0656442593567498e+01 5.7221467390882026e+00 0 0 0
425 2 0.0000000000000000e+00 2.8417180249513345e+00 8.8819842327711083e+00 0 0 0
426 2 0.0000000000000000e+00 0.0000000000000000e+00 8.8819842327711083e+00 0 0 0
427 2 1.2305000000000001e+00 7.1042950623783474e-01 8.8819842327711083e+00 0 0 0
431 2 1.2305000000000001e+00 2.1312885187134998e+00 8.8819842327711083e+00 0 0 0
432 2 2.4610000000000003e+00 2.8417180249513345e+00 8.8819842327711083e+00 0 0 0
433 2 2.4610000000000003e+00 0.0000000000000000e+00 8.8819842327711083e+00 0 0 0
434 2 3.6915000000000004e+00 7.1042950623783474e-01 8.8819842327711083e+00 0 0 0
442 2 3.6914999999999996e+00 2.1312885187134998e+00 8.8819842327711083e+00 0 0 0
492 2 7.3829999999999991e+00 1.1366872099805333e+01 8.8819842327711083e+00 0 0 0
443 2 4.9220000000000006e+00 2.8417180249513332e+00 8.8819842327711083e+00 0 0 0
444 2 4.9220000000000006e+00 0.0000000000000000e+00 8.8819842327711083e+00 0 0 0
445 2 6.1524999999999999e+00 7.1042950623783407e-01 8.8819842327711083e+00 0 0 0
457 2 6.1524999999999999e+00 2.1312885187134989e+00 8.8819842327711083e+00 0 0 0
458 2 7.3829999999999991e+00 2.8417180249513345e+00 8.8819842327711083e+00 0 0 0
459 2 7.3829999999999991e+00 0.0000000000000000e+00 8.8819842327711083e+00 0 0 0
460 2 8.6134999999999984e+00 7.1042950623783407e-01 8.8819842327711083e+00 0 0 0
476 2 8.6134999999999984e+00 2.1312885187135002e+00 8.8819842327711083e+00 0 0 0
515 2 8.6134999999999984e+00 1.0656442593567498e+01 8.8819842327711083e+00 0 0 0
471 2 6.1524999999999999e+00 9.2355835810918343e+00 8.8819842327711083e+00 0 0 0
429 2 0.0000000000000000e+00 4.2625770374269996e+00 8.8819842327711083e+00 0 0 0
430 2 1.2305000000000001e+00 4.9730065436648339e+00 8.8819842327711083e+00 0 0 0
438 2 1.2305000000000001e+00 6.3938655561404980e+00 8.8819842327711083e+00 0 0 0
440 2 2.4610000000000003e+00 4.2625770374269996e+00 8.8819842327711083e+00 0 0 0
441 2 3.6914999999999996e+00 4.9730065436648339e+00 8.8819842327711083e+00 0 0 0
453 2 3.6914999999999996e+00 6.3938655561404980e+00 8.8819842327711083e+00 0 0 0
428 2 0.0000000000000000e+00 7.1042950623783341e+00 8.8819842327711083e+00 0 0 0
439 2 2.4610000000000003e+00 7.1042950623783341e+00 8.8819842327711083e+00 0 0 0
1573 1 5.0389477346132230e+00 4.5682375737191885e+00 1.1451789609930676e+01 1 2 0
455 2 4.9220000000000006e+00 4.2625770374269978e+00 8.8819842327711083e+00 0 0 0
456 2 6.1524999999999999e+00 4.9730065436648339e+00 8.8819842327711083e+00 0 0 0
472 2 6.1524999999999999e+00 6.3938655561404980e+00 8.8819842327711083e+00 0 0 0
474 2 7.3829999999999991e+00 4.2625770374269996e+00 8.8819842327711083e+00 0 0 0
475 2 8.6135000000000002e+00 4.9730065436648339e+00 8.8819842327711083e+00 0 0 0
495 2 8.6135000000000002e+00 6.3938655561404980e+00 8.8819842327711083e+00 0 0 0
454 2 4.9220000000000006e+00 7.1042950623783341e+00 8.8819842327711083e+00 0 0 0
473 2 7.3830000000000009e+00 7.1042950623783341e+00 8.8819842327711083e+00 0 0 0
494 2 8.6134999999999984e+00 9.2355835810918343e+00 8.8819842327711083e+00 0 0 0
470 2 4.9220000000000006e+00 8.5251540748539991e+00 8.8819842327711083e+00 0 0 0
468 2 3.6914999999999996e+00 1.0656442593567499e+01 8.8819842327711083e+00 0 0 0
450 2 2.4610000000000003e+00 1.1366872099805333e+01 8.8819842327711083e+00 0 0 0
436 2 0.0000000000000000e+00 8.5251540748539991e+00 8.8819842327711083e+00 0 0 0
437 2 1.2305000000000001e+00 9.2355835810918343e+00 8.8819842327711083e+00 0 0 0
451 2 2.4610000000000003e+00 8.5251540748539991e+00 8.8819842327711083e+00 0 0 0
452 2 3.6915000000000004e+00 9.2355835810918343e+00 8.8819842327711083e+00 0 0 0
435 2 0.0000000000000000e+00 1.1366872099805333e+01 8.8819842327711083e+00 0 0 0
449 2 1.2305000000000001e+00 1.0656442593567498e+01 8.8819842327711083e+00 0 0 0
491 2 6.1524999999999999e+00 1.0656442593567499e+01 8.8819842327711083e+00 0 0 0
469 2 4.9220000000000006e+00 1.1366872099805333e+01 8.8819842327711083e+00 0 0 0
493 2 7.3830000000000009e+00 8.5251540748539991e+00 8.8819842327711083e+00 0 0 0
2993 1 3.7898915941781377e+00 8.8998017255586177e+00 1.1377633858209617e+01 2 -1 -1
1378 1 9.6711892319275883e+00 3.4444500251776837e+00 1.1430360235723668e+01 0 2 0
625 1 4.4384109750006512e-01 5.5581468300280088e+00 1.1114597099721705e+01 1 1 -1
3858 1 2.3472575049023359e+00 1.2392781401272983e+00 1.1413330949915233e+01 -1 -1 0
3631 1 6.8421870214954703e+00 3.3738204171283565e-01 1.1245215161565589e+01 2 1 0
1504 1 6.6809314428097499e+00 1.2180419457679992e+01 1.1100915049330455e+01 1 1 0
2196 1 8.6121310983490673e+00 8.0746147202569549e+00 1.1121755880997110e+01 -1 -3 0
1525 1 4.7250545720016905e+00 2.2770496080444853e+00 1.4639920841537442e+01 0 1 -1
4435 1 2.9437523239508865e+00 6.0613424626697130e+00 1.1951669157685805e+01 -1 0 0
2825 1 6.3283884184741614e+00 4.1060042534747793e-01 1.9219749483973413e+01 1 0 0
3080 1 9.4684526288160260e+00 1.3866170662827606e+00 1.5037324291491309e+01 -1 1 -1
847 1 4.7037306801870686e+00 1.8724858491750409e+00 1.1956844701338733e+01 2 0 0
2927 1 3.2961558021849031e+00 6.2735537361557663e+00 1.4616846805806976e+01 0 0 0
4517 1 6.5239206309740414e+00 2.6980844516683322e-01 2.1859018846196339e+01 1 1 -1
3622 1 7.8731275310203035e+00 5.4819559403363343e+00 1.4676865956909927e+01 2 2 0
4363 1 5.7200675144631417e+00 7.1935930069984231e+00 1.5713974038457650e+01 -3 0 -1
1461 1 1.7706453051440303e+00 1.0672283645532614e+01 1.5019399949951378e+01 2 0 -1
2225 1 6.3737740591759255e+00 9.6824988281825348e+00 1.2094239852820122e+01 1 -1 0
4386 1 6.1584388217306207e+00 9.8541993530882568e+00 1.4633493366262190e+01 0 0 1
1580 1 8.8246402833196118e+00 1.0687678233960622e+01 1.5749747803680968e+01 0 -2 0
2327 1 9.6561700317596681e+00 3.7307517200564564e+00 1.9206746433675125e+01 0 3 1
2355 1 4.0556623578026869e+00 9.4302133554625289e+00 2.1815642141565217e+01 0 0 1
2890 1 2.8327393830432488e+00 4.0921171533876537e+00 1.8077090933315159e+01 0 0 0
1477 1 7.3061247793287718e+00 2.9483156230325607e+00 1.5373584507515675e+01 1 -1 -1
3885 1 7.1714146008103929e+00 3.0472071354980943e+00 1.8234305138092815e+01 -1 -1 -1
43 1 2.7919932816551931e+00 3.8592076188104896e+00 1.5242090296434624e+01 3 3 1
2154 1 5.6930292786725234e+00 7.0905931530945772e+00 1.8508519213194180e+01 2 1 -1
668 1 4.1288460593616207e+00 1.1613311805759773e+01 1.8345527367506339e+01 -1 -2 -1
4313 1 4.2268374438819745e+00 1.1833395122932304e+01 1.5602159321520281e+01 2 -1 0
1488 1 1.3905011684183188e+00 8.0555664677528487e+00 1.5618704483618270e+01 4 0 0
3611 1 1.3462351937150709e+00 8.2804997733623598e+00 1.8302503530070169e+01 0 0 0
3854 1 8.0318098268214246e+00 8.2542640070841724e+00 1.9048480871808493e+01 -1 -1 0
2106 1 8.5620884483108064e+00 1.0728944378487595e+01 1.8306088368282403e+01 0 0 0
4319 1 7.8680710193586290e+00 5.5328699564368780e+00 1.1908481655188751e+01 1 1 0
2956 1 2.1451190681718915e+00 1.4070651617361853e+00 1.8871639700548982e+01 -1 -3 0
1356 1 5.4055697950291997e+00 4.8968190555264632e+00 2.1956936359677165e+01 2 0 0
671 1 3.7304892998430557e+00 8.9769093722337701e+00 1.9097336322726154e+01 1 0 0
2887 1 8.2145995580458013e+00 8.0724441362148749e+00 2.1787101533569601e+01 3 -1 -1
3732 1 3.9700051115164714e-01 2.9715045946181418e+00 1.4579051035840896e+01 -1 1 -1
3614 1 5.3175843400749754e+00 4.6952962344348750e+00 1.9215617759030415e+01 1 1 0
4312 1 1.0486980833916983e+00 5.7406604158364063e+00 1.9312367222312098e+01 2 0 0
1424 1 2.3283241413530438e+00 1.3690582573381191e+00 2.1583848903111782e+01 -2 0 0
3771 1 9.5430936646150020e+00 3.6555091919198048e+00 2.1805167052934181e+01 -1 1 -1
3050 1 7.9987797656550985e-01 5.8209879140455776e+00 2.2067809906774745e+01 -1 0 0
824 1 1.7363878920663733e+00 1.0730368992089753e+01 1.2162600290595861e+01 -2 -2 -1
2113 1 5.2966565333990141e-02 3.0679911213818540e+00 1.1742628910935110e+01 3 2 0
1420 1 9.2825149065387382e+00 9.0360855033074050e-01 1.2179393236320081e+01 0 1 0
2980 1 4.6536615054295556e+00 2.1393955806087939e+00 2.5544805868652567e+01 1 1 0
3677 1 4.5619199555201195e+00 2.3157515833131876e+00 2.2934084502076779e+01 0 2 0
1459 1 6.2185240563048882e+00 1.0279552251400693e+01 2.9514140425801639e+01 1 -2 0
1456 1 1.2920758625828349e-01 3.2323129187388697e+00 2.5446217883278365e+01 0 2 -1
2952 1 8.9916760733717673e+00 1.0020720073382476e+00 2.5598293895999777e+01 2 -2 0
2306 1 3.0178510717207381e+00 6.8789737293347626e+00 2.5254641830339335e+01 0 0 1
2965 1 4.4068200229393275e+00 1.1714842340480500e+01 2.6276710775716598e+01 -1 0 0
4490 1 7.6648325871184824e+00 5.7828807182236011e+00 2.5317797731661116e+01 -1 3 -1
4345 1 7.8382037661413948e+00 5.6044421053200963e+00 2.2712921616321928e+01 2 0 0
2366 1 1.7308963988953827e+00 1.1060110192331088e+01 2.5345716645005968e+01 0 2 0
2177 1 1.1320579652320661e+00 8.3590554369750443e+00 3.2088899217332639e+01 2 1 0
723 1 9.0821047131032113e+00 1.1392847781680022e+01 3.2227392078391375e+01 2 -1 0
3596 1 6.3317022800647953e+00 9.9777386508222570e+00 2.5643492306386047e+01 -1 1 0
4408 1 9.1424626113843360e-02 3.0739627364914948e+00 3.2100431901866841e+01 2 1 0
3691 1 4.7623008933903259e+00 2.3559993253617768e+00 2.9462269451998289e+01 4 0 0
1344 1 7.2004778598055958e+00 2.9811169752448592e+00 2.6484646232922309e+01 0 3 0
1576 1 7.4151215117444842e+00 3.3914684106045190e+00 2.9176605444133983e+01 1 0 0
2259 1 2.6327936780676922e+00 4.2182529528215298e+00 2.6269138953597782e+01 2 2 0
2892 1 2.6755704910968969e+00 3.9866493977575153e+00 2.9077418383873155e+01 0 -1 0
3774 1 2.9425119019077419e+00 6.6464489387210079e+00 2.9528566923787981e+01 -1 1 0
2213 1 5.6352845906232831e+00 7.5622195480127417e+00 2.6107414315514255e+01 2 1 0
89 1 5.4428003601520745e+00 7.6720011309874785e+00 2.9051330948925365e+01 -2 1 0
758 1 9.1267111554565206e-01 8.4938425081774831e+00 2.6061484748372621e+01 0 2 -1
809 1 1.4490639356208612e+00 1.1067491179177726e+01 2.9205069092324280e+01 1 -1 -1
2391 1 9.2252072944375363e-01 8.5207148281124176e+00 2.8788242101722080e+01 1 2 0
2136 1 1.5200282736123265e+00 1.1131932027281071e+01 3.2055005954130380e+01 0 0 0
2905 1 8.6995481521466047e+00 1.1007065560696089e+01 2.6463839011081745e+01 0 2 0
3827 1 8.8846435380460864e+00 1.1545692791515904e+01 2.9310755690486246e+01 -1 0 0
762 1 5.0065773364578456e+00 2.5018003918594536e+00 3.2244432346908461e+01 -1 0 0
3129 1 9.0317448587757792e+00 1.0416774475442245e+00 2.2970236334838891e+01 1 -1 -1
2834 1 7.5961888994341535e+00 3.4300173237510094e+00 3.2062802232119139e+01 -1 3 -1
697 1 6.1468593373023328e+00 1.0945007258314131e+01 3.2249737240285810e+01 -2 -1 0
2324 1 2.6153920807146709e+00 4.3202568114738389e+00 3.2472890835640854e+01 -1 2 0
810 1 3.2155123791283149e+00 6.9756251048318720e+00 3.2338259450867120e+01 -1 0 0
685 1 7.8534758692300732e+00 6.3203235306761512e+00 2.9452537214216473e+01 0 0 -1
2121 1 5.6268567133211551e+00 8.1937570128671684e+00 3.2258929638299669e+01 1 1 -1
2091 1 7.7055744120623029e+00 6.5054670099326870e+00 3.2134794097512547e+01 1 -3 0
4414 1 1.8371963102568478e+00 1.1200549948795915e+01 2.2693947169264426e+01 2 2 0
3727 1 6.5300890834881207e+00 9.9452231368770896e+00 2.2858299021876761e+01 0 1 -1
801 1 3.3992574713881680e+00 6.6569067852486530e+00 2.2641822876944779e+01 2 1 0
4505 1 9.8430571279332870e+00 1.6445620137246821e+00 2.9050039946371271e+01 1 2 0
3607 1 2.2024892607173996e-01 3.0244360443246370e+00 2.2600552988127692e+01 4 0 -1
47 1 4.1138393398648105e+00 1.2164826062327032e+01 2.9017858887902353e+01 0 0 0
137 2 0.0000000000000000e+00 1.2787731112280996e+01 2.5623092454059919e+00 0 0 0
139 2 1.2305000000000001e+00 1.3498160618518829e+01 2.5623092454059919e+00 0 0 0
174 2 2.4610000000000003e+00 1.2787731112280996e+01 2.5623092454059919e+00 0 0 0
176 2 3.6915000000000004e+00 1.3498160618518829e+01 2.5623092454059919e+00 0 0 0
135 2 0.0000000000000000e+00 1.5629449137232333e+01 2.5623092454059919e+00 0 0 0
170 2 1.2305000000000001e+00 1.4919019630994494e+01 2.5623092454059919e+00 0 0 0
172 2 2.4610000000000003e+00 1.5629449137232328e+01 2.5623092454059919e+00 0 0 0
215 2 3.6915000000000004e+00 1.4919019630994494e+01 2.5623092454059919e+00 0 0 0
219 2 4.9220000000000006e+00 1.2787731112280996e+01 2.5623092454059919e+00 0 0 0
221 2 6.1524999999999990e+00 1.3498160618518829e+01 2.5623092454059919e+00 0 0 0
266 2 7.3829999999999991e+00 1.2787731112280996e+01 2.5623092454059919e+00 0 0 0
268 2 8.6135000000000002e+00 1.3498160618518835e+01 2.5623092454059919e+00 0 0 0
217 2 4.9220000000000006e+00 1.5629449137232333e+01 2.5623092454059919e+00 0 0 0
262 2 6.1524999999999990e+00 1.4919019630994494e+01 2.5623092454059919e+00 0 0 0
264 2 7.3829999999999991e+00 1.5629449137232333e+01 2.5623092454059919e+00 0 0 0
309 2 8.6135000000000002e+00 1.4919019630994494e+01 2.5623092454059919e+00 0 0 0
166 2 0.0000000000000000e+00 1.7050308149707998e+01 2.5623092454059919e+00 0 0 0
211 2 2.4610000000000003e+00 1.7050308149707998e+01 2.5623092454059919e+00 0 0 0
164 2 0.0000000000000000e+00 1.9892026174659328e+01 2.5623092454059919e+00 0 0 0
168 2 1.2305000000000001e+00 1.7760737655945832e+01 2.5623092454059919e+00 0 0 0
207 2 1.2305000000000001e+00 1.9181596668421495e+01 2.5623092454059919e+00 0 0 0
209 2 2.4610000000000003e+00 1.9892026174659328e+01 2.5623092454059919e+00 0 0 0
213 2 3.6914999999999996e+00 1.7760737655945832e+01 2.5623092454059919e+00 0 0 0
254 2 3.6914999999999996e+00 1.9181596668421495e+01 2.5623092454059919e+00 0 0 0
258 2 4.9220000000000006e+00 1.7050308149707998e+01 2.5623092454059919e+00 0 0 0
305 2 7.3830000000000009e+00 1.7050308149707998e+01 2.5623092454059919e+00 0 0 0
256 2 4.9220000000000006e+00 1.9892026174659328e+01 2.5623092454059919e+00 0 0 0
260 2 6.1524999999999999e+00 1.7760737655945832e+01 2.5623092454059919e+00 0 0 0
301 2 6.1524999999999999e+00 1.9181596668421495e+01 2.5623092454059919e+00 0 0 0
303 2 7.3829999999999991e+00 1.9892026174659328e+01 2.5623092454059919e+00 0 0 0
307 2 8.6134999999999984e+00 1.7760737655945832e+01 2.5623092454059919e+00 0 0 0
343 2 8.6135000000000002e+00 1.9181596668421495e+01 2.5623092454059919e+00 0 0 0
201 2 0.0000000000000000e+00 2.4154603212086325e+01 2.5623092454059919e+00 0 0 0
203 2 0.0000000000000000e+00 2.1312885187134999e+01 2.5623092454059919e+00 0 0 0
205 2 1.2304999999999993e+00 2.2023314693372832e+01 2.5623092454059919e+00 0 0 0
246 2 1.2304999999999993e+00 2.3444173705848499e+01 2.5623092454059919e+00 0 0 0
248 2 2.4610000000000003e+00 2.4154603212086325e+01 2.5623092454059919e+00 0 0 0
250 2 2.4610000000000003e+00 2.1312885187134995e+01 2.5623092454059919e+00 0 0 0
252 2 3.6914999999999996e+00 2.2023314693372832e+01 2.5623092454059919e+00 0 0 0
293 2 3.6915000000000004e+00 2.3444173705848499e+01 2.5623092454059919e+00 0 0 0
295 2 4.9220000000000006e+00 2.4154603212086325e+01 2.5623092454059919e+00 0 0 0
297 2 4.9220000000000006e+00 2.1312885187134995e+01 2.5623092454059919e+00 0 0 0
299 2 6.1524999999999990e+00 2.2023314693372832e+01 2.5623092454059919e+00 0 0 0
335 2 6.1524999999999999e+00 2.3444173705848499e+01 2.5623092454059919e+00 0 0 0
337 2 7.3830000000000009e+00 2.4154603212086336e+01 2.5623092454059919e+00 0 0 0
339 2 7.3829999999999991e+00 2.1312885187134999e+01 2.5623092454059919e+00 0 0 0
341 2 8.6135000000000002e+00 2.2023314693372832e+01 2.5623092454059919e+00 0 0 0
369 2 8.6134999999999984e+00 2.3444173705848499e+01 2.5623092454059919e+00 0 0 0
138 2 0.0000000000000000e+00 1.2787731112280996e+01 5.7221467390882026e+00 0 0 0
175 2 2.4610000000000003e+00 1.2787731112280996e+01 5.7221467390882026e+00 0 0 0
136 2 0.0000000000000000e+00 1.4208590124756663e+01 5.7221467390882026e+00 0 0 0
171 2 1.2305000000000001e+00 1.4919019630994494e+01 5.7221467390882026e+00 0 0 0
173 2 2.4610000000000003e+00 1.4208590124756663e+01 5.7221467390882026e+00 0 0 0
216 2 3.6915000000000004e+00 1.4919019630994494e+01 5.7221467390882026e+00 0 0 0
220 2 4.9220000000000006e+00 1.2787731112280996e+01 5.7221467390882026e+00 0 0 0
267 2 7.3829999999999991e+00 1.2787731112280996e+01 5.7221467390882026e+00 0 0 0
218 2 4.9220000000000006e+00 1.4208590124756663e+01 5.7221467390882026e+00 0 0 0
263 2 6.1524999999999990e+00 1.4919019630994494e+01 5.7221467390882026e+00 0 0 0
265 2 7.3830000000000009e+00 1.4208590124756663e+01 5.7221467390882026e+00 0 0 0
310 2 8.6135000000000002e+00 1.4919019630994494e+01 5.7221467390882026e+00 0 0 0
167 2 0.0000000000000000e+00 1.7050308149707998e+01 5.7221467390882026e+00 0 0 0
169 2 1.2305000000000001e+00 1.6339878643470165e+01 5.7221467390882026e+00 0 0 0
212 2 2.4610000000000003e+00 1.7050308149707998e+01 5.7221467390882026e+00 0 0 0
214 2 3.6915000000000004e+00 1.6339878643470165e+01 5.7221467390882026e+00 0 0 0
165 2 0.0000000000000000e+00 1.8471167162183658e+01 5.7221467390882026e+00 0 0 0
208 2 1.2305000000000001e+00 1.9181596668421495e+01 5.7221467390882026e+00 0 0 0
210 2 2.4610000000000003e+00 1.8471167162183658e+01 5.7221467390882026e+00 0 0 0
255 2 3.6914999999999996e+00 1.9181596668421495e+01 5.7221467390882026e+00 0 0 0
259 2 4.9220000000000006e+00 1.7050308149707998e+01 5.7221467390882026e+00 0 0 0
261 2 6.1524999999999999e+00 1.6339878643470165e+01 5.7221467390882026e+00 0 0 0
306 2 7.3830000000000009e+00 1.7050308149707998e+01 5.7221467390882026e+00 0 0 0
308 2 8.6134999999999984e+00 1.6339878643470165e+01 5.7221467390882026e+00 0 0 0
257 2 4.9220000000000006e+00 1.8471167162183658e+01 5.7221467390882026e+00 0 0 0
302 2 6.1524999999999999e+00 1.9181596668421495e+01 5.7221467390882026e+00 0 0 0
304 2 7.3829999999999991e+00 1.8471167162183658e+01 5.7221467390882026e+00 0 0 0
344 2 8.6135000000000002e+00 1.9181596668421495e+01 5.7221467390882026e+00 0 0 0
206 2 1.2305000000000001e+00 2.0602455680897162e+01 5.7221467390882026e+00 0 0 0
253 2 3.6915000000000004e+00 2.0602455680897162e+01 5.7221467390882026e+00 0 0 0
202 2 0.0000000000000000e+00 2.2733744199610655e+01 5.7221467390882026e+00 0 0 0
204 2 0.0000000000000000e+00 2.1312885187134999e+01 5.7221467390882026e+00 0 0 0
247 2 1.2304999999999993e+00 2.3444173705848499e+01 5.7221467390882026e+00 0 0 0
249 2 2.4610000000000003e+00 2.2733744199610655e+01 5.7221467390882026e+00 0 0 0
251 2 2.4610000000000003e+00 2.1312885187134995e+01 5.7221467390882026e+00 0 0 0
294 2 3.6915000000000004e+00 2.3444173705848499e+01 5.7221467390882026e+00 0 0 0
300 2 6.1524999999999999e+00 2.0602455680897162e+01 5.7221467390882026e+00 0 0 0
342 2 8.6134999999999984e+00 2.0602455680897162e+01 5.7221467390882026e+00 0 0 0
296 2 4.9220000000000006e+00 2.2733744199610655e+01 5.7221467390882026e+00 0 0 0
298 2 4.9220000000000006e+00 2.1312885187134995e+01 5.7221467390882026e+00 0 0 0
336 2 6.1524999999999999e+00 2.3444173705848499e+01 5.7221467390882026e+00 0 0 0
338 2 7.3829999999999991e+00 2.2733744199610655e+01 5.7221467390882026e+00 0 0 0
340 2 7.3829999999999991e+00 2.1312885187134999e+01 5.7221467390882026e+00 0 0 0
370 2 8.6134999999999984e+00 2.3444173705848499e+01 5.7221467390882026e+00 0 0 0
447 2 0.0000000000000000e+00 1.2787731112280996e+01 8.8819842327711083e+00 0 0 0
448 2 1.2305000000000001e+00 1.3498160618518829e+01 8.8819842327711083e+00 0 0 0
466 2 2.4610000000000003e+00 1.2787731112280996e+01 8.8819842327711083e+00 0 0 0
467 2 3.6915000000000004e+00 1.3498160618518829e+01 8.8819842327711083e+00 0 0 0
446 2 0.0000000000000000e+00 1.5629449137232333e+01 8.8819842327711083e+00 0 0 0
464 2 1.2305000000000001e+00 1.4919019630994494e+01 8.8819842327711083e+00 0 0 0
465 2 2.4610000000000003e+00 1.5629449137232328e+01 8.8819842327711083e+00 0 0 0
487 2 3.6915000000000004e+00 1.4919019630994494e+01 8.8819842327711083e+00 0 0 0
3881 1 9.4229529341643907e+00 1.5903326317754614e+01 1.1272160036953077e+01 1 -3 0
489 2 4.9220000000000006e+00 1.2787731112280996e+01 8.8819842327711083e+00 0 0 0
490 2 6.1524999999999990e+00 1.3498160618518829e+01 8.8819842327711083e+00 0 0 0
513 2 7.3829999999999991e+00 1.2787731112280996e+01 8.8819842327711083e+00 0 0 0
514 2 8.6135000000000002e+00 1.3498160618518835e+01 8.8819842327711083e+00 0 0 0
488 2 4.9220000000000006e+00 1.5629449137232333e+01 8.8819842327711083e+00 0 0 0
511 2 6.1524999999999990e+00 1.4919019630994494e+01 8.8819842327711083e+00 0 0 0
512 2 7.3829999999999991e+00 1.5629449137232333e+01 8.8819842327711083e+00 0 0 0
535 2 8.6135000000000002e+00 1.4919019630994494e+01 8.8819842327711083e+00 0 0 0
2898 1 2.3943325460475871e+00 1.3466024080703654e+01 1.1343056892825549e+01 1 1 0
462 2 0.0000000000000000e+00 1.7050308149707998e+01 8.8819842327711083e+00 0 0 0
485 2 2.4610000000000003e+00 1.7050308149707998e+01 8.8819842327711083e+00 0 0 0
461 2 0.0000000000000000e+00 1.9892026174659328e+01 8.8819842327711083e+00 0 0 0
463 2 1.2305000000000001e+00 1.7760737655945832e+01 8.8819842327711083e+00 0 0 0
483 2 1.2305000000000001e+00 1.9181596668421495e+01 8.8819842327711083e+00 0 0 0
484 2 2.4610000000000003e+00 1.9892026174659328e+01 8.8819842327711083e+00 0 0 0
486 2 3.6914999999999996e+00 1.7760737655945832e+01 8.8819842327711083e+00 0 0 0
507 2 3.6914999999999996e+00 1.9181596668421495e+01 8.8819842327711083e+00 0 0 0
529 2 4.9220000000000006e+00 2.1312885187134995e+01 8.8819842327711083e+00 0 0 0
549 2 7.3830000000000009e+00 2.4154603212086336e+01 8.8819842327711083e+00 0 0 0
509 2 4.9220000000000006e+00 1.7050308149707998e+01 8.8819842327711083e+00 0 0 0
533 2 7.3830000000000009e+00 1.7050308149707998e+01 8.8819842327711083e+00 0 0 0
508 2 4.9220000000000006e+00 1.9892026174659328e+01 8.8819842327711083e+00 0 0 0
510 2 6.1524999999999999e+00 1.7760737655945832e+01 8.8819842327711083e+00 0 0 0
531 2 6.1524999999999999e+00 1.9181596668421495e+01 8.8819842327711083e+00 0 0 0
532 2 7.3829999999999991e+00 1.9892026174659328e+01 8.8819842327711083e+00 0 0 0
534 2 8.6134999999999984e+00 1.7760737655945832e+01 8.8819842327711083e+00 0 0 0
552 2 8.6135000000000002e+00 1.9181596668421495e+01 8.8819842327711083e+00 0 0 0
551 2 8.6135000000000002e+00 2.2023314693372832e+01 8.8819842327711083e+00 0 0 0