
# Create simulation box and atoms

read_data data.ML_graphite_m500atm_240K
  orthogonal box = (0 0 1.70882) to (49.22 49.0196 32.2312)
  5 by 4 by 3 MPI processor grid
  reading atoms ...
  4537 atoms
  reading velocities ...
  4537 velocities
group water type 1
1777 atoms in group water
group graphite type 2
2760 atoms in group graphite

# Define potential

pair_style sw
pair_coeff * * MLC_e.sw mW C


# Fix graphite atoms in place

fix 5 graphite setforce 0.0 0.0 0.0
velocity graphite set 0.0 0.0 0.0


# Equilibration of molecular water

# Add velocity/set timestep

velocity	    water create ${TEMP} ${SEED} rot yes dist gaussian
velocity	    water create 240 ${SEED} rot yes dist gaussian
velocity	    water create 240 19795 rot yes dist gaussian
timestep	    5.0

# Define output

compute			1 water msd
compute			3 water temp
thermo	    	50
thermo_style	custom step temp press vol etotal ke pe c_1[4] c_3

# Neighbor lists

neigh_modify    delay 0 every 1 check yes

# Set fixes

fix             1 water momentum 10 linear 1 1 1 rescale
fix             2 water nve
fix             3 water temp/csvr ${TEMP} ${TEMP} 500.0 ${SEED}
fix             3 water temp/csvr 240 ${TEMP} 500.0 ${SEED}
fix             3 water temp/csvr 240 240 500.0 ${SEED}
fix             3 water temp/csvr 240 240 500.0 19795
fix             4 water press/berendsen z ${PRES} ${PRES} 1000.0 modulus 20000
fix             4 water press/berendsen z -500 ${PRES} 1000.0 modulus 20000
fix             4 water press/berendsen z -500 -500 1000.0 modulus 20000

# Run 0.5 ns equilibration

dump		    1 all atom 2000 ${DIR}/eq.${NAME}-${TEMP}.dump
dump		    1 all atom 2000 run_13/eq.${NAME}-${TEMP}.dump
dump		    1 all atom 2000 run_13/eq.het_freeze_13-${TEMP}.dump
dump		    1 all atom 2000 run_13/eq.het_freeze_13-240.dump

reset_timestep  0

run	            100000
Neighbor list info ...
  update every 1 steps, delay 0 steps, check yes
  max neighbors/atom: 2000, page size: 100000
  master list distance cutoff = 6.67472
  ghost atom cutoff = 6.67472
  binsize = 3.33736, bins = 15 15 10
  1 neighbor lists, perpetual/occasional/extra = 1 0 0
  (1) pair sw, perpetual
      attributes: full, newton on
      pair build: full/bin/atomonly
      stencil: full/bin/3d
      bin: standard
Per MPI rank memory allocation (min/avg/max) = 4.104 | 4.229 | 4.477 Mbytes
Step Temp Press Volume TotEng KinEng PotEng c_1[4] c_3 
       0    93.968254   -654.73592     73642.74   -17158.673    1270.5405   -18429.214            0          240 
      50    94.597651   -669.26378    73627.959   -17157.506    1279.0505   -18436.557   0.49633611    241.60751 
     100    95.103569   -1039.2586    73628.457   -17169.573     1285.891   -18455.464   0.83188624    242.89966 
     150    91.320794   -559.48635    73614.482   -17142.916    1234.7443    -18377.66    1.1008861    233.23825 
     200    95.885995   -939.41118    73622.085    -17148.69    1296.4702    -18445.16    1.3826651    244.89801 
     250    96.936008   -895.60818    73583.487   -17162.279    1310.6673   -18472.946    1.6117937     247.5798 
     300    95.202073   -753.47368    73605.098   -17152.619    1287.2229   -18439.842    1.7687187    243.15124 
     350    94.932201   -949.28953    73682.233   -17152.804     1283.574   -18436.378    1.9332001    242.46197 
     400    95.390696   -932.36843    73687.499    -17186.81    1289.7732   -18476.583    2.1458894    243.63299 
     450    94.533328   -1088.8623    73697.058     -17185.7    1278.1808   -18463.881    2.3970713    241.44323 
     500    93.032004   -995.49283    73659.904   -17139.156    1257.8815   -18397.037    2.5876711    237.60877 
     550    96.230553   -844.59265    73658.241   -17142.971    1301.1289     -18444.1    2.7023056    245.77803 
     600    92.850291   -1104.9895    73657.543   -17177.857    1255.4246   -18433.281    2.9424174    237.14466 
     650    93.048053   -926.73019    73656.219   -17227.981    1258.0985    -18486.08    3.1576265    237.64976 
     700    93.474548   -918.81451    73682.372    -17219.31    1263.8651   -18483.175    3.3534531    238.73905 
     750    90.575133   -946.49164    73768.079   -17240.129    1224.6622   -18464.791    3.4354469    231.33379 
     800    94.921319   -1084.5864    73756.972   -17218.718    1283.4268   -18502.145    3.5684143    242.43418 
     850    95.455722   -1232.4467    73777.888   -17217.975    1290.6525   -18508.627    3.8335998    243.79908 
     900    95.360949    -879.6822    73748.836   -17186.387     1289.371   -18475.758    3.9091304    243.55702 
     950    96.784036   -1095.8957    73686.129   -17192.038    1308.6125   -18500.651    4.0494926    247.19166 
    1000    93.452114   -1072.9237    73662.489   -17228.739    1263.5618   -18492.301    4.0965065    238.68175 
    1050    91.467515   -836.15724    73591.838   -17258.252    1236.7281   -18494.981    4.2425882    233.61298 
    1100    92.033241   -1119.9959    73561.928   -17289.906    1244.3772   -18534.284     4.389314    235.05787 
    1150    92.439187   -1189.8488    73559.118   -17267.733     1249.866   -18517.599     4.613684    236.09468 
    1200    94.722153    -568.8309     73563.47    -17240.84    1280.7339   -18521.574    4.8704778     241.9255 
    1250     93.46269   -1019.5188    73562.026   -17236.569    1263.7048   -18500.274    5.0127863    238.70876 
    1300    93.999532   -1084.9463    73529.419   -17253.441    1270.9634   -18524.404    5.1539299    240.07989 
    1350    91.401032   -1104.4631    73548.957   -17246.613    1235.8292   -18482.442    5.3534707    233.44318 
    1400      96.2315   -1140.6111    73535.626   -17210.853    1301.1417   -18511.995    5.5293193    245.78045 
    1450    92.940668   -588.01806    73527.558   -17193.356    1256.6465   -18450.002    5.7795602    237.37549 
    1500    93.318429   -1185.8141    73543.087   -17190.427    1261.7542   -18452.181    5.9605022    238.34031 
    1550    93.591841   -1184.7767    73511.636   -17189.364     1265.451   -18454.815    6.0839762    239.03862 
    1600     97.59243    -1048.384    73525.203   -17158.608    1319.5428   -18478.151    6.3207432    249.25634 
    1650    92.876342   -1043.6552    73558.922   -17129.842    1255.7768   -18385.619    6.5644725     237.2112 
    1700    93.260458   -1005.4661    73631.819   -17156.634    1260.9704   -18417.604    6.8132415    238.19225 
    1750    96.388273   -943.86244    73666.648   -17149.508    1303.2614    -18452.77    7.0913565    246.18086 
    1800    94.258206   -828.25467    73669.403   -17166.347    1274.4609   -18440.808    7.2521246    240.74055 
    1850    96.539379   -1078.0561     73606.21   -17177.101    1305.3045   -18482.406    7.4359103    246.56679 
    1900    92.908187   -714.94658    73566.381   -17188.844    1256.2074   -18445.051    7.6380105    237.29253 
    1950    94.016124   -1056.3692    73532.168   -17166.634    1271.1877   -18437.822    7.8767532    240.12226 
    2000     97.45535   -1074.2327    73535.512   -17134.869    1317.6893   -18452.558    8.1105707    248.90623 
    2050    94.260052   -929.99162    73511.829   -17130.146    1274.4859   -18404.632    8.1852673    240.74527 
    2100     94.69757   -795.45945    73473.201   -17151.879    1280.4015   -18432.281    8.3773792    241.86271 
    2150    93.378127   -828.32085    73558.699   -17181.359    1262.5614    -18443.92    8.5550857    238.49278 
    2200    92.297612   -814.22445    73529.361   -17187.739    1247.9518    -18435.69    8.6968286    235.73309 
    2250    95.163996   -1038.7616    73536.064   -17232.232    1286.7081    -18518.94    8.9387215    243.05399 
    2300    93.749306   -823.42563     73576.32   -17206.258    1267.5801   -18473.838     9.067176    239.44079 
    2350     91.80542   -1036.1838    73589.486   -17189.825    1241.2969   -18431.122    9.2887855      234.476 
    2400    94.955609    -1069.465    73545.147   -17182.762    1283.8905   -18466.653     9.661924    242.52176 
    2450    92.129172   -721.93032    73485.789   -17209.533    1245.6743   -18455.208    9.9267246    235.30289 
    2500     94.62426   -874.43322    73489.121   -17175.698    1279.4103   -18455.108     10.20078    241.67548 
    2550    94.043657   -711.21388    73457.489   -17228.612      1271.56   -18500.172    10.492087    240.19258 
    2600    93.310837    -541.3212    73507.702   -17186.156    1261.6516   -18447.807    10.800412    238.32092 
    2650    94.915306   -860.94307    73551.129    -17191.67    1283.3455   -18475.016    10.948025    242.41882 
    2700    94.928847    -808.5124    73568.713   -17220.169    1283.5286   -18503.698    11.061881    242.45341 
    2750    93.533146   -907.70037     73550.88   -17219.713    1264.6574   -18484.371    11.314358    238.88871 
    2800    96.448942    -676.1739    73575.945   -17178.692    1304.0817   -18482.773    11.664044    246.33581 
    2850    92.759037   -465.71122    73668.538   -17194.923    1254.1907   -18449.114     11.73136    236.91159 
    2900    94.925032   -899.64166    73676.646   -17159.147     1283.477   -18442.624    11.722198    242.44366 
    2950    94.150202   -770.55408    73762.131   -17131.928    1273.0006   -18404.928    11.944607     240.4647 
    3000    96.180386    -927.8329    73771.198   -17133.261    1300.4506   -18433.711     12.13229    245.64991 
    3050    92.960331   -941.54455    73764.358   -17154.231    1256.9124   -18411.144    12.256762    237.42571 
    3100    94.625054   -947.56541    73782.246   -17170.523     1279.421   -18449.944    12.252342     241.6775 
    3150    95.157117   -1021.0047    73790.544   -17175.217     1286.615   -18461.832    12.449266    243.03642 
    3200    94.250581   -620.13812    73827.338   -17144.279    1274.3578   -18418.637    12.653953    240.72108 
    3250    92.605555   -1353.4345    73760.734   -17161.036    1252.1155   -18413.151    12.675919    236.51959 
    3300    94.720336   -1144.1972    73676.013   -17180.408    1280.7093   -18461.117    12.828755    241.92086 
    3350     96.05298   -1263.2867     73664.63   -17190.169     1298.728   -18488.897    12.960433     245.3245 
    3400    95.081742   -1060.1131    73630.272   -17159.088    1285.5959   -18444.684    13.076766    242.84391 
    3450     93.60381   -736.49765    73604.488   -17180.362    1265.6128   -18445.975    13.319548    239.06919 
    3500    92.355995   -624.19678    73613.732   -17196.767    1248.7412   -18445.508    13.356647     235.8822 
    3550    96.056905    -1077.599    73653.786   -17153.583     1298.781   -18452.364    13.542595    245.33453 
    3600    94.354292   -1056.5814     73624.19   -17169.394    1275.7601   -18445.154    13.684129    240.98596 
    3650    96.271484   -633.64862    73656.556   -17183.154    1301.6823   -18484.836    13.853753    245.88257 
    3700    95.065737   -731.16532    73701.587   -17161.789    1285.3795   -18447.168    13.911035    242.80303 
    3750    96.841978   -736.58019    73681.113   -17140.776     1309.396   -18450.172    13.971515    247.33965 
    3800    93.805801   -774.27933    73671.582   -17181.777     1268.344   -18450.121    14.025882    239.58509 
    3850    92.128561   -562.02344    73693.123   -17206.008    1245.6661   -18451.674    13.995949    235.30132 
    3900    97.004134   -835.70831     73709.06   -17200.113    1311.5885   -18511.701    14.112508     247.7538 
    3950    94.179679   -823.41354    73725.389   -17178.067    1273.3991   -18451.466    14.565584    240.53999 
    4000    93.589914   -1015.8426    73694.526   -17216.233     1265.425   -18481.658       14.764     239.0337 
    4050    93.623465   -1035.5807    73654.805   -17249.496    1265.8786   -18515.375    14.937772    239.11939 
    4100     94.31336   -796.14904    73609.472   -17227.803    1275.2066    -18503.01    14.948938    240.88142 
    4150    92.090549   -638.31134    73573.776   -17276.259    1245.1521   -18521.411    15.074228    235.20424 
    4200    94.788171   -857.58947    73592.406   -17256.225    1281.6265   -18537.851    15.270399    242.09411 
    4250    93.874073   -775.27549    73604.774   -17245.335    1269.2671   -18514.602    15.424395    239.75946 
    4300    92.817632   -998.15778    73618.494   -17249.805     1254.983   -18504.788    15.618609    237.06125 
    4350     92.92946   -974.35891     73617.31    -17254.23     1256.495   -18510.725     15.68912    237.34686 
    4400    92.982954   -659.97662    73573.972    -17221.86    1257.2183   -18479.078    15.851456    237.48349 
    4450    94.418741   -822.57145    73617.863   -17192.962    1276.6315   -18469.593    16.184811    241.15057 
    4500    90.959086   -1035.7622    73612.444   -17247.819    1229.8536   -18477.672    16.283974    232.31442 
    4550     94.85196   -819.90253    73641.242   -17243.155     1282.489   -18525.645    16.389978    242.25703 
    4600    92.000857    -1116.382    73603.698   -17269.196    1243.9394   -18513.135     16.69274    234.97516 
    4650    91.484915   -986.19383    73543.854   -17272.758    1236.9634   -18509.721    16.776207    233.65742 
    4700    93.713997    -972.6635    73530.252   -17225.686    1267.1027   -18492.789    16.940911    239.35061 
    4750    95.015771   -991.40363    73523.518     -17231.4    1284.7039   -18516.104    17.151502    242.67541 
    4800    93.388296   -837.45016    73529.883   -17239.869    1262.6989   -18502.568     17.35409    238.51876 
    4850    92.609864   -866.34195     73541.75   -17263.975    1252.1737   -18516.149     17.74237     236.5306 
    4900    95.101483   -1187.1782    73593.067   -17237.449    1285.8628   -18523.312    18.155912    242.89433 
    4950    92.690229   -1015.9304    73607.869   -17240.932    1253.2604   -18494.192    18.370484    236.73586 
    5000    94.280574   -1396.9912    73560.495   -17248.599    1274.7633   -18523.363    18.430438    240.79768 
    5050    92.600239   -805.41242    73512.861   -17243.745    1252.0436   -18495.788    18.646195    236.50602 
    5100    92.945489   -815.30964     73552.31   -17232.823    1256.7117   -18489.535    18.703335     237.3878 
    5150    95.941811   -892.39116     73558.14   -17240.364    1297.2249   -18537.588    18.878618    245.04057 
    5200    92.971876   -1163.2949    73582.947   -17253.474    1257.0685   -18510.543    18.999495     237.4552 
    5250    94.007561   -867.51181    73562.556   -17275.473    1271.0719   -18546.545    19.135243    240.10039 
    5300    91.003361   -707.03394    73579.642   -17280.396    1230.4523   -18510.848    19.208312     232.4275 
    5350    92.102344   -806.80783    73601.931   -17269.113    1245.3116   -18514.425    19.356982    235.23436 
    5400    93.007707   -684.42516    73642.211   -17297.054     1257.553   -18554.607    19.559652    237.54671 
    5450    91.070652   -938.72912    73569.128    -17283.65    1231.3621   -18515.012    19.681767    232.59937 
    5500    94.115934   -1006.9129    73516.792   -17263.404    1272.5372   -18535.941     19.82169    240.37718 
    5550    93.010855    -847.0203    73554.342    -17287.47    1257.5955   -18545.066    19.869074    237.55475 
    5600    92.019469    -758.7917    73561.381   -17280.613     1244.191   -18524.804    20.009447     235.0227 
    5650    90.504026   -869.96916    73584.159   -17256.879    1223.7008    -18480.58    20.086425    231.15217 
    5700    93.462367   -805.13906    73580.454   -17236.655    1263.7004   -18500.356    20.222242    238.70794 
    5750    95.759286   -825.96535    73654.563   -17227.402    1294.7569   -18522.159    20.369412    244.57439 
    5800    92.144294   -839.79101    73691.622   -17231.132    1245.8788    -18477.01    20.588369    235.34151 
    5850    92.059612   -960.14609    73696.743   -17242.777    1244.7338   -18487.511    20.599156    235.12522 
    5900    93.737059   -884.27087    73665.726   -17246.749    1267.4145   -18514.164     20.59077    239.40952 
    5950    93.663607   -516.04883    73650.555   -17240.984    1266.4214   -18507.406    20.640118    239.22192 
    6000    94.171471   -734.19774    73655.009   -17273.522    1273.2882    -18546.81     20.89683    240.51903 
    6050    92.081807   -731.56255    73670.977   -17302.581    1245.0339   -18547.615    21.196819    235.18191 
    6100    88.899601   -825.58458    73690.229   -17294.181    1202.0074   -18496.188     21.41689    227.05439 
    6150    90.615679   -785.79773    73755.024    -17297.12    1225.2105   -18522.331     21.58712    231.43734 
    6200    90.253894   -785.32158    73737.229   -17301.416    1220.3188   -18521.734    21.846368    230.51332 
    6250    93.083118   -1187.1624    73789.591   -17265.997    1258.5726   -18524.569    22.019709    237.73931 
    6300    92.966287   -1054.0658    73781.682   -17259.116    1256.9929   -18516.109    22.198122    237.44092 
    6350    92.791092   -1102.2852    73762.249   -17242.144    1254.6241   -18496.768    22.442705    236.99346 
    6400    92.776051   -943.46753    73711.293   -17274.542    1254.4208   -18528.962     22.55935    236.95505 
    6450    92.208311   -1167.3165      73700.3   -17251.073    1246.7444   -18497.818    22.708292    235.50501 
    6500    93.767131   -1034.4203    73682.303   -17246.196    1267.8211   -18514.017    23.118069    239.48632 
    6550    96.172322   -869.65966    73710.503   -17260.056    1300.3416   -18560.397    23.260802    245.62931 
    6600    93.834405    -893.9041    73675.977   -17235.296    1268.7307   -18504.027    23.367994    239.65814 
    6650    93.061736   -759.47159    73668.127   -17231.015    1258.2835   -18489.298    23.490583     237.6847 
    6700    93.233026   -1058.5978    73717.121   -17215.539    1260.5995   -18476.138    23.674335    238.12219 
    6750    92.411192   -1094.2421    73677.011   -17235.985    1249.4875   -18485.473    23.793934    236.02318 
    6800    90.478184   -771.64661    73674.301   -17247.729    1223.3514   -18471.081    23.826717    231.08617 
    6850     89.26997   -1210.5017    73645.236   -17291.283    1207.0152   -18498.298    23.860767    228.00033 
    6900    89.902293    -809.3312    73580.191   -17276.822    1215.5648   -18492.387    24.009628    229.61532 
    6950     92.91113   -914.12347    73553.604   -17255.755    1256.2472   -18512.002     24.20859    237.30005 
    7000    89.277149   -1042.4014    73481.229    -17240.34    1207.1123   -18447.453    24.577423    228.01866 
    7050    91.277727   -1047.9517    73458.307   -17208.319     1234.162   -18442.481    24.755249    233.12825 
    7100    92.458946   -1051.3429    73458.407   -17203.393    1250.1332   -18453.527    24.791252    236.14515 
    7150     93.00693   -806.35124    73497.042   -17210.756    1257.5425   -18468.298    24.859304    237.54473 
    7200    93.449957    -666.9369    73472.141   -17192.927    1263.5326   -18456.459     25.16209    238.67624 
    7250     93.50854    -949.9699    73449.627   -17215.642    1264.3247   -18479.967    25.341466    238.82587 
    7300    94.852828   -764.69693    73501.773    -17201.15    1282.5008   -18483.651    25.606172    242.25925 
    7350     94.14618   -595.31925    73586.422   -17189.805    1272.9462   -18462.751    25.917965    240.45443 
    7400    91.625756   -630.18601    73644.341   -17157.339    1238.8677   -18396.206     26.33957    234.01713 
    7450     93.76017   -753.25976     73677.19   -17149.474     1267.727   -18417.201    26.499157    239.46854 
    7500    95.151801   -1019.1376    73703.836   -17179.548    1286.5432   -18466.091    26.559566    243.02284 
    7550    93.011505   -1330.1431    73672.044   -17232.223    1257.6043   -18489.827    26.700199    237.55641 
    7600     96.13537   -745.33082    73601.341    -17215.77     1299.842   -18515.612    26.975195    245.53493 
    7650    96.044926   -886.73609    73617.457   -17221.027    1298.6191   -18519.647    27.198152    245.30393 
    7700    93.536105   -951.97328    73609.731   -17244.246    1264.6974   -18508.943    27.509904    238.89627 
    7750    92.985488   -963.01133    73617.232   -17245.503    1257.2525   -18502.755    27.552612    237.48996 
    7800    93.996417   -880.22826    73640.916   -17203.628    1270.9213    -18474.55    27.709716    240.07193 
    7850    95.894393   -688.10064    73612.486   -17180.045    1296.5837   -18476.628    27.867299    244.91946 
    7900    94.906788   -1293.1947    73558.663    -17202.19    1283.2304    -18485.42    28.133972    242.39707 
    7950    94.148863   -1143.1484    73513.405   -17198.305    1272.9825   -18471.287    28.559887    240.46128 
    8000    97.232395   -824.48645    73506.681   -17184.672    1314.6748   -18499.346     28.68917    248.33679 
    8050     97.15299   -890.75539    73565.966   -17192.936    1313.6011   -18506.537    28.898044    248.13399 
    8100    96.997941   -693.14288    73670.194   -17151.188    1311.5047   -18462.693    29.120829    247.73798 
    8150    95.158283   -1195.4136    73694.576   -17148.145    1286.6308   -18434.776    29.429705     243.0394 
    8200    96.459816   -1520.6249    73606.772   -17157.893    1304.2288   -18462.121    29.927316    246.36358 
    8250    93.533413   -1078.4751    73549.781   -17205.851     1264.661   -18470.512    29.995607    238.88939 
    8300    95.725922   -1006.5697    73496.572   -17200.256    1294.3058   -18494.562    30.030676    244.48918 
    8350    94.951503   -730.61722     73449.35   -17207.764    1283.8349   -18491.599    30.183826    242.51127 
    8400    94.918242   -937.35732    73421.443   -17199.665    1283.3852    -18483.05    30.580216    242.42632 
    8450    95.432716   -1232.5957     73339.57   -17212.487    1290.3414   -18502.829    30.792363    243.74032 
    8500    98.184106   -1062.0613    73346.615   -17185.771    1327.5428   -18513.314    31.118613    250.76751 
    8550    96.306972   -848.31116    73418.685   -17206.756    1302.1622   -18508.918    31.366761    245.97321 
    8600    92.087429   -856.10277    73412.183   -17242.259    1245.1099   -18487.369    31.598552    235.19627 
    8650    93.047383   -1089.9252    73368.933   -17241.106    1258.0894   -18499.196    31.579144    237.64804 
    8700     93.67143   -791.08427    73347.327   -17251.274    1266.5271   -18517.802    31.729886    239.24189 
    8750    93.899932   -758.47822    73379.436   -17247.844    1269.6167    -18517.46    31.782639     239.8255 
    8800    94.325017   -1061.0219    73379.688   -17243.956    1275.3643   -18519.321     32.04988    240.91119 
    8850    93.683934   -1030.1999    73385.268   -17254.084    1266.6962    -18520.78    31.999191    239.27383 
    8900     95.66533   -813.32247    73385.695   -17278.642    1293.4866   -18572.128    32.042263    244.33442 
    8950    95.759186   -862.24318     73372.24   -17266.095    1294.7556   -18560.851    32.317557    244.57414 
    9000    93.980189    -884.2643    73456.333   -17262.514    1270.7018   -18533.216    32.413704    240.03048 
    9050    93.466369   -727.54622    73482.289   -17270.606    1263.7545    -18534.36    32.366446    238.71816 
    9100    92.213189   -702.39653    73479.247   -17261.356    1246.8103   -18508.166    32.408669    235.51747 
    9150    95.849204   -617.71199    73558.204   -17235.864    1295.9727   -18531.837    32.453774    244.80405 
    9200    93.714518   -1055.0103    73624.448   -17247.517    1267.1097   -18514.627    32.649276    239.35194 
    9250    95.135011   -735.75964    73607.934   -17270.854    1286.3161    -18557.17    32.836247    242.97996 
    9300    92.735236   -853.84449    73585.319   -17234.376    1253.8689   -18488.245    33.230094     236.8508 
    9350    93.937933   -655.01199    73584.727   -17261.801    1270.1305   -18531.931    33.449553    239.92256 
    9400     94.01263   -732.36143    73605.004   -17262.367    1271.1405   -18533.507    33.546753    240.11334 
    9450    94.133612     -977.914    73597.109   -17250.908    1272.7763   -18523.684    33.819277    240.42233 
    9500    92.732433    -964.6795    73605.527   -17264.218     1253.831   -18518.049    33.947145    236.84365 
    9550    93.396089   -807.80917    73600.805   -17253.035    1262.8043   -18515.839     33.99246    238.53866 
    9600    91.539187   -993.27802    73590.082   -17257.318    1237.6972   -18495.015    34.154506    233.79603 
    9650    94.358629   -603.61835    73570.557   -17236.178    1275.8187   -18511.996    34.187439    240.99704 
    9700    91.989667   -975.34974    73551.605   -17274.448    1243.7881   -18518.236    34.344606    234.94658 
    9750    94.018476   -815.62197    73507.701   -17271.947    1271.2195   -18543.167    34.519965    240.12827 
    9800    91.611789   -1114.7656    73448.777   -17293.048    1238.6788   -18531.727    34.532347    233.98146 
    9850     92.90371   -834.35169    73488.608   -17254.652    1256.1468   -18510.799    34.720628     237.2811 
    9900    92.566057   -627.02618    73458.556   -17249.231    1251.5814   -18500.813    34.726687    236.41871 
    9950    93.990248   -586.52876    73525.384   -17243.655    1270.8379   -18514.493    34.700089    240.05617 
   10000    92.487908   -1030.0202    73508.345   -17233.114    1250.5248   -18483.639     34.89343    236.21912 
   10050    92.350408   -861.26603    73515.739   -17254.852    1248.6657   -18503.518    35.076182    235.86793 
   10100    93.921054    -1039.087    73560.166   -17250.244    1269.9023   -18520.146     35.20492    239.87945 
   10150    94.786814   -961.74372    73581.845   -17234.526    1281.6082   -18516.134    35.351329    242.09065 
   10200    92.357665   -907.16503    73593.092   -17240.331    1248.7638   -18489.095    35.537879    235.88647 
   10250    91.087082   -950.57147    73621.331   -17214.392    1231.5843   -18445.977    35.850798    232.64133 
   10300    89.074906   -882.34351    73622.519   -17244.528    1204.3777   -18448.906    35.868561    227.50213 
   10350     95.85818   -615.89379    73666.162   -17227.507    1296.0941   -18523.601    36.228843    244.82697 
   10400    91.628105   -773.25113    73689.936   -17214.468    1238.8994   -18453.367    36.377261    234.02313 
   10450    91.788484    -867.2743    73759.873   -17254.118    1241.0679   -18495.186    36.584211    234.43275 
   10500    93.085732    -692.0001    73730.764   -17252.188    1258.6079   -18510.795    36.880545    237.74599 
   10550    94.718851   -765.15993    73743.974   -17244.265    1280.6893   -18524.954    36.970429    241.91707 
   10600    93.910434   -1075.0219    73792.892   -17260.375    1269.7587   -18530.133     36.80331    239.85232 
   10650    92.135639   -833.00202     73838.04   -17233.165    1245.7618   -18478.927    36.770884     235.3194 
   10700    93.509071    -709.5595    73878.752   -17221.085    1264.3319   -18485.417    36.886921    238.82722 
   10750    93.216807   -878.81316    73940.803   -17259.687    1260.3802   -18520.067    37.256515    238.08077 
   10800    92.591137   -1086.8493    73896.931   -17274.938    1251.9205   -18526.858    37.605048    236.48277 
   10850    92.991008   -1451.1232    73871.983   -17246.265    1257.3272   -18503.593    37.367084    237.50406 
   10900    90.465221   -955.74836    73805.521   -17258.408    1223.1761   -18481.584      37.4682    231.05306 
   10950    92.454101   -935.68949      73839.8   -17243.502    1250.0677    -18493.57    37.463965    236.13277 
   11000    92.905516   -936.88384    73830.424   -17248.873    1256.1712   -18505.044    37.620789    237.28571 
   11050    92.182489   -619.86356    73838.045   -17222.726    1246.3952   -18469.121    37.997266    235.43906 
   11100    94.534564   -700.87438    73865.873   -17244.692    1278.1975    -18522.89    38.086239    241.44639 
   11150    92.936036    -1138.459    73859.235   -17230.162    1256.5839   -18486.746    38.223057    237.36366 
   11200    93.082979   -1076.9279    73849.163    -17221.82    1258.5707   -18480.391    38.293578    237.73896 
   11250    92.644066   -686.33907    73852.594   -17188.435    1252.6362   -18441.071    38.743913    236.61795 
   11300    97.150738    -799.9277    73814.198   -17138.492    1313.5707   -18452.063    38.919018    248.12824 
   11350    95.187491   -480.19186    73846.738   -17148.129    1287.0257   -18435.155    39.121396      243.114 
   11400    95.537367   -1151.5429    73846.269   -17156.063    1291.7564    -18447.82    39.043376     244.0076 
   11450    98.276396   -1072.4057    73882.021   -17134.351    1328.7907   -18463.142    39.285558    251.00323 
   11500      94.5072   -814.16873      73904.4   -17157.928    1277.8275   -18435.756    39.668499     241.3765 
   11550    94.745138    -882.3813    73935.342   -17176.063    1281.0447   -18457.107    40.128976     241.9842 
   11600    93.985786   -950.05979     73958.81    -17147.94    1270.7775   -18418.717    40.404432    240.04478 
   11650    96.809931   -1065.9313    73948.665   -17205.421    1308.9627   -18514.383    40.418836     247.2578 
   11700    94.095059   -959.82846    73858.874   -17184.419     1272.255   -18456.674     40.48079    240.32387 
   11750    92.508168   -926.70219    73829.606   -17218.291    1250.7987    -18469.09    40.582734    236.27086 
   11800    92.365604   -531.68779    73815.442   -17265.836    1248.8711   -18514.708    40.894253    235.90675 
   11850    94.171379   -933.74453    73879.543   -17236.013    1273.2869     -18509.3    41.539653    240.51879 
   11900      91.7642   -747.71182    73850.438   -17239.854    1240.7396   -18480.593    41.656933    234.37073 
   11950    91.152128   -1278.1991    73861.097   -17273.353    1232.4638   -18505.816    42.050695    232.80746 
   12000    94.266465    -1174.436    73769.183   -17267.501    1274.5726   -18542.074    42.180804    240.76165 
   12050    95.078069   -843.37016    73757.026   -17260.646    1285.5462   -18546.192    42.457353    242.83453 
   12100    91.399661   -932.39315    73761.304   -17274.955    1235.8107   -18510.766    42.526576    233.43968 
   12150    91.314649    -1007.731    73778.837    -17264.96    1234.6612   -18499.621    42.793752    233.22255 
   12200    94.524728   -912.65113    73787.416   -17193.514    1278.0645   -18471.578    42.762004    241.42127 
   12250    93.030269    -1037.697    73804.883   -17219.198     1257.858   -18477.056    42.757912    237.60434 
   12300     95.16695   -1157.9249    73800.135   -17228.101     1286.748   -18514.849    42.810754    243.06153 
   12350    92.465259   -679.56012    73786.996   -17204.627    1250.2185   -18454.846     42.88995    236.16127 
   12400    93.118328    -337.9978     73824.01   -17211.658    1259.0487   -18470.707    42.981566    237.82924 
   12450    94.049958   -964.91682    73819.499   -17222.802    1271.6452   -18494.447    43.034267    240.20868 
   12500    93.642922    -631.6247    73743.492   -17172.525    1266.1417   -18438.666    43.201506    239.16908 
   12550    94.878147   -1058.4414    73763.012   -17173.916    1282.8431   -18456.759    43.302867    242.32392 
   12600     94.96907   -984.08977    73774.909    -17181.02    1284.0725   -18465.093    43.435687    242.55614 
   12650    93.250903   -730.59794     73737.28    -17189.43    1260.8412   -18450.271    43.358953    238.16785 
   12700    96.219654   -983.11237    73682.482   -17167.816    1300.9815   -18468.798    43.317161     245.7502 
   12750    95.595703   -1261.2355    73616.863   -17146.803    1292.5451   -18439.348    43.451836    244.15659 
   12800    95.720318   -541.79981    73583.424     -17136.4    1294.2301    -18430.63    43.722958    244.47487 
   12850    96.011404   -1288.0195     73578.93   -17174.227    1298.1658   -18472.392    44.074131    245.21832 
   12900    96.840621   -650.51444    73552.894   -17160.841    1309.3776   -18470.219    44.324915    247.33618 
   12950    96.175866   -801.04005    73620.863    -17185.43    1300.3895    -18485.82    44.583271    245.63836 
   13000    93.789326   -838.25456    73640.662   -17193.707    1268.1212   -18461.828     44.90396    239.54301 
   13050    94.948571   -1273.9578    73642.187   -17202.715    1283.7953   -18486.511     44.81878    242.50378 
   13100    91.826094   -780.17342    73654.192   -17218.334    1241.5764    -18459.91    45.042478    234.52881 
   13150    93.106534    -1023.768    73656.948   -17241.541    1258.8892    -18500.43    45.358784    237.79912 
   13200    90.294012   -1140.0842    73598.712   -17227.046    1220.8612   -18447.907    45.622571    230.61579 
   13250    92.803568   -788.05677    73618.735    -17212.19    1254.7928   -18466.983    45.683421    237.02533 
   13300    94.350316    -1300.654    73681.446   -17231.396    1275.7063   -18507.102    45.987455    240.97581 
   13350    91.734672    -938.9603    73631.211   -17204.767    1240.3403   -18445.107    46.089276    234.29531 
   13400    95.233427   -766.56891    73622.922   -17206.487    1287.6468   -18494.134    45.838309    243.23132 
   13450    95.524078    -715.7648    73610.384   -17192.855    1291.5767   -18484.432     45.77523    243.97366 
   13500    92.211369   -769.11952    73607.555   -17210.533    1246.7857   -18457.319     46.00186    235.51282 
   13550    95.577781   -1097.2078    73594.793   -17171.061    1292.3028   -18463.364    46.389288    244.11082 
   13600    96.657448   -567.13947     73586.26    -17163.67    1306.9009   -18470.571    46.480106    246.86835 
   13650    91.126977   -820.09099     73567.79   -17198.953    1232.1237   -18431.076    46.406816    232.74323 
   13700     96.50864    -725.7615    73465.691   -17160.106    1304.8889   -18464.995    46.224061    246.48828 
   13750    93.707781   -1256.3228     73447.06   -17170.574    1267.0186   -18437.592    46.330176    239.33474 
   13800    96.785797   -1153.1386    73406.967    -17146.51    1308.6363   -18455.146    46.685061    247.19616 
   13850    96.101889   -1135.0794    73378.809    -17126.81    1299.3893   -18426.199    47.009304    245.44942 
   13900    97.670501   -780.68336    73457.519   -17118.553    1320.5984   -18439.151    47.558645    249.45574 
   13950    95.231263    -953.6847    73468.478   -17162.455    1287.6176   -18450.072     47.66551    243.22579 
   14000    95.004377   -1194.9739     73400.11   -17197.662    1284.5498   -18482.211    47.576135    242.64631 
   14050    95.277845   -707.86421    73358.973   -17193.737    1288.2474   -18481.984    47.900275    243.34477 
   14100    94.747317   -791.45496    73397.519   -17175.832    1281.0742   -18456.907    47.987719    241.98977 
   14150    90.337269   -948.23159    73376.336   -17169.343    1221.4461   -18390.789    48.244741    230.72627 
   14200    95.146695   -669.00223    73346.208   -17179.327    1286.4741   -18465.801    48.876384     243.0098 
   14250    93.254705   -863.32617    73383.309   -17206.778    1260.8926   -18467.671    49.448369    238.17756 
   14300    92.938155    -890.3027    73451.552   -17193.259    1256.6126   -18449.871    49.479447    237.36907 
   14350    94.864258    -915.0872    73474.183   -17202.932    1282.6553   -18485.587     49.40851    242.28844 
   14400    92.266133    -792.7104     73535.21   -17165.063    1247.5262   -18412.589    49.428165    235.65269 
   14450    96.379671    -790.6401    73578.847   -17142.819    1303.1451   -18445.964    49.259147    246.15889 
   14500    91.824826   -712.91565    73568.023   -17194.501    1241.5593    -18436.06      49.2617    234.52557 
   14550    94.215542   -807.10631     73583.18   -17216.657     1273.884   -18490.541    49.283028    240.63159 
   14600    95.165932   -792.54709    73575.732   -17206.909    1286.7342   -18493.643    49.410518    243.05893 
   14650    94.928061   -716.12377    73535.532   -17225.731     1283.518   -18509.249    49.676688     242.4514 
   14700    97.457482    -1097.163    73521.626   -17210.486    1317.7182   -18528.204    50.185143    248.91168 
   14750    93.726374   -1099.9779    73571.327   -17189.285      1267.27   -18456.555    50.307286    239.38223 
   14800    94.666996   -746.05412    73622.538   -17181.457    1279.9881   -18461.445    50.306621    241.78462 
   14850     94.14509   -940.25681    73654.841   -17189.658    1272.9315   -18462.589    50.679505    240.45165 
   14900    94.320077   -895.06553    73630.067    -17190.62    1275.2975   -18465.917    50.954646    240.89858 
   14950    92.819692   -1016.8888    73672.082   -17180.354    1255.0108   -18435.365    50.894783    237.06651 
   15000    91.577487   -1274.3565    73660.455     -17194.9     1238.215   -18433.115    51.022149    233.89385 
   15050    93.806099   -934.09314    73695.153   -17184.642     1268.348    -18452.99    50.993908    239.58585 
   15100    92.769979   -1073.7159    73689.302   -17179.885    1254.3387   -18434.224     51.17301    236.93954 
   15150    96.702913     -754.623     73722.13   -17178.747    1307.5157   -18486.263    51.332944    246.98447 
   15200    95.116276   -992.61161    73785.934   -17195.334    1286.0628   -18481.396    51.588305    242.93211 
   15250    94.144602   -947.35841    73723.568   -17209.317    1272.9249   -18482.242    51.645978     240.4504 
   15300    93.859703   -671.89511    73724.918    -17202.56    1269.0728   -18471.633    51.831013    239.72275 
   15350    90.576637   -854.79974    73737.222   -17197.135    1224.6826   -18421.817    52.132047    231.33763 
   15400    93.261722   -969.33331    73736.083   -17198.528    1260.9875   -18459.515    52.169207    238.19548 
   15450    96.007122   -1153.8508    73716.761   -17199.055    1298.1079   -18497.163    52.119123    245.20738 
   15500    92.454039   -941.11871    73692.096   -17224.903    1250.0668    -18474.97    52.087143    236.13261 
   15550    91.798819   -839.75005    73744.493   -17243.408    1241.2076   -18484.616    52.192393    234.45914 
   15600    95.087488   -1116.6929    73681.342   -17212.625    1285.6736   -18498.298    52.373364    242.85858 
   15650    92.850622   -721.45691    73653.165   -17228.993     1255.429   -18484.422    52.643548    237.14551 
   15700    87.374319   -577.21698    73669.799   -17244.056    1181.3842   -18425.441    52.782067    223.15873 
   15750    95.546721   -710.34942    73706.198   -17227.107    1291.8829    -18518.99    53.018474    244.03149 
   15800    92.042707   -1059.0591    73685.696   -17244.614    1244.5052   -18489.119    53.289239    235.08205 
   15850    93.597403   -757.32804    73720.178   -17218.343    1265.5262    -18483.87    53.609487    239.05283 
   15900    95.846573   -846.37916    73731.058   -17182.598    1295.9371   -18478.535    53.892354    244.79733 
   15950    92.565273   -980.66405    73727.457   -17210.185    1251.5708   -18461.756    54.014531    236.41671 
   16000    94.854118   -1216.1389    73756.741   -17193.995    1282.5182   -18476.513    54.142538    242.26254 
   16050    97.225283   -817.35173    73756.379   -17159.256    1314.5786   -18473.834    54.246883    248.31863 
   16100    95.360315   -935.00289    73789.766   -17134.905    1289.3625   -18424.267     54.50596     243.5554 
   16150    96.164896   -984.10923    73733.127   -17162.138    1300.2412   -18462.379    54.750578    245.61034 
   16200    95.785907   -880.90729    73686.014   -17155.672    1295.1169   -18450.789    54.771558    244.64238 
   16250    98.427683   -1163.0976    73631.044   -17121.187    1330.8362   -18452.023    55.014098    251.38962 
   16300      97.4325   -1245.2187    73601.806   -17184.943    1317.3804   -18502.324    55.114578    248.84787 
   16350    91.940201   -928.30669    73553.641   -17168.731    1243.1193   -18411.851    54.887168    234.82024 
   16400    93.544496   -1094.3389    73506.327   -17170.644    1264.8109   -18435.455    55.107798     238.9177 
   16450    94.575718   -1160.8284    73450.642   -17201.028     1278.754   -18479.782    55.340801     241.5515 
   16500    96.677116    -838.9231    73483.337   -17179.768    1307.1669   -18486.935    55.159075    246.91858 
   16550    97.789196   -1083.7094    73470.892   -17191.412    1322.2033   -18513.616    55.162441    249.75889 
   16600    94.284948   -1362.0443    73445.918   -17197.012    1274.8225   -18471.834    55.303787    240.80885 
   16650    94.326107   -611.82709    73507.266   -17140.208     1275.379   -18415.587    55.400647    240.91398 
   16700    93.709983   -996.89105    73551.922    -17157.13    1267.0484   -18424.178    55.714329    239.34036 
   16750      95.8673    -696.5604    73530.718   -17183.328    1296.2174   -18479.546     56.14914    244.85027 
   16800    93.147409   -884.46705    73569.283   -17186.149    1259.4419   -18445.591    56.414911    237.90352 
   16850    94.592738   -775.68945    73601.612   -17199.408    1278.9841   -18478.392    56.607099    241.59497 
   16900    95.211373   -647.17949    73615.118   -17215.614    1287.3486   -18502.963    56.930798    243.17499 
   16950    94.994315   -1026.2011    73655.223   -17207.557    1284.4138   -18491.971    57.238892    242.62062 
   17000    92.054333    -958.2486    73600.577   -17213.953    1244.6624   -18458.615    57.400854    235.11174 
   17050    93.876838   -730.08138    73616.895   -17220.739    1269.3044   -18490.043     57.44238    239.76652 
   17100    91.274321   -1084.9237    73625.769   -17244.023    1234.1159   -18478.138    57.674851    233.11955 
   17150    92.837161   -901.28704     73575.44   -17242.547     1255.247   -18497.794    57.668563    237.11113 
   17200    93.174143   -815.11291    73594.387   -17270.823    1259.8033   -18530.627    57.771198     237.9718 
   17250    90.000093   -929.35535    73650.822   -17266.404    1216.8872   -18483.291    57.880695     229.8651 
   17300    92.739257   -1174.7631    73639.478   -17251.449    1253.9233   -18505.373    58.213383    236.86107 
   17350    91.902673   -936.99264    73622.169   -17277.862    1242.6118   -18520.474    58.435282    234.72439 
   17400    93.908049   -869.88343    73574.048   -17260.427    1269.7265   -18530.154    58.948219    239.84623 
   17450    95.958456   -666.11569    73654.184   -17230.255    1297.4499   -18527.705    59.063548    245.08308 
   17500    92.356402   -698.76558    73631.695   -17277.567    1248.7467   -18526.313    59.346382    235.88324 
   17550    92.053303   -915.79531    73680.446   -17263.942    1244.6485    -18508.59    59.366127    235.10911 
   17600    94.394873   -901.96455    73662.355   -17264.494    1276.3088   -18540.803    59.172732    241.08961 
   17650    95.888025   -1074.3941    73726.541   -17255.027    1296.4976   -18551.524    59.231583     244.9032 
   17700    94.385477    -645.4933     73780.83   -17278.932    1276.1817   -18555.114    59.244315    241.06561 
   17750    91.954321   -710.46007     73843.89   -17273.193    1243.3102   -18516.503    59.389572    234.85631 
   17800      94.5725   -1060.1508     73833.53   -17293.741    1278.7105   -18572.451     59.60188    241.54328 
   17850    93.455344   -1077.7095    73794.943   -17243.838    1263.6054   -18507.444    59.701177       238.69 
   17900    90.943277    -1115.041    73717.577   -17279.868    1229.6399   -18509.507    59.677973    232.27404 
   17950    93.752619   -994.25442    73723.372   -17253.739    1267.6249   -18521.364     59.82784    239.44926 
   18000    93.134696     -520.073    73697.842   -17250.685      1259.27   -18509.955    59.914027    237.87105 
   18050    92.423476   -572.78109    73752.886   -17280.277    1249.6536   -18529.931    60.199003    236.05455 
   18100     95.52441   -478.76061    73769.962   -17249.106    1291.5812   -18540.687    60.590961    243.97451 
   18150     94.27652   -704.45267    73755.637   -17261.237    1274.7085   -18535.945    60.911261    240.78733 
   18200    92.567397   -953.13974    73717.806   -17299.167    1251.5995   -18550.767     60.84727    236.42214 
   18250    91.211182   -890.60625    73748.999   -17297.937    1233.2622     -18531.2    60.782802    232.95829 
   18300    94.609467   -661.08534    73778.608   -17242.016    1279.2103   -18521.227     60.54058    241.63769 
   18350    93.104256   -615.92401    73788.728   -17261.137    1258.8584   -18519.995    60.718562     237.7933 
   18400     94.12843   -616.24899    73816.181   -17247.467    1272.7062   -18520.173    60.941804     240.4091 
   18450    91.801104   -674.36856    73792.161   -17270.654    1241.2385   -18511.892    60.818478    234.46498 
   18500    91.522103   -685.60097     73780.35   -17283.169    1237.4662   -18520.635    60.944943     233.7524 
   18550    90.794546   -637.81321    73745.286   -17293.573    1227.6289   -18521.202    60.856081    231.89418 
   18600    91.810765   -753.00184    73788.269   -17266.834    1241.3692   -18508.203    60.984346    234.48966 
   18650    91.027417   -829.14125    73858.124   -17254.628    1230.7775   -18485.405    61.277157    232.48894 
   18700    95.534002   -767.38624    73907.912   -17241.864    1291.7109   -18533.575    61.498945      243.999 
   18750    95.701775    -395.0518    73917.374    -17201.88    1293.9793   -18495.859    61.754507    244.42751 
   18800    98.001461   -789.95545    73937.164   -17202.236    1325.0733   -18527.309    61.794091    250.30103 
   18850    93.550823   -811.94019    73976.713   -17215.093    1264.8964    -18479.99    61.898104    238.93386 
   18900    96.221579   -1084.9777    73997.416   -17202.229    1301.0076   -18503.236    62.145106    245.75511 
   18950    94.170756   -733.08066    74015.991   -17194.142    1273.2785    -18467.42    62.386734     240.5172 
   19000    93.773532   -735.26753    73965.673   -17206.595    1267.9076   -18474.502    62.682426    239.50267 
   19050    95.539882   -651.91104    73930.903   -17202.663    1291.7904   -18494.454    63.265806    244.01402 
   19100    94.695619   -1077.1422    73931.835   -17183.707    1280.3751   -18464.082    63.362796    241.85773 
   19150    96.897309   -1098.2591    73943.277   -17201.756    1310.1441     -18511.9    63.293013    247.48097 
   19200     94.34796   -971.50619    73939.284   -17234.956    1275.6745    -18510.63    63.716312    240.96979 
   19250    94.229433   -748.86347    73987.138   -17239.552    1274.0719   -18513.624    63.697826    240.66707 
   19300    93.922499   -938.23988    74018.081   -17193.539    1269.9218   -18463.461    63.750075    239.88314 
   19350    96.592009   -798.44785    74079.674   -17176.612    1306.0162   -18482.628    63.853237    246.70121 
   19400     94.68867   -697.78321    74121.824   -17170.425    1280.2812   -18450.706     63.76733    241.83998 
   19450    94.227748   -812.01282    74137.241   -17197.218    1274.0491   -18471.267    63.868865    240.66276 
   19500    95.498541   -882.41921    74108.247    -17189.79    1291.2314   -18481.021    63.955066    243.90844 
   19550    94.152337   -485.89342    74115.192   -17207.366    1273.0295   -18480.395      64.1267    240.47016 
   19600    96.738241   -713.05274     74177.79   -17183.192    1307.9933   -18491.186    64.599156     247.0747 
   19650    94.911217   -424.71691     74246.53   -17237.454    1283.2902   -18520.745    64.730329    242.40838 
   19700    94.395497   -730.65472    74341.834   -17264.223    1276.3172   -18540.541    65.297792     241.0912 
   19750    93.900076   -904.20914    74390.968   -17241.792    1269.6186   -18511.411    65.628062    239.82587 
   19800    93.153182   -830.31056    74435.668   -17249.285    1259.5199   -18508.805    65.823833    237.91826 
   19850    90.030524   -693.68222    74419.478   -17309.773    1217.2986   -18527.072    66.033733    229.94282 
   19900    92.386208   -1109.8934    74368.041   -17270.277    1249.1497   -18519.427    66.095488    235.95937 
   19950    92.482405   -1103.3271    74303.779   -17247.873    1250.4504   -18498.323    66.365604    236.20506 
   20000    91.609483   -902.21573    74294.705    -17242.56    1238.6476   -18481.207    66.379628    233.97557 
   20050    90.947915   -1019.5306    74297.145   -17277.797    1229.7026     -18507.5     66.60181    232.28589 
   20100    93.222571   -857.11588    74357.816   -17266.429    1260.4581   -18526.887    66.592829    238.09549 
   20150    93.307335   -890.89347     74396.47   -17227.377    1261.6042   -18488.981     66.74712    238.31198 
   20200    92.811245   -1016.6789    74421.532   -17258.281    1254.8966   -18513.177    66.778219    237.04494 
   20250    92.581673   -983.11249     74444.03   -17281.395    1251.7926   -18533.187    66.827393     236.4586 
   20300    94.254188   -565.00942    74455.009   -17257.391    1274.4066   -18531.798    66.872625    240.73029 
   20350    95.784237   -943.63292     74479.96   -17252.907    1295.0943   -18548.002    67.138351    244.63812 
   20400    96.142451   -993.95886    74485.121   -17262.497    1299.9377   -18562.435    67.165821    245.55302 
   20450    91.997995    -1115.302    74406.761   -17226.663    1243.9007   -18470.564    67.467371    234.96785 
   20500    93.722768    -1141.629    74297.776   -17255.697    1267.2213   -18522.918    67.448631    239.37302 
   20550    94.946211   -892.01212    74176.719   -17260.751    1283.7634   -18544.514    67.603593    242.49775 
   20600    94.301808   -886.82855    74139.098   -17232.277    1275.0504   -18507.327    67.827632    240.85191 
   20650     94.08304    -771.0982    74155.124   -17216.537    1272.0925   -18488.629    68.214513    240.29317 
   20700    96.565306   -929.35819    74147.185    -17232.44    1305.6551   -18538.095    68.462998    246.63301 
   20750    96.207289   -505.41196    74145.801   -17211.621    1300.8144   -18512.436    68.462011    245.71862 
   20800    94.594414   -984.98417    74095.536   -17192.163    1279.0068    -18471.17    68.451748    241.59925 
   20850    94.550327   -874.17222    74044.532   -17234.054    1278.4107   -18512.465    68.559605    241.48664 
   20900    95.831049   -1055.8365    74018.523   -17227.041    1295.7272   -18522.768    68.447337    244.75768 
   20950    93.691142   -905.65722    73988.113   -17204.377    1266.7937   -18471.171    68.489448    239.29224 
   21000    95.759381   -685.91069    74019.641   -17191.414    1294.7582   -18486.172    68.608799    244.57464 
   21050    93.791922   -953.56685    74036.076   -17187.364    1268.1563    -18455.52    68.790154    239.54964 
   21100    94.624517   -861.87623    74046.732   -17205.112    1279.4138   -18484.526    69.060475    241.67613 
   21150    94.546554   -956.24881    74027.499   -17211.842    1278.3596   -18490.202    69.364965    241.47701 
   21200    96.765482   -993.09518    73996.843    -17178.87    1308.3617   -18487.232    69.893433    247.14427 
   21250    96.212349   -887.62872    73902.767   -17154.963    1300.8828   -18455.846    70.010452    245.73154 
   21300    95.529572   -1098.2197    73898.543   -17167.148     1291.651   -18458.799    70.216458    243.98769 
   21350     95.63545    -938.5843    73956.998   -17181.742    1293.0826   -18474.824    70.393702    244.25811 
   21400    91.840916   -783.08664    73988.456   -17226.815    1241.7768   -18468.591    70.455644    234.56666 
   21450    91.419169   -1126.1177    73879.546   -17198.693    1236.0744   -18434.767    70.706422     233.4895 
   21500    93.348451   -798.78242    73839.956   -17206.982    1262.1602   -18469.143    70.502789    238.41699 
   21550     94.01676    -1006.058    73854.562    -17202.47    1271.1963   -18473.666    70.639327    240.12389 
   21600    94.192583   -864.75458    73884.186   -17181.112    1273.5736   -18454.686    71.093772    240.57295 
   21650    93.274033   -995.57567    73902.811   -17197.013    1261.1539   -18458.167    71.362424    238.22692 
   21700    93.524154   -946.80012    73896.357   -17181.693    1264.5358   -18446.229    71.277915    238.86574 
   21750    94.882666   -980.33429    73879.789   -17161.007    1282.9042   -18443.911     71.37908    242.33546 
   21800    94.623226   -559.75457    73917.582   -17174.244    1279.3963   -18453.641       71.791    241.67283 
   21850    94.437051   -770.12082    73930.046   -17136.153    1276.8791   -18413.032     72.20401    241.19733 
   21900      96.8509   -542.45316     73976.32   -17141.355    1309.5166   -18450.871    72.173669    247.36243 
   21950    95.876653   -1522.4455    73955.634   -17146.753    1296.3439   -18443.097    72.463557    244.87416 
   22000    93.263131   -720.29483    73894.387   -17143.594    1261.0065   -18404.601    72.387009    238.19908 
   22050    95.933249   -791.60719    73864.326   -17157.051    1297.1091    -18454.16    72.441304     245.0187 
   22100    94.357667   -669.02811    73870.587   -17197.807    1275.8057   -18473.612    72.859995    240.99458 
   22150    94.075223   -923.98664    73963.217    -17225.03    1271.9868   -18497.016    72.972968    240.27321 
   22200    93.749233   -847.39423    74021.712   -17198.602    1267.5791   -18466.181    73.272166    239.44061 
   22250    94.297593   -904.95858    73963.415   -17212.308    1274.9935   -18487.301    73.561767    240.84115 
   22300    94.731601   -890.82561    73966.075   -17238.798    1280.8616   -18519.659    73.503656    241.94963 
   22350    92.390179    -1214.368    73942.435    -17235.65    1249.2034   -18484.853    73.434662    235.96951 
   22400    93.963474   -882.68262    73926.186   -17226.977    1270.4758   -18497.453    73.635874    239.98779 
   22450    94.415423   -1078.5226    73890.638   -17247.475    1276.5866   -18524.062    73.568989    241.14209 
   22500    92.147017   -1033.4309    73883.932    -17235.45    1245.9156   -18481.365    73.798936    235.34846 
   22550    89.416218   -893.62302    73811.393   -17287.157    1208.9926    -18496.15    73.773388    228.37386 
   22600    93.755292   -895.73458    73834.966   -17232.705     1267.661   -18500.366    73.848357    239.45608 
   22650    95.891344   -783.83638     73898.94   -17193.623    1296.5425   -18490.165    73.586955    244.91168 
   22700     94.43048    -972.4561    73947.135   -17202.058    1276.7902   -18478.848     73.56473    241.18055 
   22750    94.249507   -1237.3701    73916.528   -17251.591    1274.3433   -18525.934    74.097661    240.71834 
   22800    93.365267   -769.54675    73917.376   -17253.443    1262.3875   -18515.831    74.046028    238.45994 
   22850    93.311179   -1081.5982    73906.059   -17233.841    1261.6562   -18495.497    74.595238    238.32179 
   22900    94.058213   -839.57356    73963.031   -17259.259    1271.7568   -18531.016    75.141953    240.22976 
   22950    90.242384   -907.27937    73979.346   -17287.065    1220.1632   -18507.228    75.303901    230.48393 
   23000    91.602044   -1112.8435    73948.066   -17308.003    1238.5471    -18546.55     75.79486    233.95657 
   23050     89.20302   -695.40879    73988.122   -17322.873      1206.11   -18528.983      76.1638    227.82933 
   23100    91.283216   -677.36609     74095.23    -17329.57    1234.2362   -18563.807    76.389377    233.14227 
   23150    90.513934   -1235.3332    74106.879   -17276.666    1223.8348   -18500.501    76.493903    231.17748 
   23200    95.476981   -1011.6553    74136.709   -17286.405    1290.9399   -18577.345     76.67507    243.85337 
   23250    90.314002   -1243.4697    74091.118   -17301.031    1221.1315   -18522.163    76.650568    230.66684 
   23300    93.522398   -1176.4271    74096.184    -17282.75    1264.5121   -18547.262    77.157112    238.86126 
   23350    91.930942   -815.40657    74111.227    -17270.53    1242.9941   -18513.524    77.450604     234.7966 
   23400     93.06818   -795.43125    74114.814    -17284.65    1258.3706   -18543.021    77.630419    237.70116 
   23450    93.299542   -1114.6469    74143.191   -17320.053    1261.4988   -18581.552    77.984974    238.29207 
   23500     91.50824   -1165.6961     74133.95   -17300.083    1237.2787   -18537.362    78.227954    233.71699 
   23550    93.722269   -946.22162    74150.688   -17279.908    1267.2145   -18547.122    78.334695    239.37174 
   23600    91.336845   -1036.4127    74135.659   -17270.658    1234.9613   -18505.619    78.483868    233.27924 
   23650    94.522483   -1213.4157    74068.101   -17271.989    1278.0342   -18550.023    78.673151    241.41553 
   23700    95.045922   -1174.3596    73943.889   -17273.602    1285.1116   -18558.714     78.80734    242.75242 
   23750    93.919797   -619.98984    73912.805    -17260.69    1269.8853   -18530.576    78.619662    239.87624 
   23800    93.842839   -788.52375    73913.532   -17280.115    1268.8447    -18548.96    78.717467    239.67968 
   23850    93.717398   -699.83765    73912.941    -17244.96    1267.1487   -18512.109    78.929306     239.3593 
   23900    94.378015   -739.18662    73963.969    -17275.16    1276.0808   -18551.241    79.085363    241.04655 
   23950    90.000184   -766.39803    73985.823   -17290.571    1216.8884   -18507.459    79.148199    229.86534 
   24000    91.530448   -881.49649    73968.408   -17291.632     1237.579   -18529.211    79.037453    233.77371 
   24050    95.187053   -728.30817     73928.23   -17237.999    1287.0198   -18525.019    79.103887    243.11288 
   24100    93.487952   -780.26471    73893.459   -17224.331    1264.0463   -18488.378    79.251161    238.77328 
   24150    92.321617   -1135.2229     73872.44   -17213.827    1248.2764   -18462.103    79.348227     235.7944 
   24200    91.969974   -588.14542    73798.611   -17230.512    1243.5218   -18474.034     79.32032    234.89628 
   24250    93.143435   -808.54068    73829.289   -17208.648    1259.3881   -18468.036    79.803509    237.89337 
   24300    92.670515   -898.47085    73788.376   -17241.107    1252.9938   -18494.101    80.079443    236.68551 
   24350    94.471388   -684.69268    73837.947    -17222.81    1277.3433   -18500.153    80.098592    241.28503 
   24400    93.842968   -965.35821    73823.982   -17221.868    1268.8465   -18490.714    80.801447    239.68001 
   24450    93.688579   -853.03268    73775.719    -17203.96     1266.759   -18470.719    81.054903     239.2857 
   24500    95.972372   -1021.2075    73734.631   -17202.756    1297.6381   -18500.394    81.107861    245.11863 
   24550     91.97668   -746.36551    73674.655   -17205.756    1243.6125   -18449.369    81.097902    234.91341 
   24600    92.840818   -686.73944    73682.542    -17206.48    1255.2965   -18461.776    81.279788    237.12047 
   24650    92.805345   -920.07196    73645.329   -17224.989    1254.8168   -18479.806    81.337315    237.02987 
   24700    93.370782   -1047.4975     73626.96   -17226.789    1262.4621   -18489.252    81.487285    238.47402 
   24750    94.645313   -1231.4737    73544.588     -17202.1     1279.695   -18481.795    81.773702    241.72925 
   24800    92.004283    -893.8162    73477.136   -17198.491    1243.9857   -18442.477    81.915778    234.98391 
   24850    92.403679   -878.17587    73494.892   -17234.018    1249.3859   -18483.404     82.21635    236.00399 
   24900    92.957421   -1245.9882    73495.612   -17230.401     1256.873   -18487.274    82.556227    237.41828 
   24950    93.622702   -657.88921    73449.843   -17237.733    1265.8683   -18503.601    82.590071    239.11744 
   25000    93.688721   -694.16631    73477.773   -17195.538    1266.7609   -18462.299    82.925485    239.28606 
   25050    90.925741   -757.82854    73492.377    -17203.15    1229.4028   -18432.553    83.281247    232.22926 
   25100     95.71112   -790.13053    73493.041   -17197.123    1294.1057   -18491.228    83.333711    244.45137 
   25150    92.055724   -736.14457    73485.916   -17152.183    1244.6812   -18396.864    83.425372     235.1153 
   25200    92.015296   -832.01425    73559.832   -17153.944    1244.1346   -18398.078    83.562793    235.01204 
   25250    93.796402   -909.85271    73566.959   -17160.088    1268.2169   -18428.305     83.56523    239.56108 
   25300    92.596431   -988.37393    73512.556   -17194.792    1251.9921   -18446.784     83.68413    236.49629 
   25350    92.866967    -1010.656    73478.633   -17197.896      1255.65   -18453.546       83.683    237.18725 
   25400    94.683089    -833.4135    73490.757   -17184.454    1280.2057    -18464.66    83.638737    241.82573 
   25450    94.032235   -1174.8068     73440.81   -17203.704    1271.4056   -18475.109    83.827343    240.16341 
   25500    93.728227   -932.38418    73382.855   -17178.705    1267.2951       -18446    83.751353    239.38696 
   25550    94.522881   -758.49904    73373.084   -17140.446    1278.0396   -18418.486      84.1586    241.41655 
   25600    93.216057   -1000.5334     73373.44   -17176.702    1260.3701   -18437.072    84.324842    238.07885 
   25650     93.61513   -679.15542    73415.112   -17164.297    1265.7659   -18430.063    84.726733     239.0981 
   25700     95.35374   -976.93854    73403.023   -17148.549    1289.2736   -18437.823    85.136895    243.53861 
   25750    95.054021   -750.54936    73363.998   -17159.273    1285.2211   -18444.494    85.543504    242.77311 
   25800    92.815916   -523.51448    73453.695   -17151.426    1254.9598   -18406.386    86.029454    237.05687 
   25850    94.012101   -482.50769    73426.041   -17169.781    1271.1333   -18440.915    86.363983    240.11199 
   25900    92.275952   -778.59978    73400.141   -17212.092    1247.6589   -18459.751    86.462266    235.67777 
   25950    94.144869   -627.16016     73421.12   -17197.994    1272.9285   -18470.923    86.563541    240.45108 
   26000    90.923662   -723.59407    73450.556   -17197.318    1229.3747   -18426.693    87.017391    232.22395 
   26050    95.184678   -687.89906    73451.324   -17195.758    1286.9877   -18482.746    87.583234    243.10681 
   26100    96.878023   -740.63466    73497.298   -17184.749    1309.8833   -18494.632    87.914231    247.43171 
   26150    91.722598   -578.24648    73434.998   -17170.858    1240.1771   -18411.035    88.216336    234.26447 
   26200    91.421861   -861.07965      73429.3   -17199.213    1236.1108   -18435.324    88.633202    233.49637 
   26250      94.1057   -874.26709    73411.526   -17184.316    1272.3989   -18456.715    89.200851    240.35104 
   26300    91.683753   -1031.7127    73433.184   -17211.661    1239.6518   -18451.313    89.298871    234.16526 
   26350    91.178304   -794.28493    73414.738    -17210.93    1232.8177   -18443.748    89.612748    232.87432 
   26400    93.645054   -907.08545    73385.633   -17204.368    1266.1705   -18470.538    89.601856    239.17453 
   26450    91.510969   -690.49013    73402.076   -17200.199    1237.3156   -18437.515    89.696595    233.72396 
   26500    95.417338   -782.46496    73421.692   -17175.945    1290.1335   -18466.079    89.839247    243.70104 
   26550    94.001969    -291.1974    73493.288   -17179.796    1270.9963   -18450.792    89.976883    240.08611 
   26600    92.947971   -889.80541    73540.448   -17177.691    1256.7453   -18434.436    90.222239    237.39414 
   26650    93.737495   -906.41982    73582.689   -17181.229    1267.4204   -18448.649    89.861162    239.41063 
   26700    92.488653   -990.88898    73608.189   -17191.247    1250.5349   -18441.782    89.998379    236.22102 
   26750    92.786795   -720.11247    73648.909   -17225.354     1254.566    -18479.92    89.926279    236.98249 
   26800    91.829273   -481.45462    73721.548   -17231.921    1241.6194    -18473.54    90.048125    234.53693 
   26850     93.01952   -980.25984    73754.051   -17214.274    1257.7127   -18471.986    90.336449    237.57688 
   26900    93.912766   -802.53864    73748.985   -17207.913    1269.7902   -18477.704    90.393453    239.85828 
   26950    91.612796   -883.44338    73742.494   -17217.112    1238.6924   -18455.804    90.661513    233.98403 
   27000    91.828696   -865.39186    73751.856   -17251.059    1241.6116   -18492.671    90.651078    234.53545 
   27050    92.487655   -800.10831    73727.329   -17235.672    1250.5214   -18486.193    90.545824    236.21847 
   27100    91.456786   -996.08639    73715.888   -17223.657     1236.583    -18460.24    91.012182    233.58557 
   27150    95.521074   -869.85642    73650.695   -17186.124    1291.5361    -18477.66    91.276184    243.96599 
   27200    92.393378   -1067.6452    73610.934   -17210.062    1249.2466   -18459.308    91.151192    235.97768 
   27250    96.580237   -750.47758    73547.842   -17222.086     1305.857   -18527.943    91.413341    246.67114 
   27300    91.028475   -809.80184    73612.284   -17226.254    1230.7919   -18457.046    91.668167    232.49165 
   27350    93.189363   -741.08096    73636.634   -17245.033    1260.0091   -18505.042    91.925802    238.01067 
   27400    93.614508   -874.20978    73643.407   -17239.246    1265.7575   -18505.003    91.970184    239.09651 
   27450    92.267368   -775.93807    73615.237   -17275.639    1247.5429   -18523.182    92.048532    235.65585 
   27500    92.858214   -1126.8823    73624.519    -17229.65    1255.5317   -18485.182    92.147917     237.1649 
   27550    91.396254   -611.49955    73608.109   -17231.799    1235.7646   -18467.563    91.826887    233.43097 
   27600    93.361678   -896.49725     73605.33   -17209.954     1262.339   -18472.293    91.569122    238.45077 
   27650      93.4068   -713.59598    73623.332   -17228.664    1262.9491   -18491.613    91.470619    238.56602 
   27700    93.887939    -970.6468    73672.701   -17240.379    1269.4545   -18509.834    91.406026    239.79487 
   27750    93.379604   -1003.9489    73686.233   -17256.338    1262.5814    -18518.92    91.516442    238.49656 
   27800    93.414275   -1042.2086    73613.428   -17248.589    1263.0501   -18511.639    91.744866    238.58511 
   27850    95.830972   -882.61048    73641.211    -17216.65    1295.7262   -18512.376    91.972327    244.75748 
   27900    94.336975    -836.7415    73681.672   -17223.931    1275.5259   -18499.457    91.941278    240.94173 
   27950      90.6362   -1017.0508    73681.469   -17243.762    1225.4879    -18469.25    91.979036    231.48975 
   28000    95.612829   -548.93515    73726.981    -17206.03    1292.7767   -18498.806    92.242441    244.20033 
   28050    97.677123   -739.47298     73770.99   -17180.379    1320.6879   -18501.067    92.418137    249.47265 
   28100    94.194726   -984.54719     73795.36    -17218.17    1273.6026   -18491.773    92.848152    240.57842 
   28150    93.571326   -716.79424    73828.552   -17226.917    1265.1736   -18492.091    93.134974    238.98622 
   28200    95.966747   -765.61744    73892.808    -17198.04     1297.562   -18495.602     93.60393    245.10426 
   28250    94.256464   -1001.7826    73938.697    -17213.07    1274.4373   -18487.508    94.146882     240.7361 
   28300    95.136053   -833.18749     73987.85   -17223.733    1286.3302   -18510.064    94.506143    242.98262 
   28350    98.302309   -976.82624    73982.216   -17191.514     1329.141   -18520.655    94.540276    251.06941 
   28400    92.686297   -790.05842    73955.078   -17187.944    1253.2072   -18441.151    94.979489    236.72581 
   28450    94.857577    -831.5218    73991.488   -17168.132     1282.565   -18450.697    95.317696    242.27138 
   28500    95.820694   -711.23273     73987.81    -17162.21    1295.5872   -18457.797    95.112167    244.73123 
   28550    94.367265   -468.68996    74025.281   -17158.336    1275.9355   -18434.272    94.752802     241.0191 
   28600    95.281446   -867.93708    73999.011   -17163.035    1288.2961   -18451.331     94.38007    243.35396 
   28650    96.040955    -902.3212    73972.811   -17191.985    1298.5654   -18490.551    94.303057    245.29379 
   28700    94.344974   -1001.5356    73956.982   -17156.237    1275.6341   -18431.871    94.127399    240.96216 
   28750    95.768498   -925.37166    73984.616   -17174.839    1294.8815   -18469.721    94.412575    244.59792 
   28800    97.709567   -689.19892    74076.723   -17150.316    1321.1266   -18471.442    94.434068    249.55551 
   28850     96.47244   -1038.2486    74122.072   -17161.397    1304.3995   -18465.796    94.797045    246.39583 
   28900    94.469198   -696.77144     74106.87    -17150.87    1277.3137   -18428.184    95.126249    241.27944 
   28950     98.73779   -971.83923    74088.591   -17154.851    1335.0291    -18489.88     95.18256    252.18165 
   29000    93.654595   -802.20729    74049.379   -17167.871    1266.2995   -18434.171    95.182822     239.1989 
   29050    94.373087   -742.42939    74061.973   -17204.921    1276.0142   -18480.935    95.072095    241.03397 
   29100     92.89473   -1144.6917    74083.524   -17193.696    1256.0254   -18449.722    95.273619    237.25816 
   29150    95.740096   -637.24927    74059.772   -17215.179    1294.4975   -18509.677    95.172965    244.52538 
   29200    91.988026   -892.12362    74104.187   -17225.786    1243.7659   -18469.552    95.785015    234.94239 
   29250    97.780994   -1170.2405    74125.065   -17184.356    1322.0924   -18506.449    95.964926    249.73794 
   29300    93.451944   -1000.0743    74139.126   -17217.897    1263.5595   -18481.456    95.894023    238.68132 
   29350    94.259485   -1387.2791    74097.025   -17215.866    1274.4782   -18490.344    96.089988    240.74382 
   29400    93.722069   -645.68658    74042.045   -17195.811    1267.2118   -18463.023    96.164563    239.37123 
   29450    95.555445   -1440.4827     73960.61     -17204.9    1292.0008     -18496.9    96.526228    244.05377 
   29500    90.010434   -780.51405    73937.627   -17245.468     1217.027   -18462.495    96.470734    229.89151 
   29550    94.517373   -909.39058    73997.679   -17262.485    1277.9651    -18540.45    96.781438    241.40248 
   29600    89.306756   -836.77773    74017.402   -17281.327    1207.5126   -18488.839    96.808455    228.09428 
   29650    94.197998   -876.57974    74118.034    -17254.44    1273.6468   -18528.086    97.293193    240.58678 
   29700     92.95568   -951.58487     74162.07   -17253.801    1256.8495    -18510.65    97.856439    237.41383 
   29750    93.792465   -1296.9306    74190.355   -17257.358    1268.1636   -18525.521    97.843543    239.55102 
   29800    95.450703   -1109.0755    74159.265    -17258.29    1290.5846   -18548.874    98.082403    243.78626 
   29850     92.26581   -1085.5514    74113.127   -17292.689    1247.5218   -18540.211    97.992669    235.65187 
   29900    93.841399   -899.23353    74181.281   -17289.409    1268.8253   -18558.234    98.196795    239.67601 
   29950    92.640074   -1016.7311    74186.551   -17289.957    1252.5822    -18542.54    98.365115    236.60776 
   30000    91.033813    -862.2579    74148.955   -17314.025     1230.864   -18544.889    98.653004    232.50528 
   30050    91.422066   -1040.7556    74182.744   -17306.874    1236.1136   -18542.988     98.56522     233.4969 
   30100    91.969216   -905.62209    74140.546    -17323.63    1243.5116   -18567.142    98.676226    234.89435 
   30150    93.524175   -1102.9958    74128.923   -17354.596    1264.5361   -18619.132    98.723454     238.8658 
   30200    91.771919   -1098.5619    74069.858   -17335.927    1240.8439   -18576.771    98.441317    234.39044 
   30250    90.168701   -1003.4125    74058.709   -17357.419    1219.1669   -18576.586    98.077064    230.29574 
   30300    93.715489   -1283.5297    74045.374    -17347.97    1267.1228   -18615.092    97.993436    239.35442 
   30350    93.753219   -969.20672    74025.029   -17310.667     1267.633     -18578.3     97.74483    239.45079 
   30400    93.094329   -826.48083    74004.379   -17302.656    1258.7242    -18561.38    98.224169    237.76795 
   30450    94.748108   -699.95553    74059.035   -17305.275    1281.0849    -18586.36    98.440791    241.99179 
   30500    94.376825   -754.24997    74182.426   -17302.345    1276.0647    -18578.41     98.80186    241.04351 
   30550    94.064122    -978.3534     74155.35   -17274.219    1271.8367   -18546.056     99.07145    240.24485 
   30600    96.227034   -906.70633    74165.892   -17247.785    1301.0813   -18548.866    99.632897    245.76905 
   30650    92.996489   -1074.0818    74175.507   -17248.383    1257.4013   -18505.784    99.451038    237.51806 
   30700    96.441211   -1162.4877    74187.594   -17227.945    1303.9772   -18531.922     99.53497    246.31607 
   30750    96.672921   -1105.8329    74158.973   -17220.327    1307.1102   -18527.437    99.696031    246.90787 
   30800    96.638699   -978.49107    74156.455   -17206.527    1306.6474   -18513.175    99.907527    246.82046 
   30850    92.508749   -807.33913    74092.524   -17240.194    1250.8066       -18491    99.936371    236.27235 
   30900    91.911698   -846.83362    74075.299   -17265.674    1242.7339   -18508.408     99.78169    234.74745 
   30950    91.047836   -1148.2688    74054.614   -17287.605    1231.0536   -18518.659    99.910346     232.5411 
   31000    89.404529   -974.50079    74042.443    -17324.52    1208.8346   -18533.354     99.77759      228.344 
   31050    90.978511   -1399.1321    73989.325   -17323.306    1230.1163   -18553.423    99.877943    232.36403 
   31100     92.39427   -922.33773    73968.813   -17336.057    1249.2587   -18585.316    100.10633    235.97996 
   31150    93.552091   -899.28355    74017.818   -17316.687    1264.9136   -18581.601    100.33551     238.9371 
   31200    91.867914   -1052.3142    74048.776   -17344.614    1242.1419   -18586.756    100.57964    234.63562 
   31250    93.856381   -984.01095     74022.84   -17290.338    1269.0278   -18559.366     101.2312    239.71427 
   31300    93.267217   -888.10521    74095.527   -17287.315    1261.0618   -18548.377    101.72877    238.20951 
   31350    93.465218   -974.75295     74051.52   -17297.706     1263.739   -18561.445    102.15854    238.71522 
   31400    94.050582   -855.68113    74091.291   -17281.452    1271.6536   -18553.106     102.1533    240.21027 
   31450      93.1876   -1108.1662    74113.395   -17274.976    1259.9853   -18534.962    102.39465    238.00617 
   31500    92.402474   -1193.7234     74128.86   -17296.287    1249.3696   -18545.657    102.53255    236.00091 
   31550    93.461404   -991.26259    74143.978   -17253.522    1263.6874    -18517.21    102.54493    238.70548 
   31600    97.858436   -1060.3721    74128.749   -17229.951    1323.1395    -18553.09    102.52265    249.93574 
   31650    94.581209   -1304.2714    74116.587   -17249.744    1278.8282   -18528.572      102.826    241.56552 
   31700    92.932546   -936.60561    74120.223   -17265.977    1256.5367   -18522.513    102.86159    237.35475 
   31750    93.180825   -1050.0281    74123.092   -17265.318    1259.8937   -18525.211    103.10302    237.98886 
   31800    94.464668   -942.03419    74100.715   -17252.818    1277.2525    -18530.07    102.89524    241.26787 
   31850    93.680013   -852.20164    74145.503   -17259.876    1266.6432   -18526.519    102.79384    239.26382 
   31900    93.412024   -897.16062    74199.999   -17250.003    1263.0197   -18513.023    103.03556    238.57936 
   31950    92.559711   -1178.9699    74208.451   -17241.953    1251.4956   -18493.448     103.0225    236.40251 
   32000     94.19226    -1120.701    74158.725   -17256.848    1273.5693   -18530.417    103.35613    240.57212 
   32050    94.577752   -842.33469    74178.722   -17254.372    1278.7815   -18533.154    103.34553    241.55669 
   32100    94.767491   -813.52825    74248.382   -17218.967    1281.3469   -18500.314    103.42674    242.04129 
   32150    93.248108   -1015.8532    74257.143   -17242.185    1260.8034   -18502.988    103.60462    238.16071 
   32200    96.138519   -1300.4285    74199.041   -17248.899    1299.8845   -18548.784    103.72283    245.54297 
   32250     95.90199   -987.15919    74204.539   -17237.902    1296.6864   -18534.588     103.8613    244.93887 
   32300    95.297164   -1033.0496    74262.522   -17229.464    1288.5086   -18517.972    104.34354    243.39411 
   32350    97.009257   -1159.5176    74220.777   -17209.837    1311.6577   -18521.495    104.37192    247.76689 
   32400    92.543584   -717.21911    74235.881    -17242.13    1251.2776   -18493.407    104.56674    236.36132 
   32450    93.463679   -892.26869     74194.47   -17217.118    1263.7181   -18480.836    104.65812    238.71129 
   32500     96.90282   -560.82538    74266.935   -17210.877    1310.2186   -18521.096     104.6655    247.49504 
   32550    93.225132   -1401.7307    74232.276   -17240.361    1260.4928   -18500.853    105.09107    238.10203 
   32600    93.825428   -547.53372    74248.792   -17213.804    1268.6093   -18482.413    105.33697    239.63521 
   32650    92.766914   -759.85405    74257.415   -17217.422    1254.2972    -18471.72    105.58442    236.93171 
   32700    92.842709   -755.12046    74244.674   -17226.738     1255.322    -18482.06    105.82164     237.1253 
   32750    94.987284   -810.39961    74326.804   -17195.422    1284.3187   -18479.741    106.41865    242.60266 
   32800    96.396491   -950.94166    74333.443   -17185.802    1303.3726   -18489.174     106.8481    246.20185 
   32850    97.459971   -1280.4253    74327.318   -17178.767    1317.7518   -18496.519    106.94079    248.91803 
   32900    98.846159   -1198.7495     74302.07   -17203.405    1336.4944   -18539.899    106.98894    252.45843 
   32950    98.028962   -1241.6173    74287.785   -17157.423    1325.4451   -18482.868    106.85549    250.37127 
   33000    94.536312   -1258.9896    74296.953   -17173.076    1278.2212   -18451.297    106.79201    241.45085 
   33050    98.563796   -1209.4373    74240.828   -17181.452    1332.6766   -18514.129    106.78105    251.73726 
   33100     95.17924   -1040.3459    74268.756   -17175.847    1286.9142   -18462.761    107.19338    243.09292 
   33150    97.094134   -654.27551     74268.39   -17163.416    1312.8054   -18476.221    106.94286    247.98367 
   33200    99.297229   -1064.9551    74293.106   -17131.837    1342.5933    -18474.43    107.31907    253.61049 
   33250    97.841113    -970.1712    74317.159   -17152.203    1322.9052   -18475.108    107.25531    249.89149 
   33300    95.009095   -978.59547    74282.586   -17151.201    1284.6136   -18435.815     107.1875    242.65836 
   33350    94.386052   -1170.4517    74193.936   -17170.726    1276.1895   -18446.915    107.77222    241.06708 
   33400    97.038048   -507.57821    74209.219   -17162.153     1312.047     -18474.2    107.76053    247.84042 
   33450    97.400995   -1020.3419    74185.709   -17133.352    1316.9544   -18450.307    108.03564     248.7674 
   33500    97.124308   -1106.3293    74170.682   -17154.247    1313.2133   -18467.461    108.26732    248.06073 
   33550    97.659844   -1306.4429    74141.024   -17197.745    1320.4543   -18518.199    108.35086    249.42852 
   33600    95.510432   -734.85419    74080.888   -17217.633    1291.3922   -18509.026    108.74405    243.93881 
   33650    91.150382   -1127.0342    73996.881   -17228.694    1232.4402   -18461.134    108.73511      232.803 
   33700    92.356716   -1311.3803    73914.856   -17279.883     1248.751   -18528.634    108.77345    235.88405 
   33750    92.828957   -847.69682    73874.484   -17228.429    1255.1361   -18483.566    109.16063    237.09017 
   33800    95.315564   -783.16753    73832.077   -17208.032    1288.7574   -18496.789    109.16071     243.4411 
   33850     92.68347   -958.97071    73846.769   -17244.911     1253.169    -18498.08    109.15837    236.71859 
   33900    94.203531   -945.72512    73846.817   -17213.877    1273.7216   -18487.599    109.28732    240.60091 
   33950    92.044151   -820.39721    73900.144   -17221.915    1244.5248    -18466.44    109.75786    235.08574 
[...]
   92000    95.430329   -1077.1961    74225.875   -17283.357    1290.3091   -18573.666    276.44267    243.73422 
   92050     93.57509   -1011.2308    74218.407   -17292.672    1265.2245   -18557.897    276.69049    238.99584 
   92100    93.677975   -992.67587    74182.107   -17275.034    1266.6156    -18541.65    276.59177    239.25861 
   92150    92.358066   -503.90316    74205.414   -17270.687    1248.7692   -18519.456    276.71885    235.88749 
   92200    93.490629   -737.78471    74239.465    -17262.87    1264.0825   -18526.953    277.19883    238.78012 
   92250    94.919885   -619.70587    74308.516   -17230.842    1283.4074   -18514.249    276.62687    242.43052 
   92300     95.20945   -1024.8521    74365.866   -17234.401    1287.3226   -18521.723    276.95898    243.17008 
   92350    95.595526   -709.42608    74410.188   -17212.713    1292.5427   -18505.256    276.82125    244.15614 
   92400    94.920263    -1006.637    74452.397   -17224.379    1283.4125   -18507.792    277.23964    242.43148 
   92450    94.166488   -1009.8656    74499.498   -17214.683    1273.2208   -18487.904    277.68386     240.5063 
   92500    93.579065    -912.7085     74547.25    -17204.79    1265.2783   -18470.068     277.9993    239.00599 
   92550    97.091891   -913.66664    74475.595   -17192.868     1312.775   -18505.644     278.0819    247.97794 
   92600    97.221801   -890.03322    74457.247   -17174.503    1314.5315   -18489.035    277.79545    248.30973 
   92650    95.681416   -1015.2251    74450.929   -17163.329    1293.7041   -18457.033    278.81206    244.37551 
   92700    93.187978   -881.06833    74398.721   -17207.262    1259.9904   -18467.252    278.80729    238.00713 
   92750    97.338848    -710.9733    74396.773    -17167.41    1316.1141   -18483.525    278.62614    248.60868 
   92800    97.429953   -842.78015    74378.048   -17175.302     1317.346   -18492.648    278.92089    248.84137 
   92850    100.08558   -928.68035    74460.332    -17151.57    1353.2526   -18504.823    278.92891    255.62398 
   92900    95.681734   -581.02527    74405.647   -17164.229    1293.7084   -18457.938    279.29205    244.37632 
   92950    95.608155   -785.60353    74418.952   -17205.562    1292.7135   -18498.276    279.77956     244.1884 
   93000    95.077541   -1121.8309    74399.247   -17233.386    1285.5391   -18518.925    279.96145    242.83318 
   93050    92.767727   -886.67971    74316.668   -17273.141    1254.3082    -18527.45    279.48942    236.93379 
   93100     94.32158   -1186.4602    74342.269   -17273.658    1275.3178   -18548.976    279.82452    240.90241 
   93150     93.71133   -1075.0218     74365.15   -17303.512    1267.0666   -18570.578    279.45568     239.3438 
   93200    92.482771   -985.47555    74382.521   -17314.119    1250.4553   -18564.574    279.37501      236.206 
   93250    90.410928   -1052.5619    74383.893    -17314.99     1222.442   -18537.432     279.4005     230.9144 
   93300    93.397666   -1126.3944    74401.239   -17275.596    1262.8256   -18538.422    279.25297    238.54269 
   93350     97.16445   -1041.2343    74415.207   -17255.535    1313.7561   -18569.291    279.57084    248.16326 
   93400    94.975411   -1099.0389    74383.734   -17257.719    1284.1582   -18541.877    279.96958    242.57233 
   93450    96.636449   -1051.2333    74326.152   -17264.442     1306.617   -18571.059    280.45443    246.81471 
   93500    94.430611    -671.4729     74357.67   -17253.296     1276.792   -18530.088    280.61501    241.18089 
   93550    92.866159   -1228.0258    74344.629   -17249.196    1255.6391   -18504.835    280.11382    237.18519 
   93600    95.733112   -878.19042    74334.034   -17212.543     1294.403   -18506.946    279.70703    244.50754 
   93650    93.945155   -973.62015    74285.084   -17200.848    1270.2282   -18471.076     279.6219      239.941 
   93700    94.453358   -1024.5232    74300.306   -17184.453    1277.0996   -18461.552    279.73291    241.23898 
   93750     95.08734   -1114.4684    74244.358   -17171.833    1285.6716   -18457.504    279.98889    242.85821 
   93800    96.676648   -1004.6221    74243.258    -17167.02    1307.1605    -18474.18    279.26925    246.91738 
   93850    98.180331   -1058.2814    74269.505   -17135.022    1327.4918   -18462.514     279.8403    250.75787 
   93900    95.759452   -1125.0182    74348.539   -17147.526    1294.7592   -18442.286    280.70151    244.57482 
   93950    95.280799   -879.38563    74246.175   -17183.602    1288.2873    -18471.89    280.60705    243.35231 
   94000    91.929407   -1207.8104    74213.755    -17220.08    1242.9733   -18463.053    281.04995    234.79267 
   94050    94.201018   -1093.1448    74215.825   -17222.248    1273.6877   -18495.936    281.35717    240.59449 
   94100    94.428998   -871.22453     74239.47   -17231.174    1276.7702   -18507.944    281.56853    241.17677 
   94150    94.659552   -708.20169    74205.416   -17200.745    1279.8875   -18480.633    282.11283    241.76561 
   94200    94.789629   -855.17614    74147.255   -17227.994    1281.6462    -18509.64    282.20945    242.09784 
   94250    93.989405   -923.95646    74069.177   -17218.554    1270.8265   -18489.381      282.115    240.05402 
   94300    93.127225   -911.33144    74055.983   -17223.375     1259.169   -18482.544    282.74588    237.85197 
   94350    95.746705   -846.27414     74115.19   -17176.008    1294.5868   -18470.595    283.01994    244.54226 
   94400    96.002651   -1062.8859    74135.578   -17172.012    1298.0475   -18470.059    283.02154    245.19596 
   94450    96.822816   -550.05539    74144.811   -17168.293    1309.1369    -18477.43     283.5069    247.29071 
   94500    95.746251   -983.56944    74145.083   -17179.868    1294.5807   -18474.448    283.88058     244.5411 
   94550    94.255348   -981.01501    74044.906   -17209.784    1274.4223   -18484.206    283.51648    240.73325 
   94600    93.433273   -757.28936    74018.492   -17226.825     1263.307   -18490.132     283.7124    238.63363 
   94650    93.271747   -983.46371     74001.47   -17239.143     1261.123   -18500.266     284.0428    238.22108 
   94700     94.50176   -825.73653    74011.887   -17166.988     1277.754   -18444.742    284.31086     241.3626 
   94750      97.3332   -1100.0671    73944.904   -17148.826    1316.0378   -18464.864    284.13272    248.59425 
   94800    92.808115   -623.95919    73940.845   -17173.748    1254.8543   -18428.603    283.94936    237.03694 
   94850    97.342279   -647.29322    73958.314    -17187.52    1316.1605   -18503.681    284.26522    248.61744 
   94900    94.122971   -592.59612    74020.463   -17205.733    1272.6324   -18478.365    285.21679    240.39516 
   94950     95.74118   -798.95546    74020.181   -17210.007    1294.5121   -18504.519    285.35569    244.52815 
   95000    95.687962   -983.27599     74039.62   -17153.725    1293.7926   -18447.517    285.39497    244.39223 
   95050    96.216589   -948.40943    74047.496   -17199.078    1300.9401   -18500.018    286.16559    245.74237 
   95100    95.355923   -1048.4029    74050.465   -17182.338    1289.3031   -18471.641    285.98369    243.54418 
   95150    92.783825   -915.51798    74044.522   -17222.267    1254.5259   -18476.793    286.18053     236.9749 
   95200    93.098684   -826.89625     74001.68   -17238.839    1258.7831   -18497.622    286.08501    237.77907 
   95250    94.468378   -877.61608    74013.521     -17207.1    1277.3026   -18484.402    285.93048    241.27734 
   95300     94.55371   -991.16394    74039.803   -17225.756    1278.4564   -18504.212    285.91903    241.49529 
   95350    94.485416    -1094.682    74026.815   -17237.837     1277.533    -18515.37    286.74229    241.32086 
   95400    91.311374   -1104.0146    73969.482   -17246.754    1234.6169   -18481.371    286.60837    233.21418 
   95450    93.750434   -900.81024    73899.435   -17244.631    1267.5953   -18512.226    286.84652    239.44368 
   95500    94.723317   -685.45607     73901.03   -17215.101    1280.7496   -18495.851    286.83708    241.92847 
   95550    96.938171   -833.13463    73958.447   -17210.811    1310.6966   -18521.507    286.71693    247.58533 
   95600     94.63235   -656.15666     74017.12   -17242.834    1279.5197   -18522.354    287.01621    241.69614 
   95650    91.708426   -1002.8587     73983.66   -17263.737    1239.9854   -18503.723    286.92067    234.22828 
   95700     95.35804   -771.45797    73944.486   -17297.461    1289.3317   -18586.793    287.40502    243.54959 
   95750    94.448917   -774.42428    73954.813   -17296.547    1277.0395   -18573.586    288.05591    241.22764 
   95800      93.3613   -775.07144    73997.441    -17270.14    1262.3339   -18532.474    288.29128    238.44981 
   95850    92.701822   -701.07216     74042.06   -17278.845    1253.4171   -18532.262    287.97358    236.76546 
   95900    93.527111   -885.02829    74081.169   -17255.669    1264.5758   -18520.244    288.47112     238.8733 
   95950    95.222983   -948.37686    74143.634   -17236.223    1287.5056   -18523.728    288.36983    243.20464 
   96000    94.331008   -1067.5364    74169.074   -17242.398    1275.4453   -18517.843    288.78034    240.92649 
   96050    94.436645   -795.42178    74225.459   -17227.142    1276.8736   -18504.016     289.1161     241.1963 
   96100    94.297415    -1189.913    74248.828   -17268.802     1274.991   -18543.793    289.39312     240.8407 
   96150    95.116307   -782.48184    74233.091   -17280.537    1286.0632     -18566.6    289.30816    242.93219 
   96200     92.78717   -1169.5129    74251.053   -17312.445    1254.5711   -18567.016    289.16847    236.98345 
   96250    93.743072   -647.43722    74235.041   -17260.098    1267.4958   -18527.594    289.20553    239.42487 
   96300    96.062193   -876.63358    74259.312   -17265.591    1298.8525   -18564.444    289.77426    245.34803 
   96350    96.419251   -916.02553    74355.245   -17240.256    1303.6803   -18543.936     290.2834    246.25998 
   96400      93.1589   -865.81995    74381.829    -17248.66    1259.5972   -18508.257    290.81374    237.93287 
   96450    94.607045   -1023.9543    74360.322    -17269.31    1279.1775   -18548.487    291.54332    241.63151 
   96500    93.688309   -886.99116    74338.285   -17262.293    1266.7554   -18529.048    291.48875    239.28501 
   96550    95.069697   -1078.8024    74347.167   -17267.748     1285.433   -18553.181    291.85319    242.81315 
   96600    92.827188   -875.74224     74363.84    -17312.13    1255.1122   -18567.242     291.7458    237.08566 
   96650    92.681264   -801.42329    74334.571   -17310.637    1253.1391   -18563.776    291.93811    236.71296 
   96700    92.931988   -830.86057    74339.878   -17324.309    1256.5292   -18580.838    291.33856    237.35332 
   96750    95.263921   -928.74922    74259.195   -17283.617    1288.0591   -18571.677    291.00869     243.3092 
   96800    95.529537   -949.16794    74248.697   -17299.959    1291.6505    -18591.61      291.144     243.9876 
   96850     92.20372   -1032.5528    74222.406   -17295.975    1246.6823   -18542.657    291.02568    235.49329 
   96900    91.178295    -1019.916    74170.095   -17340.345    1232.8176   -18573.163    291.01896     232.8743 
   96950    96.432892   -1215.0415     74157.66   -17325.447    1303.8647   -18629.312    291.19366    246.29482 
   97000    91.690629   -875.77856    74170.152   -17324.212    1239.7448   -18563.957    291.96789    234.18282 
   97050    92.944155    -1065.143    74168.358   -17314.907    1256.6937   -18571.601    292.12327     237.3844 
   97100    94.650904   -1205.6355    74159.423   -17307.809    1279.7706   -18587.579    292.21421    241.74353 
   97150    92.912419   -720.76271    74185.535   -17290.595    1256.2646    -18546.86    292.16565    237.30334 
   97200    93.726198   -916.21692    74159.682   -17288.137    1267.2676   -18555.404    292.28781    239.38178 
   97250    93.868499   -690.77955    74201.138   -17269.097    1269.1917   -18538.289    292.41613    239.74522 
   97300    93.817688    -1043.673    74218.559    -17264.57    1268.5047   -18533.075    291.96288    239.61545 
   97350    94.093121   -982.83334    74177.648   -17262.038    1272.2288   -18534.267    292.16252    240.31892 
   97400    92.594072   -1083.5069    74158.041   -17247.739    1251.9602   -18499.699    292.06498    236.49027 
   97450    95.043493    -874.3832    74150.979   -17249.671    1285.0787    -18534.75    292.13748    242.74622 
   97500    94.182803   -881.39563    74146.806   -17288.835    1273.4414   -18562.277    292.65976    240.54797 
   97550    94.252515   -853.67816    74187.033   -17288.434     1274.384   -18562.818    293.46461    240.72602 
   97600    92.572043   -765.47034    74260.378   -17295.872    1251.6624   -18547.535    293.74769      236.434 
   97650    93.158608   -799.76798     74259.03   -17273.978    1259.5933   -18533.572    294.29038    237.93212 
   97700     94.75246   -884.85462    74309.012   -17227.198    1281.1437   -18508.342    294.99602     242.0029 
   97750     96.00362   -1009.9527    74327.186   -17231.991    1298.0606   -18530.052    295.33605    245.19844 
   97800    94.280587   -642.97771    74358.669   -17279.496    1274.7635    -18554.26     295.2769    240.79771 
   97850    95.523884   -674.50135    74423.537   -17295.084    1291.5741   -18586.658    295.07665    243.97316 
   97900    94.519772   -1110.8551    74455.232   -17284.085    1277.9975   -18562.082     295.2577    241.40861 
   97950    93.144198    -1086.934    74460.245   -17271.601    1259.3985   -18530.999    295.32045    237.89532 
   98000    93.814653   -956.99821    74394.041   -17280.918    1268.4636   -18549.382    295.45024    239.60769 
   98050      92.9363   -1010.0028    74356.164   -17260.024    1256.5875   -18516.611    295.43322    237.36433 
   98100    93.421163   -1076.7027    74286.479   -17266.574    1263.1433   -18529.717      295.566     238.6027 
   98150    93.651683   -1095.9599    74297.006   -17277.825    1266.2601   -18544.085    295.11835    239.19146 
   98200    92.348426   -1047.0343    74281.554   -17274.875    1248.6389   -18523.514    295.21833    235.86287 
   98250    96.982725   -855.89562    74258.572    -17203.01     1311.299   -18514.309    295.12262    247.69912 
   98300    93.842072   -719.61197      74323.1   -17214.325    1268.8344   -18483.159    295.35178    239.67772 
   98350    94.687151   -1258.5086    74333.067   -17202.306    1280.2606   -18482.567    295.75805     241.8361 
   98400    92.955289   -1216.0413    74323.819   -17230.824    1256.8442   -18487.668    296.11038    237.41283 
   98450    92.719925   -1029.4341    74295.241   -17229.284    1253.6619   -18482.946    296.02839     236.8117 
   98500    95.849984   -1156.2722    74276.403   -17218.598    1295.9833   -18514.582    295.09715    244.80604 
   98550    96.354969   -898.89346    74259.883   -17201.792    1302.8111   -18504.603    295.57482     246.0958 
   98600    93.400468   -1130.8685    74318.703   -17195.967    1262.8635   -18458.831    295.88649    238.54984 
   98650    96.535031   -914.46247     74362.45   -17190.016    1305.2458   -18495.262    295.70772    246.55569 
   98700     95.26795   -1032.0248    74400.583   -17202.577    1288.1136   -18490.691    295.91045    243.31949 
   98750    96.042526   -1184.6702    74392.255    -17201.22    1298.5866   -18499.807    296.44804     245.2978 
   98800    94.620236   -1006.2998    74370.115   -17225.227    1279.3559   -18504.583    296.65851     241.6652 
   98850    95.596393   -1107.8017    74348.284   -17228.625    1292.5545   -18521.179    296.85684    244.15835 
   98900    92.145788   -1063.5749    74317.705   -17218.678     1245.899   -18464.577    296.90807    235.34532 
   98950    95.963442   -895.04253    74366.371   -17204.423    1297.5173    -18501.94    296.86337    245.09582 
   99000     95.55392   -779.38155    74429.942   -17188.581    1291.9802   -18480.562     297.4392    244.04988 
   99050    96.918312   -856.72328    74441.224   -17203.069    1310.4281   -18513.497    297.33602    247.53461 
   99100     96.78158    -835.4934    74419.817   -17198.704    1308.5793   -18507.284    297.24925    247.18539 
   99150     93.69144   -901.46364    74441.667   -17205.627    1266.7977   -18472.424    297.83969      239.293 
   99200    95.023727   -1068.1656    74408.442   -17197.484    1284.8115   -18482.296    297.71515    242.69574 
   99250    92.544224   -985.94712    74338.007   -17183.093    1251.2862   -18434.379    297.59367    236.36295 
   99300    93.246975   -624.17821    74336.193   -17178.454    1260.7881   -18439.243    297.62217    238.15782 
   99350    97.621439   -791.53848    74363.373   -17197.513     1319.935   -18517.448    297.54529    249.33043 
   99400    91.107673   -801.75433    74382.664   -17214.371    1231.8627   -18446.233    297.82022    232.69392 
   99450    93.763482   -1087.9111    74309.253   -17199.402    1267.7718   -18467.174     298.1842      239.477 
   99500    94.610206   -1197.4314    74255.891   -17190.344    1279.2203   -18469.564    297.24244    241.63958 
   99550    92.916518   -1204.1807    74183.978   -17198.025      1256.32   -18454.345    297.53484    237.31381 
   99600    96.560242   -796.98652    74163.883   -17182.993    1305.5866    -18488.58    297.43706    246.62008 
   99650    94.567707   -1014.9067    74120.636   -17175.189    1278.6457   -18453.834    297.62879    241.53104 
   99700    93.317949   -1259.7214    74067.128   -17240.051    1261.7477   -18501.799    297.37757    238.33909 
   99750      93.9215   -893.41092    74050.831   -17224.273    1269.9083   -18494.181    297.35985    239.88059 
   99800    97.024695   -551.93293    74075.407   -17177.906    1311.8665   -18489.773    297.44664    247.80632 
   99850    96.306602   -774.92733    74091.171   -17201.637    1302.1572   -18503.795    297.81973    245.97227 
   99900    94.895411   -1145.0925    74056.172   -17238.257    1283.0765   -18521.334    297.87612    242.36801 
   99950    93.851267   -778.42853    74024.158   -17254.737    1268.9587   -18523.696    298.12589    239.70121 
  100000    92.744374   -1095.9884    73948.911   -17260.632    1253.9924   -18514.624      297.805    236.87414 
Loop time of 61.4445 on 60 procs for 100000 steps with 4537 atoms

Performance: 703.074 ns/day, 0.034 hours/ns, 1627.485 timesteps/s
100.0% CPU use with 60 MPI tasks x no OpenMP threads

MPI task timing breakdown:
Section |  min time  |  avg time  |  max time  |%varavg| %total
---------------------------------------------------------------
Pair    | 26.831     | 32.535     | 39.129     |  70.5 | 52.95
Neigh   | 0.68825    | 1.5361     | 3.4968     |  91.8 |  2.50
Comm    | 14.297     | 20.574     | 26.096     |  85.3 | 33.48
Output  | 0.1141     | 0.1168     | 0.12931    |   0.5 |  0.19
Modify  | 4.2493     | 5.9485     | 7.4522     |  32.0 |  9.68
Other   |            | 0.7342     |            |       |  1.19

Nlocal:    75.6167 ave 150 max 35 min
Histogram: 38 2 0 0 0 0 0 0 6 14
Nghost:    787.65 ave 850 max 734 min
Histogram: 12 8 1 9 10 0 0 3 4 13
Neighs:    0 ave 0 max 0 min
Histogram: 60 0 0 0 0 0 0 0 0 0
FullNghs:  7717.23 ave 19538 max 1737 min
Histogram: 40 0 0 0 0 0 0 0 1 19

Total # of neighbors = 463034
Ave neighs/atom = 102.057
Neighbor list builds = 5647
Dangerous builds = 0

write_data		${DIR}/data.eq-${NAME}-${TEMP}
write_data		run_13/data.eq-${NAME}-${TEMP}
write_data		run_13/data.eq-het_freeze_13-${TEMP}
write_data		run_13/data.eq-het_freeze_13-240
undump          1

reset_timestep  0

unfix           2
unfix           3
unfix           4


################################################
#######         Run Simulation         #########
################################################

log				${DIR}/log.run_${NAME}
log				run_13/log.run_${NAME}
log				run_13/log.run_het_freeze_13
