LAMMPS data file via write_data, version 16 Mar 2018, timestep = 8000000

4537 atoms
2 atom types

0.0000000000000000e+00 4.9219999999999999e+01 xlo xhi
0.0000000000000000e+00 4.9019635930410494e+01 ylo yhi
7.9753768259893221e-01 3.3142462317409716e+01 zlo zhi

Masses

1 18.015
2 12.01

Atoms # atomic

96 2 0.0000000000000000e+00 2.8417180249513345e+00 2.5384385521989423e+00 0 0 0
98 2 0.0000000000000000e+00 0.0000000000000000e+00 2.5384385521989423e+00 0 0 0
100 2 1.2305000000000001e+00 7.1042950623783474e-01 2.5384385521989423e+00 0 0 0
107 2 1.2305000000000001e+00 2.1312885187134998e+00 2.5384385521989423e+00 0 0 0
109 2 2.4610000000000003e+00 2.8417180249513345e+00 2.5384385521989423e+00 0 0 0
111 2 2.4610000000000003e+00 0.0000000000000000e+00 2.5384385521989423e+00 0 0 0
113 2 3.6915000000000004e+00 7.1042950623783474e-01 2.5384385521989423e+00 0 0 0
128 2 3.6914999999999996e+00 2.1312885187134998e+00 2.5384385521989423e+00 0 0 0
130 2 4.9220000000000006e+00 2.8417180249513332e+00 2.5384385521989423e+00 0 0 0
132 2 4.9220000000000006e+00 0.0000000000000000e+00 2.5384385521989423e+00 0 0 0
134 2 6.1524999999999999e+00 7.1042950623783407e-01 2.5384385521989423e+00 0 0 0
157 2 6.1524999999999999e+00 2.1312885187134989e+00 2.5384385521989423e+00 0 0 0
159 2 7.3829999999999991e+00 2.8417180249513345e+00 2.5384385521989423e+00 0 0 0
161 2 7.3829999999999991e+00 0.0000000000000000e+00 2.5384385521989423e+00 0 0 0
163 2 8.6134999999999984e+00 7.1042950623783407e-01 2.5384385521989423e+00 0 0 0
194 2 8.6134999999999984e+00 2.1312885187135002e+00 2.5384385521989423e+00 0 0 0
103 2 0.0000000000000000e+00 4.2625770374269996e+00 2.5384385521989423e+00 0 0 0
105 2 1.2305000000000001e+00 4.9730065436648339e+00 2.5384385521989423e+00 0 0 0
120 2 1.2305000000000001e+00 6.3938655561404980e+00 2.5384385521989423e+00 0 0 0
124 2 2.4610000000000003e+00 4.2625770374269996e+00 2.5384385521989423e+00 0 0 0
126 2 3.6914999999999996e+00 4.9730065436648339e+00 2.5384385521989423e+00 0 0 0
149 2 3.6914999999999996e+00 6.3938655561404980e+00 2.5384385521989423e+00 0 0 0
101 2 0.0000000000000000e+00 7.1042950623783341e+00 2.5384385521989423e+00 0 0 0
122 2 2.4610000000000003e+00 7.1042950623783341e+00 2.5384385521989423e+00 0 0 0
153 2 4.9220000000000006e+00 4.2625770374269978e+00 2.5384385521989423e+00 0 0 0
155 2 6.1524999999999999e+00 4.9730065436648339e+00 2.5384385521989423e+00 0 0 0
186 2 6.1524999999999999e+00 6.3938655561404980e+00 2.5384385521989423e+00 0 0 0
190 2 7.3829999999999991e+00 4.2625770374269996e+00 2.5384385521989423e+00 0 0 0
192 2 8.6135000000000002e+00 4.9730065436648339e+00 2.5384385521989423e+00 0 0 0
231 2 8.6135000000000002e+00 6.3938655561404980e+00 2.5384385521989423e+00 0 0 0
151 2 4.9220000000000006e+00 7.1042950623783341e+00 2.5384385521989423e+00 0 0 0
188 2 7.3830000000000009e+00 7.1042950623783341e+00 2.5384385521989423e+00 0 0 0
116 2 0.0000000000000000e+00 8.5251540748539991e+00 2.5384385521989423e+00 0 0 0
118 2 1.2305000000000001e+00 9.2355835810918343e+00 2.5384385521989423e+00 0 0 0
145 2 2.4610000000000003e+00 8.5251540748539991e+00 2.5384385521989423e+00 0 0 0
147 2 3.6915000000000004e+00 9.2355835810918343e+00 2.5384385521989423e+00 0 0 0
114 2 0.0000000000000000e+00 1.1366872099805333e+01 2.5384385521989423e+00 0 0 0
141 2 1.2305000000000001e+00 1.0656442593567498e+01 2.5384385521989423e+00 0 0 0
143 2 2.4610000000000003e+00 1.1366872099805333e+01 2.5384385521989423e+00 0 0 0
178 2 3.6914999999999996e+00 1.0656442593567499e+01 2.5384385521989423e+00 0 0 0
182 2 4.9220000000000006e+00 8.5251540748539991e+00 2.5384385521989423e+00 0 0 0
184 2 6.1524999999999999e+00 9.2355835810918343e+00 2.5384385521989423e+00 0 0 0
227 2 7.3830000000000009e+00 8.5251540748539991e+00 2.5384385521989423e+00 0 0 0
229 2 8.6134999999999984e+00 9.2355835810918343e+00 2.5384385521989423e+00 0 0 0
180 2 4.9220000000000006e+00 1.1366872099805333e+01 2.5384385521989423e+00 0 0 0
223 2 6.1524999999999999e+00 1.0656442593567499e+01 2.5384385521989423e+00 0 0 0
225 2 7.3829999999999991e+00 1.1366872099805333e+01 2.5384385521989423e+00 0 0 0
270 2 8.6134999999999984e+00 1.0656442593567498e+01 2.5384385521989423e+00 0 0 0
97 2 0.0000000000000000e+00 1.4208590124756650e+00 5.7035112714801137e+00 0 0 0
99 2 0.0000000000000000e+00 0.0000000000000000e+00 5.7035112714801137e+00 0 0 0
108 2 1.2305000000000001e+00 2.1312885187134998e+00 5.7035112714801137e+00 0 0 0
110 2 2.4610000000000003e+00 1.4208590124756650e+00 5.7035112714801137e+00 0 0 0
112 2 2.4610000000000003e+00 0.0000000000000000e+00 5.7035112714801137e+00 0 0 0
129 2 3.6914999999999996e+00 2.1312885187134998e+00 5.7035112714801137e+00 0 0 0
106 2 1.2305000000000001e+00 3.5521475311891644e+00 5.7035112714801137e+00 0 0 0
127 2 3.6914999999999996e+00 3.5521475311891644e+00 5.7035112714801137e+00 0 0 0
131 2 4.9220000000000006e+00 1.4208590124756650e+00 5.7035112714801137e+00 0 0 0
133 2 4.9220000000000006e+00 0.0000000000000000e+00 5.7035112714801137e+00 0 0 0
158 2 6.1524999999999999e+00 2.1312885187134989e+00 5.7035112714801137e+00 0 0 0
160 2 7.3829999999999991e+00 1.4208590124756659e+00 5.7035112714801137e+00 0 0 0
162 2 7.3829999999999991e+00 0.0000000000000000e+00 5.7035112714801137e+00 0 0 0
195 2 8.6134999999999984e+00 2.1312885187135002e+00 5.7035112714801137e+00 0 0 0
156 2 6.1524999999999999e+00 3.5521475311891644e+00 5.7035112714801137e+00 0 0 0
193 2 8.6134999999999984e+00 3.5521475311891657e+00 5.7035112714801137e+00 0 0 0
102 2 0.0000000000000000e+00 5.6834360499026637e+00 5.7035112714801137e+00 0 0 0
104 2 0.0000000000000000e+00 4.2625770374269996e+00 5.7035112714801137e+00 0 0 0
121 2 1.2305000000000001e+00 6.3938655561404980e+00 5.7035112714801137e+00 0 0 0
123 2 2.4610000000000003e+00 5.6834360499026637e+00 5.7035112714801137e+00 0 0 0
125 2 2.4610000000000003e+00 4.2625770374269996e+00 5.7035112714801137e+00 0 0 0
150 2 3.6914999999999996e+00 6.3938655561404980e+00 5.7035112714801137e+00 0 0 0
119 2 1.2305000000000001e+00 7.8147245686161639e+00 5.7035112714801137e+00 0 0 0
148 2 3.6914999999999996e+00 7.8147245686161639e+00 5.7035112714801137e+00 0 0 0
152 2 4.9220000000000006e+00 5.6834360499026637e+00 5.7035112714801137e+00 0 0 0
154 2 4.9220000000000006e+00 4.2625770374269978e+00 5.7035112714801137e+00 0 0 0
187 2 6.1524999999999999e+00 6.3938655561404980e+00 5.7035112714801137e+00 0 0 0
189 2 7.3829999999999991e+00 5.6834360499026637e+00 5.7035112714801137e+00 0 0 0
191 2 7.3829999999999991e+00 4.2625770374269996e+00 5.7035112714801137e+00 0 0 0
232 2 8.6135000000000002e+00 6.3938655561404980e+00 5.7035112714801137e+00 0 0 0
185 2 6.1524999999999999e+00 7.8147245686161639e+00 5.7035112714801137e+00 0 0 0
230 2 8.6135000000000002e+00 7.8147245686161639e+00 5.7035112714801137e+00 0 0 0
115 2 0.0000000000000000e+00 9.9460130873296642e+00 5.7035112714801137e+00 0 0 0
117 2 0.0000000000000000e+00 8.5251540748539991e+00 5.7035112714801137e+00 0 0 0
144 2 2.4610000000000003e+00 9.9460130873296642e+00 5.7035112714801137e+00 0 0 0
146 2 2.4610000000000003e+00 8.5251540748539991e+00 5.7035112714801137e+00 0 0 0
140 2 1.2305000000000001e+00 1.2077301606043163e+01 5.7035112714801137e+00 0 0 0
142 2 1.2305000000000001e+00 1.0656442593567498e+01 5.7035112714801137e+00 0 0 0
177 2 3.6914999999999996e+00 1.2077301606043163e+01 5.7035112714801137e+00 0 0 0
179 2 3.6914999999999996e+00 1.0656442593567499e+01 5.7035112714801137e+00 0 0 0
181 2 4.9220000000000006e+00 9.9460130873296642e+00 5.7035112714801137e+00 0 0 0
183 2 4.9220000000000006e+00 8.5251540748539991e+00 5.7035112714801137e+00 0 0 0
226 2 7.3830000000000009e+00 9.9460130873296642e+00 5.7035112714801137e+00 0 0 0
228 2 7.3830000000000009e+00 8.5251540748539991e+00 5.7035112714801137e+00 0 0 0
222 2 6.1524999999999999e+00 1.2077301606043163e+01 5.7035112714801137e+00 0 0 0
224 2 6.1524999999999999e+00 1.0656442593567499e+01 5.7035112714801137e+00 0 0 0
269 2 8.6135000000000002e+00 1.2077301606043163e+01 5.7035112714801137e+00 0 0 0
271 2 8.6134999999999984e+00 1.0656442593567498e+01 5.7035112714801137e+00 0 0 0
425 2 0.0000000000000000e+00 2.8417180249513345e+00 8.8685839907621364e+00 0 0 0
426 2 0.0000000000000000e+00 0.0000000000000000e+00 8.8685839907621364e+00 0 0 0
427 2 1.2305000000000001e+00 7.1042950623783474e-01 8.8685839907621364e+00 0 0 0
431 2 1.2305000000000001e+00 2.1312885187134998e+00 8.8685839907621364e+00 0 0 0
432 2 2.4610000000000003e+00 2.8417180249513345e+00 8.8685839907621364e+00 0 0 0
433 2 2.4610000000000003e+00 0.0000000000000000e+00 8.8685839907621364e+00 0 0 0
434 2 3.6915000000000004e+00 7.1042950623783474e-01 8.8685839907621364e+00 0 0 0
442 2 3.6914999999999996e+00 2.1312885187134998e+00 8.8685839907621364e+00 0 0 0
699 1 3.2243722336683116e+00 3.2790099591776856e+00 1.1332130948505373e+01 1 2 0
443 2 4.9220000000000006e+00 2.8417180249513332e+00 8.8685839907621364e+00 0 0 0
444 2 4.9220000000000006e+00 0.0000000000000000e+00 8.8685839907621364e+00 0 0 0
445 2 6.1524999999999999e+00 7.1042950623783407e-01 8.8685839907621364e+00 0 0 0
457 2 6.1524999999999999e+00 2.1312885187134989e+00 8.8685839907621364e+00 0 0 0
458 2 7.3829999999999991e+00 2.8417180249513345e+00 8.8685839907621364e+00 0 0 0
459 2 7.3829999999999991e+00 0.0000000000000000e+00 8.8685839907621364e+00 0 0 0
460 2 8.6134999999999984e+00 7.1042950623783407e-01 8.8685839907621364e+00 0 0 0
476 2 8.6134999999999984e+00 2.1312885187135002e+00 8.8685839907621364e+00 0 0 0
1473 1 1.4711254101084814e+00 7.5996568510912867e+00 1.1440438144423823e+01 0 2 1
429 2 0.0000000000000000e+00 4.2625770374269996e+00 8.8685839907621364e+00 0 0 0
430 2 1.2305000000000001e+00 4.9730065436648339e+00 8.8685839907621364e+00 0 0 0
438 2 1.2305000000000001e+00 6.3938655561404980e+00 8.8685839907621364e+00 0 0 0
440 2 2.4610000000000003e+00 4.2625770374269996e+00 8.8685839907621364e+00 0 0 0
441 2 3.6914999999999996e+00 4.9730065436648339e+00 8.8685839907621364e+00 0 0 0
453 2 3.6914999999999996e+00 6.3938655561404980e+00 8.8685839907621364e+00 0 0 0
428 2 0.0000000000000000e+00 7.1042950623783341e+00 8.8685839907621364e+00 0 0 0
439 2 2.4610000000000003e+00 7.1042950623783341e+00 8.8685839907621364e+00 0 0 0
455 2 4.9220000000000006e+00 4.2625770374269978e+00 8.8685839907621364e+00 0 0 0
456 2 6.1524999999999999e+00 4.9730065436648339e+00 8.8685839907621364e+00 0 0 0
472 2 6.1524999999999999e+00 6.3938655561404980e+00 8.8685839907621364e+00 0 0 0
474 2 7.3829999999999991e+00 4.2625770374269996e+00 8.8685839907621364e+00 0 0 0
475 2 8.6135000000000002e+00 4.9730065436648339e+00 8.8685839907621364e+00 0 0 0
495 2 8.6135000000000002e+00 6.3938655561404980e+00 8.8685839907621364e+00 0 0 0
454 2 4.9220000000000006e+00 7.1042950623783341e+00 8.8685839907621364e+00 0 0 0
473 2 7.3830000000000009e+00 7.1042950623783341e+00 8.8685839907621364e+00 0 0 0
3592 1 6.5113540118830109e+00 6.8917999567998800e+00 1.1383180001775964e+01 -1 1 0
2929 1 4.0898418123021072e+00 8.5407437483312503e+00 1.1407295184412371e+01 1 0 -1
436 2 0.0000000000000000e+00 8.5251540748539991e+00 8.8685839907621364e+00 0 0 0
437 2 1.2305000000000001e+00 9.2355835810918343e+00 8.8685839907621364e+00 0 0 0
451 2 2.4610000000000003e+00 8.5251540748539991e+00 8.8685839907621364e+00 0 0 0
452 2 3.6915000000000004e+00 9.2355835810918343e+00 8.8685839907621364e+00 0 0 0
435 2 0.0000000000000000e+00 1.1366872099805333e+01 8.8685839907621364e+00 0 0 0
449 2 1.2305000000000001e+00 1.0656442593567498e+01 8.8685839907621364e+00 0 0 0
450 2 2.4610000000000003e+00 1.1366872099805333e+01 8.8685839907621364e+00 0 0 0
468 2 3.6914999999999996e+00 1.0656442593567499e+01 8.8685839907621364e+00 0 0 0
21 1 3.6219705666504776e-01 1.1687660481130722e+01 1.1073344892012329e+01 -1 -1 0
492 2 7.3829999999999991e+00 1.1366872099805333e+01 8.8685839907621364e+00 0 0 0
494 2 8.6134999999999984e+00 9.2355835810918343e+00 8.8685839907621364e+00 0 0 0
491 2 6.1524999999999999e+00 1.0656442593567499e+01 8.8685839907621364e+00 0 0 0
469 2 4.9220000000000006e+00 1.1366872099805333e+01 8.8685839907621364e+00 0 0 0
470 2 4.9220000000000006e+00 8.5251540748539991e+00 8.8685839907621364e+00 0 0 0
493 2 7.3830000000000009e+00 8.5251540748539991e+00 8.8685839907621364e+00 0 0 0
471 2 6.1524999999999999e+00 9.2355835810918343e+00 8.8685839907621364e+00 0 0 0
515 2 8.6134999999999984e+00 1.0656442593567498e+01 8.8685839907621364e+00 0 0 0
2870 1 5.0350836838850821e+00 1.0965689073872833e+01 1.1338199680224545e+01 0 0 0
2177 1 7.6743515428597400e+00 1.1804502144110256e+01 1.1364464696293053e+01 -1 0 0
3112 1 3.0638257049034929e+00 5.1400732846260455e-01 1.4564695580470467e+01 -1 1 0
651 1 3.1844542624717955e+00 6.1414749912042210e-01 1.1934945123104562e+01 0 2 0
688 1 5.9322426108634616e+00 4.0466579916152448e+00 1.4855746166415877e+01 -1 0 0
4330 1 7.8694189903565706e+00 2.2817513035203656e+00 1.1857936678170329e+01 1 0 0
3027 1 1.2159043778117702e+00 5.2146686033049017e+00 1.4472509529731832e+01 1 0 0
3117 1 9.0334353067901785e-01 4.8571926508299494e+00 1.1697269371187808e+01 1 2 0
3723 1 9.1222682888675166e+00 7.5570079671156538e+00 1.4660882069141918e+01 -1 2 0
2980 1 5.7402590046777258e+00 4.1594886269935882e+00 1.2174428535331957e+01 2 -2 0
2169 1 9.2810377926146437e+00 7.7153049435669825e+00 1.1947294374034094e+01 0 -1 -1
2308 1 4.6676805743670338e+00 8.6324025683824601e+00 1.4158736016515521e+01 -2 0 0
3008 1 7.6295363731256716e+00 1.1936333458967633e+01 1.4297176734537722e+01 0 1 -1
3641 1 5.2907736393044882e+00 1.0998203752492122e+01 1.5148545569808006e+01 -1 1 -1
4409 1 3.3058682550520233e+00 3.3390519640138501e+00 1.5256376006042302e+01 0 3 0
3042 1 3.6812232719396056e+00 3.5712145645663602e+00 1.7946648690761311e+01 1 1 0
2827 1 3.3760477670691458e+00 8.0637749779250256e-01 1.8744021666380185e+01 0 0 0
795 1 8.2187507195279004e+00 2.5659426127570533e+00 1.5537101609359244e+01 0 -1 0
767 1 8.1052303200421303e+00 2.2017701188635432e+00 1.8127114125002510e+01 0 1 -1
2185 1 2.0381487216843190e+00 7.6559599583800324e+00 1.5215586316543193e+01 -1 1 0
4419 1 1.6671396513751258e+00 7.7023769301672163e+00 1.7844338787416323e+01 0 1 0
3773 1 6.5946137252283954e+00 6.6225750240549477e+00 1.5233572334626377e+01 1 0 0
859 1 6.5612276814540627e+00 6.6561557562058731e+00 1.8041809899597137e+01 -3 -2 0
2286 1 3.0184727918716997e-01 1.1899809254914389e+01 1.8171054601632321e+01 -1 3 -1
1409 1 2.3773820204860205e-01 1.1731826811088185e+01 1.5440050354995449e+01 1 -2 -1
2961 1 9.7740540066959962e+00 1.0249576030293275e+01 1.8375178999025334e+01 -2 0 0
4528 1 5.1183468202146107e+00 1.0904403786930601e+01 1.7995264730885289e+01 0 -3 -1
3023 1 9.4184171154968794e+00 1.0270763465557268e+01 1.5802320092740198e+01 4 2 0
3081 1 3.4350569923183594e+00 5.6409672369908070e-01 2.1486837083973995e+01 2 1 0
3748 1 6.2415200686018366e+00 3.9500229237993878e+00 1.9219041064255325e+01 1 -1 -1
1389 1 1.4224628429193249e+00 5.2202966959416832e+00 1.8861514899360010e+01 2 0 0
743 1 4.3327573198370422e+00 8.1598896500953284e+00 1.8895554355264267e+01 -1 2 -1
4493 1 2.0639739461125952e+00 5.6279952264687116e+00 2.1302273443926357e+01 0 0 0
2965 1 9.3892302995547201e+00 7.6756828698770727e+00 2.1735521203539619e+01 0 -1 0
860 1 8.9490920231214623e+00 7.6498011250910007e+00 1.8869614522247190e+01 0 2 0
1428 1 6.3997438315234225e+00 4.2177337433192497e+00 2.1987890956006115e+01 0 1 0
2882 1 4.8849451754799942e+00 8.5036678831179096e+00 2.1771422063283143e+01 1 0 0
3069 1 1.0624951412688688e-01 9.4725513921936635e+00 1.9180014534400989e+01 0 0 0
799 1 1.6687039095527120e-01 9.5645415732149139e+00 2.1989976685111344e+01 0 0 1
719 1 8.0141479966397924e+00 1.2009188965356202e+01 2.1811889684915091e+01 1 2 0
2121 1 7.6551584151903658e+00 1.1871191071978672e+01 1.9210136606549742e+01 1 2 -1
3082 1 1.9213484517987995e+00 2.6432370830385787e+00 2.5125811184091042e+01 1 -1 -1
3707 1 2.0206678469338337e+00 2.9605418887772874e+00 2.2402748496534773e+01 1 0 0
87 1 6.1732897188070668e+00 1.6333385747522717e+00 2.5162190427321228e+01 0 0 0
3747 1 6.0667309816399584e+00 1.6631434696114427e+00 2.2524058954584618e+01 2 -1 -1
1457 1 4.3672685482152698e+00 5.8918464025701862e+00 2.5312292331261681e+01 -1 2 0
2902 1 4.4434412088779460e+00 6.0404327620318901e+00 2.2588736002166993e+01 -1 0 0
1562 1 6.6783703779080383e-02 6.9362564859876352e+00 2.5656046045708152e+01 -1 -1 0
1501 1 8.7246959570319760e+00 5.1479394815124531e+00 2.5352599256857317e+01 0 -1 -1
3132 1 8.8143611954694450e+00 5.1936722521634273e+00 2.2650503122478984e+01 -1 1 0
4417 1 3.0144925078912670e+00 1.0437826684539978e+01 2.5626559243261084e+01 0 3 0
3811 1 2.7632427584708714e+00 1.0183229867782144e+01 2.2789072636946646e+01 -1 0 0
1356 1 7.0865055083192949e+00 9.3828303741211361e+00 2.5388671096384421e+01 1 -1 0
2984 1 5.3364193706218641e+00 1.1466815860188193e+01 2.5923864051701987e+01 -2 0 1
2320 1 7.4028046609169209e+00 9.3070097950251629e+00 2.2767786582242056e+01 0 2 1
1482 1 4.4020418011501103e+00 3.4194457084969638e+00 2.6453773900001366e+01 -2 0 0
3025 1 2.5739913306100450e+00 2.7447196793396347e+00 2.9201817252176738e+01 3 0 0
3779 1 1.8278337011067216e+00 1.1093781183982547e-01 2.8953025245153473e+01 3 1 0
723 1 1.4953157275574593e+00 2.0579265689816353e-01 2.6191639889635848e+01 1 -1 0
3687 1 5.2878818253995181e+00 3.8427881986982717e+00 2.9245006689585210e+01 3 -2 -1
4527 1 8.5229948314671109e+00 2.6466588442334174e+00 2.6145208450199693e+01 0 2 0
2840 1 7.4375054387595956e+00 2.1156934867104962e+00 2.8957237842112537e+01 1 1 0
3033 1 6.3510523703446409e-01 4.8634191788869572e+00 2.9177388412099148e+01 1 2 0
4531 1 1.2166727406413926e+00 7.7535788939518611e+00 2.9340639425841520e+01 -2 -1 0
2267 1 2.4397125795567747e+00 7.8633772488412657e+00 2.6488845581816037e+01 1 -1 0
4501 1 6.7629377331570533e+00 6.8298303798556423e+00 2.6304371834673660e+01 0 0 -1
4505 1 8.9012709744850884e+00 7.0229720452699551e+00 2.9090919968905510e+01 1 1 0
3696 1 6.2674451028036744e+00 6.3501352639286317e+00 2.9270884219797566e+01 0 -2 0
54 1 8.5607190563525848e-01 1.2194719080454679e+01 2.6477913779145755e+01 -1 0 0
1609 1 4.1774839510284130e+00 8.1996980979700851e+00 2.8792386371574263e+01 1 -1 0
2118 1 7.6805164319711894e+00 1.1532541026731577e+01 2.9264723937290992e+01 -2 1 -1
1502 1 4.9844805748130536e+00 1.0945281372595467e+01 2.8605275940361306e+01 3 -1 0
3035 1 9.7789870305087110e+00 9.6970994717959709e+00 2.8978423268492577e+01 1 -1 0
1382 1 9.6575416569042254e+00 1.0041461060372855e+01 2.6342565130877173e+01 0 1 1
876 1 1.8018434372748469e+00 2.3523334115164460e-01 3.2158605196591267e+01 1 0 0
1351 1 2.3715914364630124e+00 3.0785170019815555e+00 3.2179169988562641e+01 0 1 0
4357 1 5.3230034978079939e+00 3.7768694457121148e+00 3.2110298300553382e+01 -2 2 0
4373 1 7.5856191313719883e+00 2.0482811513636849e+00 3.2015619753416459e+01 -1 2 -1
711 1 2.6559511799620644e-01 4.7647209097570631e+00 3.2058847398219513e+01 0 -1 1
1624 1 1.5945423161113450e+00 7.4552840497209667e+00 3.2305418130969500e+01 -1 0 0
4380 1 9.0654045890707948e+00 7.3776757933868664e+00 3.1654624217123121e+01 2 0 0
2367 1 6.4534904798230635e+00 6.6849979147074627e+00 3.2130175728487842e+01 1 1 0
659 1 4.3194151387817742e-01 1.0233511201514929e+01 3.0851354630756216e+01 0 1 0
2097 1 2.2648263384831688e+00 1.1805149514025441e+01 3.2514060142743908e+01 1 0 0
1567 1 4.7313781273441293e+00 1.0979765893983796e+01 3.1377290427514168e+01 0 1 0
3123 1 4.2486628538805888e+00 8.4875845856402989e+00 3.1924688836211509e+01 1 -2 0
2284 1 9.7930847260144027e+00 1.0070372257510190e+01 3.2080885380005903e+01 0 -4 -1
2157 1 7.3785803960068526e+00 1.1176123492408601e+01 3.1866540439054305e+01 1 0 0
137 2 0.0000000000000000e+00 1.2787731112280996e+01 2.5384385521989423e+00 0 0 0
139 2 1.2305000000000001e+00 1.3498160618518829e+01 2.5384385521989423e+00 0 0 0
174 2 2.4610000000000003e+00 1.2787731112280996e+01 2.5384385521989423e+00 0 0 0
176 2 3.6915000000000004e+00 1.3498160618518829e+01 2.5384385521989423e+00 0 0 0
135 2 0.0000000000000000e+00 1.5629449137232333e+01 2.5384385521989423e+00 0 0 0
170 2 1.2305000000000001e+00 1.4919019630994494e+01 2.5384385521989423e+00 0 0 0
172 2 2.4610000000000003e+00 1.5629449137232328e+01 2.5384385521989423e+00 0 0 0
215 2 3.6915000000000004e+00 1.4919019630994494e+01 2.5384385521989423e+00 0 0 0
219 2 4.9220000000000006e+00 1.2787731112280996e+01 2.5384385521989423e+00 0 0 0
221 2 6.1524999999999990e+00 1.3498160618518829e+01 2.5384385521989423e+00 0 0 0
266 2 7.3829999999999991e+00 1.2787731112280996e+01 2.5384385521989423e+00 0 0 0
268 2 8.6135000000000002e+00 1.3498160618518835e+01 2.5384385521989423e+00 0 0 0
217 2 4.9220000000000006e+00 1.5629449137232333e+01 2.5384385521989423e+00 0 0 0
262 2 6.1524999999999990e+00 1.4919019630994494e+01 2.5384385521989423e+00 0 0 0
264 2 7.3829999999999991e+00 1.5629449137232333e+01 2.5384385521989423e+00 0 0 0
309 2 8.6135000000000002e+00 1.4919019630994494e+01 2.5384385521989423e+00 0 0 0
166 2 0.0000000000000000e+00 1.7050308149707998e+01 2.5384385521989423e+00 0 0 0
211 2 2.4610000000000003e+00 1.7050308149707998e+01 2.5384385521989423e+00 0 0 0
164 2 0.0000000000000000e+00 1.9892026174659328e+01 2.5384385521989423e+00 0 0 0
168 2 1.2305000000000001e+00 1.7760737655945832e+01 2.5384385521989423e+00 0 0 0
207 2 1.2305000000000001e+00 1.9181596668421495e+01 2.5384385521989423e+00 0 0 0
209 2 2.4610000000000003e+00 1.9892026174659328e+01 2.5384385521989423e+00 0 0 0
213 2 3.6914999999999996e+00 1.7760737655945832e+01 2.5384385521989423e+00 0 0 0
254 2 3.6914999999999996e+00 1.9181596668421495e+01 2.5384385521989423e+00 0 0 0
258 2 4.9220000000000006e+00 1.7050308149707998e+01 2.5384385521989423e+00 0 0 0
305 2 7.3830000000000009e+00 1.7050308149707998e+01 2.5384385521989423e+00 0 0 0
256 2 4.9220000000000006e+00 1.9892026174659328e+01 2.5384385521989423e+00 0 0 0
260 2 6.1524999999999999e+00 1.7760737655945832e+01 2.5384385521989423e+00 0 0 0
301 2 6.1524999999999999e+00 1.9181596668421495e+01 2.5384385521989423e+00 0 0 0
303 2 7.3829999999999991e+00 1.9892026174659328e+01 2.5384385521989423e+00 0 0 0
307 2 8.6134999999999984e+00 1.7760737655945832e+01 2.5384385521989423e+00 0 0 0
343 2 8.6135000000000002e+00 1.9181596668421495e+01 2.5384385521989423e+00 0 0 0
201 2 0.0000000000000000e+00 2.4154603212086325e+01 2.5384385521989423e+00 0 0 0
203 2 0.0000000000000000e+00 2.1312885187134999e+01 2.5384385521989423e+00 0 0 0
205 2 1.2304999999999993e+00 2.2023314693372832e+01 2.5384385521989423e+00 0 0 0
246 2 1.2304999999999993e+00 2.3444173705848499e+01 2.5384385521989423e+00 0 0 0
248 2 2.4610000000000003e+00 2.4154603212086325e+01 2.5384385521989423e+00 0 0 0
250 2 2.4610000000000003e+00 2.1312885187134995e+01 2.5384385521989423e+00 0 0 0
252 2 3.6914999999999996e+00 2.2023314693372832e+01 2.5384385521989423e+00 0 0 0
293 2 3.6915000000000004e+00 2.3444173705848499e+01 2.5384385521989423e+00 0 0 0
295 2 4.9220000000000006e+00 2.4154603212086325e+01 2.5384385521989423e+00 0 0 0
297 2 4.9220000000000006e+00 2.1312885187134995e+01 2.5384385521989423e+00 0 0 0
299 2 6.1524999999999990e+00 2.2023314693372832e+01 2.5384385521989423e+00 0 0 0
335 2 6.1524999999999999e+00 2.3444173705848499e+01 2.5384385521989423e+00 0 0 0
337 2 7.3830000000000009e+00 2.4154603212086336e+01 2.5384385521989423e+00 0 0 0
339 2 7.3829999999999991e+00 2.1312885187134999e+01 2.5384385521989423e+00 0 0 0
341 2 8.6135000000000002e+00 2.2023314693372832e+01 2.5384385521989423e+00 0 0 0
369 2 8.6134999999999984e+00 2.3444173705848499e+01 2.5384385521989423e+00 0 0 0
138 2 0.0000000000000000e+00 1.2787731112280996e+01 5.7035112714801137e+00 0 0 0
175 2 2.4610000000000003e+00 1.2787731112280996e+01 5.7035112714801137e+00 0 0 0
136 2 0.0000000000000000e+00 1.4208590124756663e+01 5.7035112714801137e+00 0 0 0
171 2 1.2305000000000001e+00 1.4919019630994494e+01 5.7035112714801137e+00 0 0 0
173 2 2.4610000000000003e+00 1.4208590124756663e+01 5.7035112714801137e+00 0 0 0
216 2 3.6915000000000004e+00 1.4919019630994494e+01 5.7035112714801137e+00 0 0 0
220 2 4.9220000000000006e+00 1.2787731112280996e+01 5.7035112714801137e+00 0 0 0
267 2 7.3829999999999991e+00 1.2787731112280996e+01 5.7035112714801137e+00 0 0 0
218 2 4.9220000000000006e+00 1.4208590124756663e+01 5.7035112714801137e+00 0 0 0
263 2 6.1524999999999990e+00 1.4919019630994494e+01 5.7035112714801137e+00 0 0 0
265 2 7.3830000000000009e+00 1.4208590124756663e+01 5.7035112714801137e+00 0 0 0
310 2 8.6135000000000002e+00 1.4919019630994494e+01 5.7035112714801137e+00 0 0 0
167 2 0.0000000000000000e+00 1.7050308149707998e+01 5.7035112714801137e+00 0 0 0
169 2 1.2305000000000001e+00 1.6339878643470165e+01 5.7035112714801137e+00 0 0 0
212 2 2.4610000000000003e+00 1.7050308149707998e+01 5.7035112714801137e+00 0 0 0
214 2 3.6915000000000004e+00 1.6339878643470165e+01 5.7035112714801137e+00 0 0 0
165 2 0.0000000000000000e+00 1.8471167162183658e+01 5.7035112714801137e+00 0 0 0
208 2 1.2305000000000001e+00 1.9181596668421495e+01 5.7035112714801137e+00 0 0 0
210 2 2.4610000000000003e+00 1.8471167162183658e+01 5.7035112714801137e+00 0 0 0
255 2 3.6914999999999996e+00 1.9181596668421495e+01 5.7035112714801137e+00 0 0 0
259 2 4.9220000000000006e+00 1.7050308149707998e+01 5.7035112714801137e+00 0 0 0
261 2 6.1524999999999999e+00 1.6339878643470165e+01 5.7035112714801137e+00 0 0 0
306 2 7.3830000000000009e+00 1.7050308149707998e+01 5.7035112714801137e+00 0 0 0
308 2 8.6134999999999984e+00 1.6339878643470165e+01 5.7035112714801137e+00 0 0 0
257 2 4.9220000000000006e+00 1.8471167162183658e+01 5.7035112714801137e+00 0 0 0
302 2 6.1524999999999999e+00 1.9181596668421495e+01 5.7035112714801137e+00 0 0 0
304 2 7.3829999999999991e+00 1.8471167162183658e+01 5.7035112714801137e+00 0 0 0
344 2 8.6135000000000002e+00 1.9181596668421495e+01 5.7035112714801137e+00 0 0 0
206 2 1.2305000000000001e+00 2.0602455680897162e+01 5.7035112714801137e+00 0 0 0
253 2 3.6915000000000004e+00 2.0602455680897162e+01 5.7035112714801137e+00 0 0 0
202 2 0.0000000000000000e+00 2.2733744199610655e+01 5.7035112714801137e+00 0 0 0
204 2 0.0000000000000000e+00 2.1312885187134999e+01 5.7035112714801137e+00 0 0 0
247 2 1.2304999999999993e+00 2.3444173705848499e+01 5.7035112714801137e+00 0 0 0
249 2 2.4610000000000003e+00 2.2733744199610655e+01 5.7035112714801137e+00 0 0 0
251 2 2.4610000000000003e+00 2.1312885187134995e+01 5.7035112714801137e+00 0 0 0
294 2 3.6915000000000004e+00 2.3444173705848499e+01 5.7035112714801137e+00 0 0 0
300 2 6.1524999999999999e+00 2.0602455680897162e+01 5.7035112714801137e+00 0 0 0
342 2 8.6134999999999984e+00 2.0602455680897162e+01 5.7035112714801137e+00 0 0 0
296 2 4.9220000000000006e+00 2.2733744199610655e+01 5.7035112714801137e+00 0 0 0
298 2 4.9220000000000006e+00 2.1312885187134995e+01 5.7035112714801137e+00 0 0 0
336 2 6.1524999999999999e+00 2.3444173705848499e+01 5.7035112714801137e+00 0 0 0
338 2 7.3829999999999991e+00 2.2733744199610655e+01 5.7035112714801137e+00 0 0 0
340 2 7.3829999999999991e+00 2.1312885187134999e+01 5.7035112714801137e+00 0 0 0
370 2 8.6134999999999984e+00 2.3444173705848499e+01 5.7035112714801137e+00 0 0 0
447 2 0.0000000000000000e+00 1.2787731112280996e+01 8.8685839907621364e+00 0 0 0
448 2 1.2305000000000001e+00 1.3498160618518829e+01 8.8685839907621364e+00 0 0 0
466 2 2.4610000000000003e+00 1.2787731112280996e+01 8.8685839907621364e+00 0 0 0
467 2 3.6915000000000004e+00 1.3498160618518829e+01 8.8685839907621364e+00 0 0 0
446 2 0.0000000000000000e+00 1.5629449137232333e+01 8.8685839907621364e+00 0 0 0
464 2 1.2305000000000001e+00 1.4919019630994494e+01 8.8685839907621364e+00 0 0 0
465 2 2.4610000000000003e+00 1.5629449137232328e+01 8.8685839907621364e+00 0 0 0
487 2 3.6915000000000004e+00 1.4919019630994494e+01 8.8685839907621364e+00 0 0 0
797 1 3.2670945603646278e+00 1.5067219475853330e+01 1.1396756882315666e+01 0 -1 0
489 2 4.9220000000000006e+00 1.2787731112280996e+01 8.8685839907621364e+00 0 0 0
490 2 6.1524999999999990e+00 1.3498160618518829e+01 8.8685839907621364e+00 0 0 0
513 2 7.3829999999999991e+00 1.2787731112280996e+01 8.8685839907621364e+00 0 0 0
514 2 8.6135000000000002e+00 1.3498160618518835e+01 8.8685839907621364e+00 0 0 0
488 2 4.9220000000000006e+00 1.5629449137232333e+01 8.8685839907621364e+00 0 0 0
511 2 6.1524999999999990e+00 1.4919019630994494e+01 8.8685839907621364e+00 0 0 0
512 2 7.3829999999999991e+00 1.5629449137232333e+01 8.8685839907621364e+00 0 0 0
535 2 8.6135000000000002e+00 1.4919019630994494e+01 8.8685839907621364e+00 0 0 0
867 1 7.7720057580755286e+00 1.4776892815513088e+01 1.1133094486582007e+01 -1 3 0
462 2 0.0000000000000000e+00 1.7050308149707998e+01 8.8685839907621364e+00 0 0 0
485 2 2.4610000000000003e+00 1.7050308149707998e+01 8.8685839907621364e+00 0 0 0
461 2 0.0000000000000000e+00 1.9892026174659328e+01 8.8685839907621364e+00 0 0 0
463 2 1.2305000000000001e+00 1.7760737655945832e+01 8.8685839907621364e+00 0 0 0
483 2 1.2305000000000001e+00 1.9181596668421495e+01 8.8685839907621364e+00 0 0 0
484 2 2.4610000000000003e+00 1.9892026174659328e+01 8.8685839907621364e+00 0 0 0
486 2 3.6914999999999996e+00 1.7760737655945832e+01 8.8685839907621364e+00 0 0 0
507 2 3.6914999999999996e+00 1.9181596668421495e+01 8.8685839907621364e+00 0 0 0
669 1 1.4397845242937275e+00 1.9457028480901979e+01 1.1413961526957946e+01 2 2 -1
509 2 4.9220000000000006e+00 1.7050308149707998e+01 8.8685839907621364e+00 0 0 0
533 2 7.3830000000000009e+00 1.7050308149707998e+01 8.8685839907621364e+00 0 0 0
508 2 4.9220000000000006e+00 1.9892026174659328e+01 8.8685839907621364e+00 0 0 0
510 2 6.1524999999999999e+00 1.7760737655945832e+01 8.8685839907621364e+00 0 0 0
531 2 6.1524999999999999e+00 1.9181596668421495e+01 8.8685839907621364e+00 0 0 0
532 2 7.3829999999999991e+00 1.9892026174659328e+01 8.8685839907621364e+00 0 0 0
534 2 8.6134999999999984e+00 1.7760737655945832e+01 8.8685839907621364e+00 0 0 0
552 2 8.6135000000000002e+00 1.9181596668421495e+01 8.8685839907621364e+00 0 0 0