
# Create simulation box and atoms

read_data data.ML_graphite_m500atm_240K
  orthogonal box = (0 0 1.70882) to (49.22 49.0196 32.2312)
  5 by 4 by 3 MPI processor grid
  reading atoms ...
  4537 atoms
  reading velocities ...
  4537 velocities
group water type 1
1777 atoms in group water
group graphite type 2
2760 atoms in group graphite

# Define potential

pair_style sw
pair_coeff * * MLC_e.sw mW C


# Fix graphite atoms in place

fix 5 graphite setforce 0.0 0.0 0.0
velocity graphite set 0.0 0.0 0.0


# Equilibration of molecular water

# Add velocity/set timestep

velocity	    water create ${TEMP} ${SEED} rot yes dist gaussian
velocity	    water create 240 ${SEED} rot yes dist gaussian
velocity	    water create 240 32272 rot yes dist gaussian
timestep	    5.0

# Define output

compute			1 water msd
compute			3 water temp
thermo	    	50
thermo_style	custom step temp press vol etotal ke pe c_1[4] c_3

# Neighbor lists

neigh_modify    delay 0 every 1 check yes

# Set fixes

fix             1 water momentum 10 linear 1 1 1 rescale
fix             2 water nve
fix             3 water temp/csvr ${TEMP} ${TEMP} 500.0 ${SEED}
fix             3 water temp/csvr 240 ${TEMP} 500.0 ${SEED}
fix             3 water temp/csvr 240 240 500.0 ${SEED}
fix             3 water temp/csvr 240 240 500.0 32272
fix             4 water press/berendsen z ${PRES} ${PRES} 1000.0 modulus 20000
fix             4 water press/berendsen z -500 ${PRES} 1000.0 modulus 20000
fix             4 water press/berendsen z -500 -500 1000.0 modulus 20000

# Run 0.5 ns equilibration

dump		    1 all atom 2000 ${DIR}/eq.${NAME}-${TEMP}.dump
dump		    1 all atom 2000 run_20/eq.${NAME}-${TEMP}.dump
dump		    1 all atom 2000 run_20/eq.het_freeze_20-${TEMP}.dump
dump		    1 all atom 2000 run_20/eq.het_freeze_20-240.dump

reset_timestep  0

run	            100000
Neighbor list info ...
  update every 1 steps, delay 0 steps, check yes
  max neighbors/atom: 2000, page size: 100000
  master list distance cutoff = 6.67472
  ghost atom cutoff = 6.67472
  binsize = 3.33736, bins = 15 15 10
  1 neighbor lists, perpetual/occasional/extra = 1 0 0
  (1) pair sw, perpetual
      attributes: full, newton on
      pair build: full/bin/atomonly
      stencil: full/bin/3d
      bin: standard
Per MPI rank memory allocation (min/avg/max) = 4.104 | 4.229 | 4.477 Mbytes
Step Temp Press Volume TotEng KinEng PotEng c_1[4] c_3 
       0    93.968254   -654.73592     73642.74   -17158.673    1270.5405   -18429.214            0          240 
      50    93.032818   -513.33053    73626.543    -17165.57    1257.8925   -18423.462   0.50398758    237.61085 
     100    91.596478   -637.70884    73635.462   -17157.308    1238.4718    -18395.78    0.8584124    233.94236 
     150    94.861995   -735.24152    73629.141   -17160.293    1282.6247   -18442.918    1.0466301    242.28266 
     200    95.278422   -849.06921    73639.119   -17157.794    1288.2552   -18446.049    1.2147117    243.34624 
     250    92.227973   -213.86251    73651.068   -17212.116    1247.0102   -18459.127    1.3639088    235.55523 
     300    90.344256   -890.67555    73593.473   -17232.851    1221.5406   -18454.392    1.5585819    230.74411 
     350    96.786011   -898.76263    73574.935   -17254.518    1308.6392   -18563.157    1.7187655     247.1967 
     400    90.718025   -645.93344    73617.473   -17273.358    1226.5943   -18499.952    1.9862396    231.69874 
     450    93.844689   -466.04997    73698.799   -17243.948    1268.8698   -18512.818     2.167286    239.68441 
     500    93.288453   -733.87137    73842.863   -17231.811    1261.3489    -18493.16    2.4113786    238.26375 
     550    92.769421   -960.24284    73856.755   -17244.008    1254.3311   -18498.339     2.600251    236.93812 
     600    90.099823   -754.77819    73757.631   -17264.526    1218.2356   -18482.761    2.8172794    230.11982 
     650    94.802682   -414.38326    73787.057    -17235.02    1281.8227   -18516.843    2.9404269    242.13118 
     700    95.184731   -476.42892    73843.956   -17213.176    1286.9884   -18500.164    3.0414247    243.10695 
     750    94.530964   -1222.6483    73882.241   -17233.875    1278.1489   -18512.024    3.1513037    241.43719 
     800    94.011396   -999.47034    73820.146   -17212.599    1271.1238   -18483.722    3.3349426    240.11019 
     850    94.869633   -716.63819    73761.713   -17199.583     1282.728   -18482.311    3.4264057    242.30217 
     900    93.826597   -493.53558    73669.174   -17226.789    1268.6251   -18495.414    3.5435067     239.6382 
     950    93.822333    -712.8477    73690.181   -17199.908    1268.5675   -18468.475    3.7712666    239.62731 
    1000    95.275382   -634.98559    73706.738   -17219.216    1288.2141    -18507.43     3.920236    243.33848 
    1050    95.637993   -1060.3912     73730.32   -17214.378    1293.1169   -18507.495    4.0500687     244.2646 
    1100    95.094694   -772.53735    73783.848   -17199.555     1285.771   -18485.326    4.1860182    242.87699 
    1150     97.65862   -873.28393    73836.266   -17183.415    1320.4378   -18503.853    4.2624702     249.4254 
    1200    94.894198   -1061.6443    73810.388   -17178.719    1283.0601   -18461.779    4.4728018    242.36491 
    1250    94.328047   -782.73437    73827.852   -17174.701    1275.4052   -18450.107    4.6410309    240.91893 
    1300    93.536414   -1033.5206    73795.522   -17199.432    1264.7016   -18464.134    4.8640834    238.89706 
    1350    94.809316   -885.14415    73869.899    -17230.98    1281.9124   -18512.892    5.0212573    242.14812 
    1400    94.118196   -928.03368     73878.27    -17209.85    1272.5678   -18482.418    5.2937373    240.38296 
    1450    92.644671   -769.47161    73923.205   -17251.016    1252.6444    -18503.66    5.5521071     236.6195 
    1500    93.706387   -732.12867     73943.79    -17255.72    1266.9998    -18522.72     5.498857    239.33118 
    1550    92.738766   -1034.2487    73996.107   -17264.355    1253.9166   -18518.271    5.6449195    236.85982 
    1600    91.412188   -1190.3467    73958.184   -17251.575      1235.98   -18487.555    5.6887481    233.47167 
    1650    92.384751   -871.54929    73869.716   -17250.677      1249.13   -18499.807    5.7467075    235.95565 
    1700    92.893883   -1351.4827    73819.476    -17262.86     1256.014   -18518.874    5.8546615      237.256 
    1750    90.168574   -761.29627     73752.25   -17252.448    1219.1652   -18471.613    5.9782976    230.29541 
    1800    92.469408    -1074.985    73771.422   -17227.707    1250.2746   -18477.981     6.163265    236.17187 
    1850    93.310312   -660.85404    73849.745   -17225.859    1261.6445   -18487.503     6.389079    238.31958 
    1900    93.978182   -1037.9824    73841.866   -17270.826    1270.6747   -18541.501    6.5724401    240.02536 
    1950    93.392398   -1135.9786    73842.818   -17269.323    1262.7544   -18532.078    6.8039025    238.52923 
    2000    94.773227   -788.96771    73858.956   -17293.877    1281.4245   -18575.302    6.9526482    242.05595 
    2050    94.749952   -815.33717    73895.859   -17270.506    1281.1098   -18551.616    7.1385867     241.9965 
    2100    90.294257   -1108.0729    73887.509   -17256.314    1220.8645   -18477.179      7.29557    230.61641 
    2150    93.559378   -888.07991    73831.527    -17227.04    1265.0121   -18492.052    7.5374898    238.95571 
    2200    94.202811    -836.9968    73916.463   -17231.964    1273.7119   -18505.676    7.6492051    240.59907 
    2250    94.032155   -1130.1048    73924.502   -17248.513    1271.4045   -18519.917    7.8624136    240.16321 
    2300    91.639043   -968.98725    73919.271   -17253.576    1239.0473   -18492.623    8.0092455    234.05107 
    2350    91.972257   -1158.4821     73967.32   -17271.322    1243.5527   -18514.874     8.043629    234.90211 
    2400    93.825804   -692.72559    73982.124   -17266.558    1268.6144   -18535.173    8.1602335    239.63617 
    2450    92.587844   -970.01116    73987.085   -17292.679     1251.876   -18544.556    8.3459765    236.47436 
    2500    91.397415   -662.01211    74006.052   -17290.871    1235.7803   -18526.652    8.5226915    233.43394 
    2550    92.839714    -1050.009    74069.728   -17261.745    1255.2815   -18517.026    8.7998033    237.11765 
    2600     94.30329   -732.91767    74055.464   -17263.206    1275.0705   -18538.277    8.9312697     240.8557 
    2650    93.030474   -830.43152    74064.889   -17254.153    1257.8608   -18512.013    9.0437172    237.60486 
    2700    92.873202   -683.35763    74008.413   -17274.102    1255.7343   -18529.837    9.1404348    237.20318 
    2750    91.901159   -996.00333    74009.105   -17273.577    1242.5914   -18516.169    9.3373039    234.72053 
    2800      90.2608   -665.63315    73982.924   -17260.077    1220.4122    -18480.49     9.540469    230.53096 
    2850    95.629183   -907.85811    73969.285   -17236.019    1292.9978   -18529.017    9.5269489     244.2421 
    2900    92.896166   -856.98973    73995.333   -17264.871    1256.0448   -18520.916    9.7243112    237.26183 
    2950    92.250431   -879.01981    73935.096   -17291.439    1247.3139   -18538.753     9.902675    235.61259 
    3000    88.225234   -678.33596    73980.545   -17324.424    1192.8894   -18517.313    10.031338    225.33202 
    3050    92.245219   -1189.5926    74028.778   -17295.623    1247.2434   -18542.866    10.111881    235.59928 
    3100    91.310599   -971.68966    74041.233   -17307.328    1234.6064   -18541.935      10.2841    233.21221 
    3150    92.243066   -915.67464    74064.499   -17275.117    1247.2143   -18522.331    10.455891    235.59378 
    3200    90.971467    -1020.137    74052.888   -17250.111    1230.0211   -18480.132    10.746176    232.34604 
    3250    91.056803   -744.47492    74054.112   -17251.615    1231.1749    -18482.79    10.822492      232.564 
    3300      91.3305   -747.03626    74008.672   -17229.212    1234.8755   -18464.088    10.926388    233.26303 
    3350     93.01186   -639.61988    74101.074   -17253.396    1257.6091   -18511.005    10.947859    237.55732 
    3400    94.353056   -1185.4752    74118.597   -17221.324    1275.7434   -18497.067    11.079289     240.9828 
    3450    93.167159   -1152.0891    74078.838   -17219.663    1259.7089   -18479.372     11.19566    237.95396 
    3500    90.513812   -898.94171    74105.345   -17233.669    1223.8331   -18457.502    11.297298    231.17717 
    3550    92.665013   -691.28737    74113.144   -17254.706    1252.9194   -18507.625    11.568968    236.67145 
    3600    89.836346   -1018.8037    74146.997   -17227.905    1214.6731   -18442.578    11.807054    229.44688 
    3650    93.332393   -1053.0103    74113.363   -17201.877     1261.943    -18463.82    11.959205    238.37598 
    3700    95.525855   -1175.3272    74067.863   -17149.993    1291.6007   -18441.593    12.166899     243.9782 
    3750    95.528751   -1051.1672    74018.201   -17184.036    1291.6399   -18475.676    12.495698    243.98559 
    3800    98.168328   -969.93115    74015.605   -17120.337    1327.3295   -18447.667    12.766794    250.72722 
    3850    98.554449   -840.70825    74041.974   -17105.208    1332.5502   -18437.758    12.994854    251.71339 
    3900    96.491665    -747.9198    74032.232   -17126.515    1304.6594   -18431.174    13.231534    246.44493 
    3950    95.312653   -1291.4262    73997.015   -17118.864     1288.718   -18407.582    13.431405    243.43367 
    4000    95.271437   -1163.9535    73957.753    -17101.91    1288.1608   -18390.071      13.8148     243.3284 
    4050    98.900833   -764.99426    73926.466    -17092.24    1337.2337   -18429.474    14.172876    252.59807 
    4100    96.032007   -1114.6257    73910.068   -17157.338    1298.4444   -18455.782    14.333672    245.27094 
    4150    94.128414   -974.85061    73881.559   -17166.066     1272.706   -18438.772    14.529394    240.40906 
    4200    94.634928    -711.2031    73832.877   -17161.059    1279.5545   -18440.613    15.013343    241.70272 
    4250    94.315509   -831.46461    73892.264   -17169.715    1275.2357   -18444.951     15.33777    240.88691 
    4300    93.936965   -538.79968    73951.039    -17194.75    1270.1174   -18464.867     15.69432    239.92009 
    4350    95.214087   -988.79336    73949.186    -17209.85    1287.3853   -18497.235    15.857012    243.18192 
    4400    97.383007   -886.90253    74039.216   -17234.624    1316.7112   -18551.335    15.997643    248.72146 
    4450    92.456227   -988.40916    74004.764   -17245.469    1250.0964   -18495.565    16.205674     236.1382 
    4500    94.870527   -758.16319    74009.426   -17230.806    1282.7401   -18513.546    16.171447    242.30445 
    4550    93.587905    -716.8435    74051.055   -17225.402    1265.3978     -18490.8    16.380435    239.02857 
    4600    92.101791   -870.05402    74107.434   -17205.562    1245.3041   -18450.866    16.593777    235.23295 
    4650    93.310997   -784.59204    74148.283    -17202.77    1261.6537   -18464.424    16.664156    238.32133 
    4700    95.517129    -790.8052    74175.342   -17191.119    1291.4827   -18482.602    16.639714    243.95591 
    4750    96.987249   -1024.5457    74162.644     -17192.6    1311.3602    -18503.96    16.557032    247.71068 
    4800    92.975618   -781.70809    74217.455   -17184.608    1257.1191   -18441.728    16.721261    237.46475 
    4850    94.610588   -994.15342     74188.67   -17203.679    1279.2254   -18482.904    16.901296    241.64056 
    4900    94.115094   -1062.6256    74193.325   -17217.395    1272.5259   -18489.921    17.016279    240.37504 
    4950    94.932627    -1106.113    74160.363   -17226.808    1283.5797   -18510.388    17.072868    242.46306 
    5000    94.906945   -1199.6231     74086.94   -17195.279    1283.2325   -18478.511    17.210901    242.39747 
    5050      96.1544   -1021.1805    74067.908   -17217.606    1300.0993   -18517.705    17.333507    245.58353 
    5100    93.288536   -987.93261    74072.002   -17205.328      1261.35   -18466.678    17.638546    238.26396 
    5150    93.108999   -1013.3852    74095.759   -17220.916    1258.9225   -18479.838    18.020023    237.80542 
    5200    96.445443   -1188.0785    74098.481   -17192.158    1304.0344   -18496.193    18.179395    246.32687 
    5250     94.41323   -999.79024    74016.085    -17215.25     1276.557   -18491.807    18.172718    241.13649 
    5300    94.992752    -1228.474    73988.823   -17220.223    1284.3927   -18504.616    18.439193    242.61662 
    5350    97.106784   -898.66708    74022.935   -17177.866    1312.9764   -18490.843    18.438121    248.01598 
    5400     96.06681   -737.52709    73991.145   -17197.524     1298.915   -18496.439    18.489094    245.35983 
    5450    96.695492   -852.76625    73982.914   -17218.686    1307.4153   -18526.102    18.563864    246.96551 
    5500    94.483463   -878.36618    74021.946   -17259.815    1277.5066   -18537.322    18.800433    241.31587 
    5550    97.206725   -812.81417    74034.202   -17248.087    1314.3277   -18562.415    19.044298    248.27123 
    5600    93.466723   -815.45001    74076.785   -17266.507    1263.7593   -18530.266    19.142811    238.71906 
    5650    91.510962   -540.74599    74106.005   -17240.009    1237.3155   -18477.325     19.30732    233.72394 
    5700    94.395948    -1048.121    74109.204    -17280.55    1276.3233   -18556.873    19.346427    241.09235 
    5750    95.488857   -1013.3016    74117.028   -17265.152    1291.1005   -18556.252     19.25596     243.8837 
    5800    95.517678   -1085.1467    74137.036   -17215.315    1291.4902   -18506.805    19.500847    243.95731 
    5850    97.312187   -944.25136    74149.371   -17185.129    1315.7536   -18500.882    19.503744    248.54059 
    5900    95.280634   -900.80698    74153.165   -17207.918    1288.2851   -18496.203    19.611593    243.35189 
    5950    92.642572    -1128.482     74092.24    -17224.26     1252.616   -18476.875    19.998616    236.61414 
    6000    94.479845   -1067.0988    74021.171   -17202.388    1277.4577   -18479.846     20.34776    241.30663 
    6050    91.908472   -1261.6462     73940.68   -17198.886    1242.6903   -18441.576    20.646162    234.73921 
    6100    94.322886   -1011.4531    73931.356   -17255.389    1275.3354   -18530.725    20.929192    240.90575 
    6150    93.693794   -1025.2948    73887.147   -17238.062    1266.8295   -18504.891    20.939106    239.29901 
    6200    98.057425   -984.86009    73807.375   -17224.182      1325.83   -18550.012    21.076503    250.44396 
    6250    94.926642   -1200.3997    73813.187   -17232.855    1283.4988   -18516.353    21.190251    242.44778 
    6300    94.489162   -996.01528    73805.079   -17230.525    1277.5837   -18508.109    21.085462    241.33043 
    6350    93.073271     -858.355    73812.777    -17208.52    1258.4395    -18466.96    21.084394    237.71417 
    6400    93.533293   -1331.8823    73842.426   -17220.477    1264.6594   -18485.136    21.113382    238.88909 
    6450    94.299317   -672.75854    73883.424   -17221.798    1275.0168   -18496.814    21.211353    240.84555 
    6500    95.326348   -1093.5202    73875.653   -17224.258    1288.9032   -18513.162    21.192374    243.46865 
    6550    96.281504   -495.72619    73910.108   -17212.433    1301.8178    -18514.25    21.498205    245.90817 
    6600    96.043544   -1100.2275    73933.993   -17223.484    1298.6004   -18522.084    21.805709     245.3004 
    6650    93.839679   -1231.1432    73885.068   -17253.284     1268.802   -18522.086    22.201451    239.67161 
    6700    96.594653   -881.08577    73862.243   -17223.201    1306.0519   -18529.253    22.484605    246.70796 
    6750    92.869165   -774.93365    73849.799    -17228.01    1255.6797    -18483.69    22.653639    237.19287 
    6800    95.944035   -812.09424    73903.009   -17209.665    1297.2549    -18506.92    22.598842    245.04625 
    6850    96.975011    -675.6742    73909.497   -17126.901    1311.1947   -18438.096    22.805895    247.67942 
    6900    95.993466   -1146.6072    73932.795   -17159.732    1297.9233   -18457.655    23.069235     245.1725 
    6950    96.572937   -1055.2005    73911.983   -17153.842    1305.7583     -18459.6    23.438102     246.6525 
    7000    95.694242    -906.5463    73877.829   -17177.647    1293.8775   -18471.524    23.495388    244.40827 
    7050     94.16595   -897.59027    73840.074   -17178.149    1273.2135   -18451.363    23.438104    240.50493 
    7100    95.546247   -1126.5739    73790.856   -17174.485    1291.8764   -18466.361    23.578947    244.03028 
    7150    97.551152   -1012.5821    73736.561   -17175.828    1318.9847   -18494.813    23.629144    249.15092 
    7200    95.478572   -952.28336    73697.704   -17180.517    1290.9614   -18471.478    23.762307    243.85743 
    7250    96.312995   -1039.0936    73737.549   -17189.219    1302.2436   -18491.463    24.024222    245.98859 
    7300    97.707378   -750.40868    73753.392   -17204.316     1321.097   -18525.413    24.295078    249.54992 
    7350     93.95897    -1175.169    73764.241   -17259.257    1270.4149   -18529.672    24.383614    239.97629 
    7400    93.530222   -766.94994    73771.471   -17246.278    1264.6179   -18510.896    24.259881    238.88124 
    7450    93.003512   -892.57075    73821.023   -17276.885    1257.4962   -18534.381    24.376959      237.536 
    7500    92.526864   -729.82939     73836.02   -17302.475    1251.0515   -18553.526    24.309077    236.31861 
    7550    90.371106   -851.61262    73885.084   -17292.676    1221.9036    -18514.58    24.465631    230.81269 
    7600    92.663518    -1114.734    73894.138   -17327.103    1252.8992   -18580.003    24.850431    236.66763 
    7650    91.847231   -1380.6834    73884.554   -17309.811    1241.8622   -18551.673    25.021388    234.58279 
    7700    91.139734    -1031.733    73864.567   -17296.545    1232.2962   -18528.841    25.366085    232.77581 
    7750     90.85432   -1195.6441    73784.717   -17293.215    1228.4371   -18521.652    25.657877    232.04684 
    7800    96.582219   -1063.9171    73727.307   -17244.722    1305.8838   -18550.606    25.776875    246.67621 
    7850    92.819708   -771.62579     73685.29   -17261.761     1255.011   -18516.772    25.818551    237.06655 
    7900    92.379319   -800.98367     73762.26   -17252.315    1249.0566   -18501.371    26.011977    235.94178 
    7950    92.158178   -851.00911    73828.919   -17272.562    1246.0665   -18518.628    26.101731    235.37697 
    8000    95.726312   -971.01533    73879.206   -17198.685    1294.3111   -18492.996    26.155683    244.49017 
    8050    95.122956   -924.81245    73906.434   -17188.426    1286.1531   -18474.579    26.367662    242.94917 
    8100    97.042333   -1019.4554     73851.67   -17176.462     1312.105   -18488.567    26.524611    247.85136 
    8150     96.05377   -703.07479    73868.594   -17175.792    1298.7386   -18474.531    26.754347    245.32652 
    8200    95.686614   -699.13146    73926.433   -17203.994    1293.7743   -18497.768     26.72324    244.38878 
    8250    92.681301   -1164.7032    73915.149   -17215.054    1253.1396   -18468.193    26.918068    236.71305 
    8300     98.35203   -864.94108    73903.542   -17187.143    1329.8133   -18516.956    26.859206     251.1964 
    8350    95.068055   -1041.5719    73836.277   -17214.349    1285.4108    -18499.76     27.14438    242.80895 
    8400    91.576922   -1019.9009    73845.911   -17217.867    1238.2074   -18456.074     27.57253    233.89241 
    8450    94.119434   -654.64684    73841.474   -17230.629    1272.5846   -18503.213    27.727498    240.38612 
    8500    93.987916   -1148.1689    73861.988   -17260.421    1270.8063   -18531.227    27.893466    240.05022 
    8550    89.981708   -766.75953    73854.612   -17272.503    1216.6386   -18489.142    27.904966    229.81815 
    8600    91.830701   -806.00045     73884.08   -17281.502    1241.6387   -18523.141    27.980172    234.54057 
    8650    94.196609   -831.68093    73911.581   -17260.289    1273.6281   -18533.917    28.147943    240.58323 
    8700    92.978104    -915.4026    73924.054    -17292.91    1257.1527   -18550.063    28.274456     237.4711 
    8750    93.928404   -951.10447    73932.013   -17278.413    1270.0017   -18548.415    28.384335    239.89822 
    8800    94.750512   -1148.6787    73934.144   -17270.264    1281.1174   -18551.381    28.771558    241.99793 
    8850    91.062719   -964.16986    73878.427   -17300.133    1231.2549   -18531.388    28.752793    232.57911 
    8900    94.029477   -984.05182    73854.766   -17254.094    1271.3683   -18525.462    29.007404    240.15637 
    8950    94.947396   -949.94362    73881.298   -17236.761    1283.7794   -18520.541    28.934209    242.50078 
    9000     94.74254   -881.58992    73851.972   -17249.287    1281.0096   -18530.296    29.028187    241.97757 
    9050    95.577291   -665.64033    73862.053   -17247.871    1292.2962   -18540.167    29.272435    244.10957 
    9100    90.834367   -469.33058    73959.141   -17297.671    1228.1673   -18525.839    29.243351    231.99588 
    9150    94.550264   -539.35208    74030.589   -17291.388    1278.4098   -18569.798    29.259248    241.48649 
    9200    94.763446    -295.3275    74108.807     -17275.4    1281.2922   -18556.692    29.317101    242.03096 
    9250    94.252776    -944.1126    74160.954    -17285.04    1274.3875   -18559.428    29.313165    240.72669 
    9300    92.713482   -896.90704    74191.486   -17263.454    1253.5748   -18517.029    29.291624    236.79525 
    9350    94.445042   -751.95095    74179.049   -17259.451    1276.9871   -18536.438    29.645078    241.21774 
    9400    90.648618   -1092.1091    74152.792   -17274.062    1225.6558   -18499.718    29.812434    231.52147 
    9450    94.537933   -1106.1402    74155.729    -17255.16    1278.2431   -18533.403    30.117832    241.45499 
    9500    95.353598   -807.40936     74134.16   -17245.163    1289.2717   -18534.435    30.330042    243.53824 
    9550    94.301437   -849.45421    74142.778   -17262.118    1275.0454   -18537.163    30.412043    240.85097 
    9600    91.996493   -565.55991    74113.023   -17298.123    1243.8804   -18542.004    30.579869    234.96402 
    9650    93.289107   -631.80316    74127.235   -17303.553    1261.3578   -18564.911    30.675059    238.26542 
    9700    92.380141   -1119.3665    74168.545   -17300.051    1249.0677   -18549.119    30.847458    235.94387 
    9750    92.500144   -623.59273    74180.146   -17309.264    1250.6902   -18559.954    30.984438    236.25037 
    9800    92.486803   -1214.5838    74158.868   -17288.734    1250.5098   -18539.244    31.216339    236.21629 
    9850    93.504906   -945.17654    74019.424   -17288.262    1264.2756   -18552.538    31.425235    238.81659 
    9900     92.23312   -678.08275    73967.762   -17285.226    1247.0798   -18532.306    31.636952    235.56837 
    9950    88.255841   -884.18719    73994.225   -17293.089    1193.3032   -18486.392    31.890364    225.41019 
   10000    93.636353   -643.94142    73971.543    -17278.04    1266.0529   -18544.093    32.105081    239.15231 
   10050    93.194764   -1082.7056    73995.966   -17293.246    1260.0822   -18553.328    32.150077    238.02446 
   10100     94.22069   -617.72816    73968.199   -17303.278    1273.9537   -18577.231      32.2855    240.64474 
   10150    92.661414   -966.83408    74072.332   -17289.563    1252.8708   -18542.434    32.656379    236.66226 
   10200    94.121877   -919.80389    74088.027   -17291.067    1272.6176   -18563.685    32.959269    240.39236 
   10250    94.536254   -581.74878    74129.784    -17255.92    1278.2204    -18534.14    33.278039     241.4507 
   10300    95.566203    -717.3901    74155.509   -17213.273    1292.1463    -18505.42    33.359392    244.08125 
   10350    94.186776   -337.43772     74244.69     -17243.5    1273.4951   -18516.995    33.624949    240.55812 
   10400    95.878332    -829.3846    74371.217   -17238.268    1296.3666   -18534.635    33.604535    244.87844 
   10450     94.75615   -893.42315    74421.712    -17228.56    1281.1936   -18509.754    33.659084    242.01233 
   10500    94.410689   -984.56442    74464.413   -17208.799    1276.5226   -18485.322    33.814794       241.13 
   10550    93.000479   -928.70294    74478.742   -17225.162    1257.4552   -18482.617    34.044493    237.52825 
   10600    95.861139    -1041.949    74405.715   -17231.877    1296.1341   -18528.011    34.222475    244.83453 
   10650    93.375346   -1226.3467    74399.331   -17244.119    1262.5238   -18506.643    34.569637    238.48568 
   10700    95.303113   -922.37319    74418.544   -17217.446     1288.589   -18506.035    34.467177     243.4093 
   10750    96.623987   -1016.0744    74387.429   -17171.355    1306.4485   -18477.804    34.527475    246.78289 
   10800    93.301915   -906.17913     74360.01   -17228.781    1261.5309   -18490.312    34.896704    238.29813 
   10850    95.847664   -865.63211    74342.677   -17236.042    1295.9519   -18531.993    35.199818    244.80012 
   10900    92.084489   -963.89664    74353.107   -17249.389    1245.0702    -18494.46    35.028195    235.18876 
   10950    96.090101   -855.83022    74406.767   -17250.034    1299.2299   -18549.264    35.124637    245.41931 
   11000    93.563965    -1059.917    74370.024   -17256.002    1265.0741   -18521.076    35.072032    238.96742 
   11050    93.394203   -808.90002    74332.811   -17264.388    1262.7788   -18527.167       35.262    238.53384 
   11100     92.08176   -1009.5258     74279.34   -17297.869    1245.0333   -18542.902    35.452615    235.18179 
   11150    92.187807   -961.64692    74249.806   -17336.384    1246.4671   -18582.851    35.515629    235.45264 
   11200     92.09883   -851.27743    74163.179   -17335.303    1245.2641   -18580.567    35.591756    235.22539 
   11250    95.084091   -620.65494    74131.511   -17292.552    1285.6277   -18578.179    35.982826    242.84991 
   11300    93.527727   -815.96514    74243.525   -17315.653    1264.5841   -18580.237    36.181596    238.87487 
   11350    93.144007   -853.69837    74247.585   -17304.544    1259.3959    -18563.94    36.405369    237.89483 
   11400    93.127768    -1151.043     74258.66   -17317.157    1259.1763   -18576.333    36.849546    237.85335 
   11450     93.54692   -961.72235    74234.425   -17318.218    1264.8436   -18583.062    37.135469    238.92389 
   11500    94.563682   -845.56569    74269.447   -17319.654    1278.5912   -18598.246     37.30076    241.52076 
   11550     91.40686   -719.52328    74261.753   -17300.468     1235.908   -18536.376     37.42214    233.45806 
   11600    94.433836   -789.40372    74267.514   -17277.852    1276.8356   -18554.688    37.448471    241.18912 
   11650    95.060528   -796.17534    74326.054   -17249.034    1285.3091   -18534.343    37.787371    242.78973 
   11700    97.031284    -660.0482    74314.798   -17248.332    1311.9556   -18560.288    37.883341    247.82314 
   11750    95.979933   -1069.8463    74290.358   -17257.158    1297.7403   -18554.898    38.198936    245.13794 
   11800    95.653463   -981.07811    74287.656   -17262.531    1293.3261   -18555.857     38.18389    244.30412 
   11850    91.760122     -746.267    74274.354    -17267.25    1240.6844   -18507.935    38.195117    234.36031 
   11900    92.094566    -1155.876    74234.622   -17296.976    1245.2064   -18542.183    38.441595     235.2145 
   11950    95.488892   -1084.3219    74216.992   -17229.596     1291.101   -18520.697    38.595935    243.88379 
   12000    93.692601   -714.72052    74216.472    -17278.87    1266.8134   -18545.683    38.884761    239.29597 
   12050    94.612676   -803.34671    74201.553   -17263.599    1279.2537   -18542.853      38.8589    241.64589 
   12100    92.844053   -1279.7111    74150.553   -17252.292    1255.3402   -18507.632    38.969597    237.12873 
   12150    91.971604     -1137.43     74070.28   -17269.606    1243.5439   -18513.149    39.114695    234.90045 
   12200    95.192341   -634.30081    74133.193   -17276.979    1287.0913    -18564.07     39.35913    243.12639 
   12250    94.033403   -1115.2891    74191.877   -17267.845    1271.4214   -18539.266     39.48967    240.16639 
   12300    93.006999   -753.44186    74141.029   -17271.453    1257.5434   -18528.996    39.737239     237.5449 
   12350    90.136171   -881.69172    74162.957    -17328.95    1218.7271   -18547.677    39.894987    230.21265 
   12400    90.884067   -1221.2424    74123.218   -17323.285    1228.8393   -18552.125    39.605805    232.12282 
   12450    92.761929   -1035.8462    74102.078   -17322.751    1254.2298   -18576.981    39.607328    236.91898 
   12500    90.052597   -1093.4547    74075.856   -17326.247    1217.5971   -18543.844    39.850918     229.9992 
   12550    90.522778   -823.08039    74077.674   -17353.059    1223.9544   -18577.014    40.336278    231.20007 
   12600    93.560262   -1087.0802     74061.72   -17348.365     1265.024   -18613.389    40.320251    238.95797 
   12650    91.561623   -1007.3916    74025.826    -17333.22    1238.0005   -18571.221    40.572999    233.85334 
   12700     91.44298   -714.72763     73995.58   -17370.217    1236.3964   -18606.613     40.87802    233.55031 
   12750    89.265231   -1263.5992    73974.104   -17386.659    1206.9511    -18593.61    41.050657    227.98823 
   12800    90.156046   -1100.1928    73985.273   -17381.448    1218.9958   -18600.444    41.011292    230.26341 
   12850    91.129866   -901.29059    73987.076   -17388.431    1232.1628   -18620.594    41.486259     232.7506 
   12900    92.150818   -362.61117    74070.705    -17371.42     1245.967   -18617.387    41.774667    235.35817 
   12950    92.096543   -943.06338      74132.3   -17350.382    1245.2332   -18595.615     41.76282    235.21955 
   13000    94.085011   -845.88719    74151.185   -17333.106    1272.1191   -18605.226    41.601302     240.2982 
   13050    93.209438   -841.08997    74258.535   -17306.007    1260.2806   -18566.287    41.736423    238.06194 
   13100    94.543332   -749.69555    74347.761   -17332.122    1278.3161   -18610.438    41.769793    241.46878 
   13150     92.05352   -893.65623    74438.471    -17332.85    1244.6515   -18577.501    41.769918    235.10967 
   13200      93.3939   -808.66202    74454.693   -17328.028    1262.7747   -18590.803    41.842514    238.53307 
   13250    92.833679   -921.58261    74457.801   -17315.943    1255.1999   -18571.143    42.240117    237.10223 
   13300    94.497898   -1201.7046      74405.2    -17338.83    1277.7018   -18616.532     42.72245    241.35274 
   13350       92.698   -883.40372    74319.867   -17367.472    1253.3654   -18620.838     42.61991     236.7557 
   13400    91.582399   -732.00795    74318.071   -17384.077    1238.2814   -18622.358    42.711287     233.9064 
   13450    93.589309   -1144.7032    74398.415   -17342.236    1265.4168   -18607.653     42.96151    239.03215 
   13500    93.186021   -720.63346    74405.718   -17335.334    1259.9639   -18595.298      42.9753    238.00213 
   13550    93.737182   -880.99904    74439.158   -17338.765    1267.4162   -18606.182    43.041582    239.40983 
   13600     94.29141   -962.99366    74482.742   -17323.118    1274.9098   -18598.028    43.087758    240.82536 
   13650    91.446372   -910.62364    74483.462   -17353.637    1236.4422   -18590.079    43.084302    233.55898 
   13700    95.845867   -1066.2162    74564.586   -17354.911    1295.9276   -18650.839    43.228182    244.79552 
   13750    96.487966   -960.91433    74571.977   -17347.069    1304.6094   -18651.678    43.505632    246.43548 
   13800    93.470861   -941.94377    74616.892   -17348.509    1263.8153   -18612.324    43.605696    238.72963 
   13850    92.916276    -1307.201    74623.001    -17304.55    1256.3167   -18560.866    43.737144    237.31319 
   13900    94.816273   -856.51876    74609.954   -17314.483    1282.0065    -18596.49    43.824654    242.16589 
   13950     94.36275   -1110.0329     74622.19   -17300.104    1275.8744   -18575.979    43.973429    241.00756 
   14000    94.914144    -832.7374     74599.69   -17301.253    1283.3298   -18584.583    43.867813    242.41586 
   14050    93.871613   -860.86219    74617.348   -17284.235    1269.2338   -18553.469    43.896428    239.75317 
   14100    92.136642   -1065.4382    74613.284   -17310.889    1245.7753   -18556.664    43.933877    235.32196 
   14150    94.118389   -992.03407    74601.713   -17299.224    1272.5704   -18571.794    43.972145    240.38345 
   14200    97.061141   -805.67795     74606.25   -17325.686    1312.3593   -18638.046    44.017122     247.8994 
   14250    93.124275   -900.07351    74613.134   -17330.403    1259.1291   -18589.532    43.849051    237.84443 
   14300     96.00375   -633.12924    74604.994   -17298.085    1298.0623   -18596.147    43.816751    245.19877 
   14350    93.533648   -801.41501    74639.233   -17291.764    1264.6642   -18556.428    44.295953    238.88999 
   14400     94.11674   -1133.7805    74615.412   -17318.503    1272.5482   -18591.051    44.708447    240.37924 
   14450    94.785991   -547.02955    74583.315   -17313.177    1281.5971   -18594.774    44.587426    242.08854 
   14500     91.35347   -713.91113    74641.256   -17318.765    1235.1861   -18553.952    44.666533     233.3217 
   14550    93.133775   -736.70914    74676.619   -17341.003    1259.2575    -18600.26    44.688618    237.86869 
   14600    92.175974   -1046.2036    74728.354   -17353.508    1246.3071   -18599.816    44.590625    235.42242 
   14650    91.180311   -1227.0366     74748.58   -17335.546    1232.8448   -18568.391    44.532486    232.87944 
   14700    92.037201   -1253.2456     74708.74   -17338.422    1244.4308   -18582.853    44.705932    235.06799 
   14750    92.348112   -1183.8753    74713.375   -17324.183    1248.6346   -18572.817     45.02106    235.86207 
   14800    95.961752    -890.6828    74669.899   -17330.057    1297.4945   -18627.552    45.275226     245.0915 
   14850    92.721254   -919.74947    74693.698   -17326.427    1253.6798   -18580.107    45.363325    236.81509 
   14900    94.172262   -508.77613    74728.951   -17326.865    1273.2989   -18600.164    45.337828    240.52105 
   14950    91.914226   -830.32014    74798.523   -17349.266    1242.7681   -18592.034    45.590146     234.7539 
   15000    93.563093   -803.11582    74790.286   -17332.312    1265.0623   -18597.374    45.488478     238.9652 
   15050    95.124247   -591.32115    74795.834   -17307.466    1286.1706   -18593.637     45.63909    242.95247 
   15100     93.58337     -869.438    74841.511   -17322.695    1265.3365   -18588.032     45.75157    239.01699 
   15150    94.512673   -1003.0763    74820.962   -17318.251    1277.9015   -18596.153    46.232436    241.39048 
   15200    95.780204   -772.75787    74851.828   -17292.721    1295.0398   -18587.761    46.385156    244.62782 
   15250    95.870673   -839.58055    74880.437   -17318.144     1296.263   -18614.407    46.327936    244.85888 
   15300    92.214039   -849.13704     74906.57   -17350.983    1246.8218   -18597.804    46.764935    235.51964 
   15350    92.154876   -1004.6666     74918.69   -17367.272    1246.0219   -18613.293    46.845925    235.36853 
   15400    91.946594   -944.64735    74928.001   -17366.306    1243.2057   -18609.512    47.029602    234.83657 
   15450    94.363841   -1244.1266    74924.928   -17334.213    1275.8892   -18610.102    47.263193    241.01035 
   15500    96.120452   -1003.7368    74910.432   -17350.239    1299.6402   -18649.879    47.525664    245.49683 
   15550     92.96097   -1000.9668    74933.295   -17390.083     1256.921   -18647.004    47.769729    237.42734 
   15600    95.725562   -910.30634    74884.618   -17378.387     1294.301   -18672.688      47.7926    244.48826 
   15650    92.971874   -1096.3167    74856.254   -17357.199    1257.0685   -18614.268    48.070063    237.45519 
   15700    90.942711   -745.87639    74865.314   -17335.876    1229.6322   -18565.508     48.29366     232.2726 
   15750    93.354733   -996.94852    74856.493   -17325.839    1262.2451   -18588.084     48.52576    238.43303 
   15800    93.512604    -632.6753    74869.071   -17336.967    1264.3797   -18601.347     48.43567    238.83625 
   15850    94.361024   -1099.2893    74825.037   -17333.054    1275.8511   -18608.905    48.380409    241.00316 
   15900     93.95629   -979.31316    74769.292   -17313.007    1270.3787   -18583.386    48.545826    239.96944 
   15950    96.775577   -686.32582    74762.054   -17325.988    1308.4982   -18634.486    48.677762    247.17006 
   16000    95.201123   -649.48291    74776.734   -17354.492      1287.21   -18641.702    48.915266    243.14881 
   16050    94.872223   -759.77684    74794.225   -17363.292     1282.763   -18646.055    48.957624    242.30879 
   16100    95.629799   -659.27827    74832.457   -17343.349    1293.0061   -18636.355    49.254435    244.24367 
   16150    96.156844   -814.63744    74822.816    -17344.15    1300.1323   -18644.282    49.333812    245.58978 
   16200    92.042216     -1028.88    74794.298   -17341.635    1244.4986   -18586.134    49.584584    235.08079 
   16250    94.528769   -854.17469    74722.734   -17323.433    1278.1192   -18601.552    49.655809    241.43159 
   16300    94.589944     -910.614    74711.469   -17332.507    1278.9463   -18611.453    49.553944    241.58783 
   16350    92.155345   -948.88051    74686.042   -17328.947    1246.0282   -18574.975    49.666129    235.36973 
   16400    91.200102   -1329.8488    74699.943   -17351.711    1233.1124   -18584.824    49.939517    232.92999 
   16450    90.713462    -1091.354    74692.565   -17319.156    1226.5326   -18545.688    50.015484    231.68709 
   16500    93.429486   -826.76056    74693.642   -17328.014    1263.2558    -18591.27    50.221081    238.62396 
   16550    91.454197   -1037.8576    74691.302   -17321.786     1236.548   -18558.334    50.463658    233.57896 
   16600    96.063574   -1297.0369    74625.359   -17337.659    1298.8712    -18636.53    50.608919    245.35156 
   16650    95.984843      -1304.2    74557.081   -17332.797    1297.8067   -18630.604    50.670459    245.15048 
   16700    91.620865   -1043.5723    74546.136   -17350.762    1238.8015   -18589.564    50.623497    234.00464 
   16750    92.861229   -681.05874    74588.304   -17344.496    1255.5724   -18600.068    50.843347     237.1726 
   16800     94.09264   -907.78789     74599.09   -17343.644    1272.2223   -18615.866    51.278014    240.31769 
   16850    92.922523   -1194.9163    74577.753    -17343.13    1256.4012   -18599.532    51.476269    237.32915 
   16900    93.001175   -880.02501    74553.297   -17350.314    1257.4646   -18607.778    51.601142    237.53003 
   16950    92.075921   -818.44534    74465.075   -17367.802    1244.9543   -18612.757    51.790202    235.16688 
   17000    92.608815   -700.79612    74512.274   -17360.985    1252.1596   -18613.144    51.836388    236.52792 
   17050    93.074514   -939.69381    74477.839   -17377.139    1258.4563   -18635.595    51.785771    237.71734 
   17100      91.9844   -912.31351    74434.771   -17400.949    1243.7169   -18644.666    52.097963    234.93313 
   17150    91.046334   -795.46098    74476.748   -17382.994    1231.0333   -18614.027    52.143873    232.53726 
   17200    91.609371   -961.90378    74476.404   -17338.611    1238.6461   -18577.257    51.947757    233.97529 
   17250    93.067069   -1250.2926    74469.351   -17359.554    1258.3556    -18617.91    52.212263    237.69833 
   17300    91.563803   -959.85223    74432.733   -17362.474      1238.03   -18600.504     52.39269     233.8589 
   17350    90.746383   -609.30157    74472.657   -17378.237    1226.9777   -18605.214    52.574799    231.77117 
   17400    90.494863   -1006.7117    74518.685   -17398.275    1223.5769   -18621.852    52.788189    231.12877 
   17450    90.976548   -673.98941    74498.962   -17368.301    1230.0898    -18598.39    52.629594    232.35902 
   17500    92.795272   -1080.7549     74471.16   -17369.218    1254.6806   -18623.899    52.713249    237.00414 
   17550    94.958269   -1149.0546    74476.226   -17362.294    1283.9264   -18646.221    52.807235    242.52855 
   17600    93.373415   -616.86007    74443.452   -17366.924    1262.4977   -18629.421    52.654134    238.48075 
   17650    93.754065   -1055.3112    74438.016   -17297.555    1267.6444     -18565.2    52.607199    239.45295 
   17700    90.844884   -745.57014    74460.931   -17336.564    1228.3095   -18564.873    52.650347    232.02274 
   17750    93.071234   -1035.2866    74410.676   -17342.375    1258.4119   -18600.787    52.755158    237.70896 
   17800    93.080368   -1123.0478    74405.395   -17359.952    1258.5354   -18618.488    53.001053    237.73229 
   17850    93.907341   -1128.2658    74366.914    -17337.62    1269.7169   -18607.337    53.267823    239.84442 
   17900    93.453382   -881.13079    74385.982   -17312.366    1263.5789   -18575.945    53.311439    238.68499 
   17950    92.707417   -890.76094     74406.88   -17363.823    1253.4928   -18617.316    53.360486    236.77975 
   18000    94.984113   -946.37621    74417.576   -17344.984    1284.2759    -18629.26    53.548575    242.59456 
   18050    91.214829   -1008.8196     74466.72   -17330.107    1233.3115   -18563.418    53.646599     232.9676 
   18100    93.170865   -1036.9227    74486.792    -17315.95     1259.759   -18575.709    54.131818    237.96343 
   18150      93.2726   -843.48213    74482.503   -17297.002    1261.1346   -18558.137    54.192046    238.22326 
   18200    94.565748   -1163.7158    74424.336   -17307.209    1278.6192   -18585.829    54.495032    241.52603 
   18250    95.789856   -1267.0226    74424.151   -17322.154    1295.1703   -18617.324    54.668066    244.65247 
   18300    94.221426   -966.74249    74414.899   -17295.768    1273.9636   -18569.732    54.843345    240.64662 
   18350    92.256381   -1089.4701    74407.844   -17332.855    1247.3943   -18580.249    55.088701    235.62778 
   18400    94.313753   -1450.4065    74352.872     -17298.7     1275.212   -18573.912    55.366154    240.88242 
   18450    94.285482   -1012.6997    74250.308   -17260.958    1274.8297   -18535.787    55.148972    240.81022 
   18500    92.240634   -987.02106    74224.649   -17261.019    1247.1814     -18508.2    55.591807    235.58757 
   18550    92.800245   -819.51983    74226.799    -17266.97    1254.7479   -18521.718    55.270253    237.01684 
   18600    93.923445   -1172.3171    74200.714   -17272.732    1269.9346   -18542.666    55.305578    239.88556 
   18650    92.550911   -1004.6508    74206.111   -17317.502    1251.3767   -18568.879    55.321266    236.38003 
   18700    90.605694   -1101.6438    74202.112   -17292.978    1225.0755   -18518.054    55.645899    231.41184 
   18750      95.4195    -614.3754    74178.517   -17277.322    1290.1627   -18567.485    55.845963    243.70656 
   18800    93.853274   -1036.5247    74198.265   -17275.639    1268.9858   -18544.625    55.979353    239.70633 
   18850     94.76999   -901.81128    74224.291   -17270.564    1281.3807   -18551.945    56.143387    242.04768 
   18900    93.489056   -1280.8482    74145.225   -17292.106    1264.0613   -18556.168    56.508034     238.7761 
   18950    94.410331   -1342.5191    74142.034    -17309.73    1276.5178   -18586.248    57.219426    241.12909 
   19000    90.917915   -1066.7322    74160.852   -17327.726     1229.297   -18557.023    57.496582    232.20927 
   19050    92.997321   -1105.1972    74181.523   -17342.559    1257.4125   -18599.972    57.705838    237.52018 
   19100    92.782059    -1381.345    74172.355   -17308.858     1254.502    -18563.36    57.745552    236.97039 
   19150    92.672322   -929.49564    74175.318   -17304.084    1253.0182   -18557.102    57.450569    236.69012 
   19200    92.047571   -902.82563    74170.229   -17294.553     1244.571   -18539.124    57.196232    235.09447 
   19250    93.609331   -993.82642    74158.652   -17280.049    1265.6875   -18545.737     56.86041    239.08329 
   19300    96.717957   -827.94867    74189.369   -17267.928    1307.7191   -18575.647    56.955762    247.02289 
   19350     94.35942   -639.55331    74252.124   -17291.807    1275.8294   -18567.636    57.075767    240.99906 
   19400      92.4771   -1093.3748    74284.602   -17279.343    1250.3787   -18529.722     57.26755    236.19151 
   19450    93.063752    -886.4704    74240.533   -17274.332    1258.3107   -18532.643    57.087374    237.68985 
   19500    95.290844   -852.44033    74192.787   -17258.988    1288.4232   -18547.411    57.126108    243.37797 
   19550    94.599194   -897.36764    74213.587   -17240.058    1279.0714   -18519.129    57.303693    241.61145 
   19600    90.818816   -1028.7418    74209.927   -17337.231    1227.9571   -18565.188    57.724858    231.95616 
   19650    91.343499   -1232.4471    74179.602   -17301.253    1235.0513   -18536.304    58.275403    233.29623 
   19700    92.976211   -826.71317    74155.286   -17283.114    1257.1271   -18540.241    58.544983    237.46627 
   19750    91.402263   -837.58679    74224.921   -17275.989    1235.8458   -18511.835    58.836419    233.44632 
   19800    96.566076   -943.55922    74289.782   -17300.088    1305.6655   -18605.753    59.163463    246.63498 
   19850    94.289094   -1068.9451    74344.117   -17297.331    1274.8785    -18572.21    59.084709    240.81944 
   19900    91.015187   -1405.4443    74351.552   -17325.368    1230.6122    -18555.98    59.109642    232.45771 
   19950    92.340863   -1133.4545    74341.605   -17295.601    1248.5366   -18544.137    59.064039    235.84356 
   20000    93.405753   -927.75567    74306.061   -17307.677    1262.9349   -18570.612     59.03617    238.56334 
   20050    89.627484   -1048.8174    74272.615   -17317.588    1211.8491   -18529.437    58.929292    228.91344 
   20100    91.851575   -1211.8542    74224.844   -17338.912    1241.9209   -18580.833    58.645174    234.59389 
   20150    91.535178   -980.12124    74186.427   -17332.332     1237.643   -18569.975    58.437879    233.78579 
   20200    95.078922   -1135.6612    74167.452   -17331.312    1285.5578   -18616.869    58.831401    242.83671 
   20250    92.796564   -981.88976    74098.629   -17328.824    1254.6981   -18583.522    59.024788    237.00744 
   20300    92.886264   -586.43933    74142.576   -17329.864    1255.9109   -18585.775    59.221627    237.23654 
   20350    90.916423   -852.43356    74232.929   -17324.253    1229.2768    -18553.53    59.395319    232.20546 
   20400    92.022623   -885.59731    74310.744   -17297.205    1244.2337   -18541.438    59.669058    235.03075 
   20450    96.044224   -718.34562    74292.806   -17273.653    1298.6096   -18572.263    59.807536    245.30214 
   20500    91.421176   -793.23778    74363.723   -17269.005    1236.1015   -18505.107    60.098607    233.49462 
   20550    94.283206   -964.60644    74375.673   -17281.456    1274.7989   -18556.255    60.036566     240.8044 
   20600    94.598795   -878.23671    74354.366   -17258.191     1279.066   -18537.257    60.005289    241.61043 
   20650    92.618578   -942.86283    74354.888    -17239.93    1252.2916   -18492.221    59.885476    236.55285 
   20700     91.94195   -946.30767    74366.769   -17290.329    1243.1429   -18533.472    60.068105    234.82471 
   20750    91.007079   -1226.4499    74313.388   -17304.013    1230.5026   -18534.516     60.18425      232.437 
   20800    91.084975   -1000.1715    74236.037   -17313.804    1231.5558    -18545.36    60.057583    232.63595 
   20850    93.211544   -732.53337    74271.624   -17309.527     1260.309   -18569.836     60.01934    238.06732 
   20900    92.477799   -1151.8916    74259.996   -17284.636    1250.3881   -18535.024    60.320566     236.1933 
   20950    90.720877   -550.59279    74240.215    -17307.67    1226.6328   -18534.303    60.377965    231.70602 
   21000     95.68153   -778.77499    74240.505   -17275.366    1293.7056   -18569.072    60.413734     244.3758 
   21050    94.195036   -842.40121    74208.985   -17296.222    1273.6068   -18569.829    60.538336    240.57921 
   21100     91.69815   -819.59731    74182.501   -17287.815    1239.8465   -18527.661    60.574426    234.20203 
   21150    96.851067   -741.11833    74219.439   -17264.712    1309.5189   -18574.231    60.817786    247.36286 
   21200    95.451017   -1069.0059    74193.303   -17235.774    1290.5889   -18526.363    60.960383    243.78706 
   21250     97.66933   -1103.1163    74136.814   -17194.613    1320.5825   -18515.196    61.473663    249.45275 
   21300     97.00414   -955.64018    74072.247   -17183.193    1311.5886   -18494.781    61.648867    247.75382 
   21350    95.256024   -984.85038    74077.924   -17226.667    1287.9524   -18514.619    61.920722    243.28903 
   21400    92.233486   -1163.4868    74048.536   -17229.598    1247.0848   -18476.683    62.192078    235.56931 
   21450    94.787367   -995.06793    74008.716   -17186.127    1281.6157   -18467.743    61.977633    242.09206 
   21500    96.779063   -1330.1848    74042.836   -17174.183    1308.5453   -18482.728    62.092695    247.17896 
   21550    95.697838   -1235.0127    74025.018   -17150.089    1293.9261   -18444.015    62.140855    244.41745 
   21600     97.38976   -589.87994    74024.257   -17113.278    1316.8025   -18430.081    61.859758    248.73871 
   21650    93.579682    -1056.747    74011.181   -17141.253    1265.2866   -18406.539    61.849165    239.00757 
   21700    92.849556   -936.80865    73917.528   -17143.519    1255.4146   -18398.934    61.793249    237.14279 
   21750    99.257423    -618.9632    73896.834   -17136.548    1342.0551   -18478.603    61.717803    253.50882 
   21800    96.056497   -1046.7453    73910.185   -17169.373    1298.7755   -18468.148    61.736654    245.33349 
   21850    92.484605   -968.20895    73903.071   -17180.142    1250.4801   -18430.622    62.181759    236.21068 
   21900    96.986432   -848.52812     73936.25   -17129.991    1311.3491    -18441.34    62.586478    247.70859 
   21950    94.570544   -770.38177    73956.129   -17150.018     1278.684   -18428.702    62.781186    241.53828 
   22000    95.751718   -1141.4245    73966.805   -17151.958    1294.6546   -18446.613    63.203941    244.55506 
   22050    97.741197    -798.7335    73953.963   -17127.295    1321.5543   -18448.849    63.562923     249.6363 
   22100    95.219759   -473.01127    73997.463   -17113.946     1287.462   -18401.408     63.51043    243.19641 
   22150    98.066215   -1142.2725    74020.171   -17112.973    1325.9488   -18438.922     63.17734    250.46641 
   22200    97.606072   -1116.4855    73972.993    -17147.69    1319.7273   -18467.418    63.118037    249.29118 
   22250    96.197195   -521.81204    73891.373   -17207.477    1300.6779   -18508.155    63.316356    245.69283 
   22300    96.032791   -893.02667    73844.581   -17177.683     1298.455   -18476.138    63.687217    245.27294 
   22350    92.348548   -891.31775    73801.972   -17185.597    1248.6405   -18434.238    63.615976    235.86318 
   22400    93.753432   -948.80569    73830.455   -17194.137    1267.6359   -18461.773    63.789651    239.45133 
   22450    94.547348   -1225.7724    73881.678   -17174.162    1278.3704   -18452.532    63.884663    241.47904 
   22500    95.044078   -866.80195    73859.993   -17181.277    1285.0867   -18466.363    64.193019    242.74771 
   22550    91.764122   -1128.1696    73817.515   -17210.459    1240.7385   -18451.198    65.070679    234.37053 
   22600    92.036942   -1041.1594    73766.232   -17198.534    1244.4273   -18442.962    65.438015    235.06732 
   22650    94.705552   -1606.8694     73772.01   -17163.881    1280.5095   -18444.391    65.696309     241.8831 
   22700    92.694392   -989.37391    73768.291    -17160.23    1253.3166   -18413.546    66.041846    236.74649 
   22750    92.357134    -1190.241     73744.11   -17190.678    1248.7566   -18439.434    66.037372    235.88511 
   22800     91.38333   -1208.9947    73711.202   -17205.887    1235.5898   -18441.477    66.119918    233.39796 
   22850    92.202369   -1071.2846     73668.44   -17200.822     1246.664   -18447.486    66.521529    235.48983 
   22900    95.938878   -770.14248     73661.18   -17164.262    1297.1852   -18461.447    66.925967    245.03308 
   22950    99.024616   -1174.2365    73664.107   -17103.449    1338.9073   -18442.357    67.173608    252.91422 
   23000    95.084192   -990.30981    73663.401   -17112.432     1285.629   -18398.061    67.364459    242.85017 
   23050    94.304453   -1102.5674     73611.43    -17111.93    1275.0862   -18387.016    67.684023    240.85867 
   23100    93.767256   -1019.2491     73585.81   -17131.794    1267.8228   -18399.617    67.954972    239.48664 
   23150    94.449329   -828.83968    73604.439   -17146.636    1277.0451   -18423.682    67.952543    241.22869 
   23200    93.960014   -1030.6989    73665.143   -17141.378    1270.4291   -18411.807    67.977526    239.97895 
   23250    97.095872   -1021.6305    73670.602   -17135.095    1312.8289   -18447.924    68.040306    247.98811 
   23300    96.056765   -1052.1324    73662.435   -17104.853    1298.7791   -18403.632    67.854356    245.33417 
   23350    96.078462   -653.46963    73638.192   -17129.781    1299.0725   -18428.853    68.313035    245.38958 
   23400    99.298734   -777.20706    73652.618   -17103.552    1342.6137   -18446.166    68.360141    253.61433 
   23450    96.553413   -1107.4861    73690.488   -17107.195    1305.4943    -18412.69    68.444158    246.60264 
   23500    95.171586   -927.81827      73692.4   -17152.174    1286.8107   -18438.984    68.894268    243.07338 
   23550    96.319541   -867.53646    73754.374   -17147.228    1302.3321    -18449.56    69.463966    246.00531 
   23600    93.107723   -623.05053    73794.331   -17173.451    1258.9053   -18432.356    69.353675    237.80216 
   23650    95.540737   -741.99458    73854.769   -17165.453     1291.802   -18457.255    69.746956    244.01621 
   23700    93.109133   -979.83071    73849.296   -17188.734    1258.9243   -18447.658    69.812443    237.80576 
   23750    93.549381   -934.95068    73859.627    -17205.35    1264.8769   -18470.227    70.099817    238.93018 
   23800    91.305063   -861.97647     73898.57    -17232.69    1234.5316   -18467.222    70.312469    233.19807 
   23850    92.428717   -824.18944    73927.746   -17224.001    1249.7245   -18473.725    70.682691    236.06794 
   23900     92.18537   -853.85471    73995.743   -17239.654    1246.4342   -18486.088    70.889338    235.44642 
   23950    93.910668   -773.22534    74033.341   -17227.637    1269.7619   -18497.399    70.965371    239.85292 
   24000    93.125324   -1030.7806    74003.234   -17211.974    1259.1433   -18471.117    70.986007    237.84711 
   24050     93.76813   -986.26881    73931.905   -17209.157    1267.8346   -18476.992    71.244594    239.48887 
   24100    94.179336   -1067.8514     73843.59   -17201.778    1273.3945   -18475.173    71.599141    240.53912 
   24150    93.061665   -1077.9453    73883.765   -17212.448    1258.2825    -18470.73    71.611332    237.68452 
   24200    95.098488   -1117.3844    73869.814   -17209.782    1285.8223   -18495.604    71.998456    242.88668 
   24250    93.212013   -1148.1683    73840.994   -17204.343    1260.3154   -18464.659    72.259016    238.06852 
   24300    93.887693   -814.79175    73802.513   -17202.232    1269.4512   -18471.683    72.306077    239.79424 
   24350    94.223327   -959.76642    73795.146   -17205.763    1273.9893   -18479.752    72.553393    240.65147 
   24400    93.928495   -974.29662    73788.961   -17193.663    1270.0029   -18463.666    72.948327    239.89845 
   24450    97.480033    -831.0574    73778.553    -17185.95    1318.0231   -18503.973    72.993883    248.96927 
   24500    94.322393   -631.85031    73798.197   -17180.612    1275.3288    -18455.94    73.284106    240.90449 
   24550    93.368279   -912.91548    73870.286   -17184.335    1262.4282   -18446.763    73.453499    238.46763 
   24600    95.016833   -991.16906    73897.324   -17188.877    1284.7183   -18473.595    73.558395    242.67813 
   24650    94.386074   -1016.7822    73892.456   -17208.577    1276.1898   -18484.766    73.694317    241.06713 
   24700    95.472854   -970.66153    73898.534   -17202.081    1290.8841   -18492.965    74.609223    243.84283 
   24750    94.679601     -940.533    73911.712   -17198.987    1280.1586   -18479.146    75.223006    241.81682 
   24800    93.811293   -1017.1925    73849.784   -17203.782    1268.4182     -18472.2    75.540549    239.59911 
   24850     95.59534   -750.83796     73827.66   -17212.737    1292.5402   -18505.277       75.669    244.15567 
   24900    92.492436   -931.10222    73860.939   -17251.049     1250.586   -18501.635    75.689677    236.23068 
   24950     93.34128    -1217.335    73936.371    -17226.71    1262.0632   -18488.773    75.747182    238.39867 
   25000    96.172124   -643.63225    73998.066   -17188.923    1300.3389   -18489.261    75.830624     245.6288 
   25050     92.05587   -898.90065    73969.216   -17210.989    1244.6832   -18455.673    75.520662    235.11567 
   25100    95.926285   -964.23133    73883.477   -17221.468    1297.0149   -18518.482    75.150545    245.00092 
   25150    91.839897   -659.32801     73864.92    -17213.16    1241.7631   -18454.924     75.66693    234.56406 
   25200    91.092746   -1043.5933    73902.492   -17267.482    1231.6609   -18499.143    75.660641     232.6558 
   25250    92.882946   -838.04097    73892.796   -17253.611    1255.8661   -18509.477    75.976264    237.22806 
   25300    93.530339   -691.12655    73934.679   -17219.339    1264.6195   -18483.959    76.198224    238.88154 
   25350    92.738894    -1223.745    73922.663   -17217.924    1253.9184   -18471.842    76.355646    236.86015 
   25400    95.196398   -858.99992    73878.131   -17253.646    1287.1462   -18540.792    76.510773    243.13675 
   25450    92.363494   -887.18488    73852.113   -17219.051    1248.8426   -18467.894    76.736574    235.90136 
   25500    92.721364    -1324.267     73822.98    -17248.73    1253.6813   -18502.411    76.850966    236.81538 
   25550    93.740288   -934.13269    73827.793   -17239.837    1267.4582   -18507.295    76.701492    239.41776 
   25600    92.518614   -894.84837    73808.127   -17219.658      1250.94   -18470.598    76.897207    236.29754 
   25650    95.280617   -1190.2823    73804.627    -17248.16    1288.2849   -18536.444    76.988366    243.35185 
   25700    93.625124   -1396.9886    73729.661   -17256.541     1265.901   -18522.442    77.336937    239.12363 
   25750    96.135905   -779.91361    73717.322   -17227.558    1299.8492   -18527.407    77.462477     245.5363 
   25800    93.204202   -1022.7673    73742.681   -17233.813    1260.2098   -18494.023    77.896878    238.04857 
   25850    94.501821    -1161.566    73728.762   -17240.799    1277.7548   -18518.554    77.949657    241.36276 
   25900    93.805658   -793.30636    73776.841   -17238.409     1268.342   -18506.751    78.002143    239.58472 
   25950    93.520377   -1170.9019    73745.935   -17218.901    1264.4847   -18483.385    78.474404     238.8561 
   26000    91.208372   -922.28974    73736.499   -17252.257    1233.2242   -18485.481     78.30762    232.95111 
   26050    94.852816   -786.63886    73799.124   -17243.971    1282.5006   -18526.472    78.080042    242.25922 
   26100    94.755034   -1123.3151    73870.495   -17217.578    1281.1785   -18498.757    78.424474    242.00948 
   26150    93.029699   -894.80497    73860.788   -17231.046    1257.8503   -18488.896    78.728771    237.60288 
   26200    93.419554   -977.53716    73915.868   -17209.464    1263.1215   -18472.586    78.670003    238.59859 
   26250    93.437297   -528.26886    73912.521   -17209.761    1263.3614   -18473.122    78.861747    238.64391 
   26300    93.546001   -527.75552    74010.811   -17233.328    1264.8312   -18498.159    79.081707    238.92154 
   26350    95.732631   -367.57096    74051.165   -17194.569    1294.3965   -18488.966    79.221566    244.50632 
   26400    97.233874   -944.65983    74049.614   -17182.384    1314.6948   -18497.079    79.508068    248.34057 
   26450    96.700354   -871.04334    74030.757    -17151.04    1307.4811   -18458.521    79.807492    246.97793 
   26500    95.217006   -928.05347    73961.913   -17170.974    1287.4248   -18458.399    79.951349    243.18938 
   26550    96.195102   -720.52145    74003.725   -17165.088    1300.6496   -18465.738    80.009119    245.68749 
   26600    94.967596   -1089.0229    73939.369   -17204.408    1284.0525    -18488.46    79.915536    242.55237 
   26650    95.466923   -1078.1915    73929.661   -17186.617    1290.8039   -18477.421    80.263913    243.82768 
   26700    91.834204   -902.33467     73950.32   -17203.374    1241.6861    -18445.06    80.390846    234.54952 
   26750    94.673347   -998.52225    73975.538   -17218.284     1280.074   -18498.358    80.669757    241.80085 
   26800    92.238646   -713.80542     73962.71   -17245.401    1247.1545   -18492.555    80.652534    235.58249 
   26850    94.467478   -777.24566    73969.103   -17240.888    1277.2905   -18518.178    80.809984    241.27505 
   26900    93.845506   -707.85073    74011.541   -17229.368    1268.8808   -18498.249    80.916952     239.6865 
   26950    94.729809   -784.10368    74056.704   -17213.592    1280.8374    -18494.43    80.957126    241.94505 
   27000    96.516254   -1359.4111    74088.101   -17223.506    1304.9919   -18528.498    80.981396    246.50773 
   27050    95.012301   -1324.6755    74075.507   -17183.151     1284.657   -18467.808    81.311015    242.66655 
   27100    95.783025   -972.65674     74074.35   -17192.083    1295.0779   -18487.161     81.57455    244.63502 
   27150    93.986708   -1204.5812    74002.462   -17205.259      1270.79   -18476.049    81.665537    240.04713 
   27200    93.743758    -1199.912    73922.246   -17195.337    1267.5051   -18462.842    81.838308    239.42662 
   27250    93.592604   -896.15975    73902.391   -17187.883    1265.4613   -18453.344    81.867573    239.04057 
   27300    95.909494   -1036.6465    73867.262    -17141.78    1296.7879   -18438.568    82.055796    244.95803 
   27350    93.940921   -910.85413    73840.154   -17176.613    1270.1709   -18446.784    82.317941    239.93019 
   27400    93.947587   -956.92589    73786.399   -17216.112     1270.261   -18486.373    82.629722    239.94721 
   27450    89.996387   -1229.0863    73757.111   -17235.134     1216.837   -18451.971    82.749645    229.85564 
   27500     93.65516   -683.61956    73722.456   -17189.254    1266.3071   -18455.561    82.876181    239.20034 
   27550    94.127436   -859.94137    73722.012   -17161.969    1272.6928   -18434.661    83.262513    240.40656 
   27600    97.555339   -916.12396    73747.441   -17153.859    1319.0413   -18472.901    83.490706    249.16161 
   27650    96.998733   -642.22133    73764.902   -17162.376    1311.5154   -18473.892    83.910676    247.74001 
   27700     94.78077   -853.34986    73746.157   -17193.618    1281.5265   -18475.145    83.995171    242.07521 
   27750    93.480514   -1025.3755    73734.257   -17198.513    1263.9458   -18462.459    84.130109    238.75428 
   27800    94.684621   -818.13728    73691.104   -17208.012    1280.2264   -18488.239     84.18337    241.82964 
   27850     91.43834   -933.22401    73695.676    -17211.16    1236.3336   -18447.494     84.40532    233.53846 
   27900     97.12465   -1090.8393    73729.671    -17203.89     1313.218   -18517.108    84.433855    248.06161 
   27950    96.299867   -838.56217    73785.652   -17203.009    1302.0661   -18505.075     84.51177    245.95507 
   28000    95.748238   -605.48753    73857.764   -17194.822    1294.6076    -18489.43    85.183155    244.54617 
   28050    90.744529   -729.75641    73856.604   -17250.258    1226.9526    -18477.21    85.314049    231.76643 
   28100    92.965462   -709.62653    73886.188   -17232.536    1256.9818   -18489.518    85.489636    237.43882 
   28150    91.432177   -906.85025    73852.117    -17255.86    1236.2503    -18492.11    85.607659    233.52272 
   28200    97.328286   -948.08188    73879.212   -17219.939    1315.9713    -18535.91    85.555419     248.5817 
   28250    91.839691   -443.45325    73927.222   -17243.812    1241.7603   -18485.573    85.741614    234.56354 
   28300    92.829602   -637.88837    73975.674   -17241.853    1255.1448   -18496.998    86.360346    237.09182 
   28350    92.499305   -991.32079    74002.853   -17239.338    1250.6789   -18490.017    86.401175    236.24823 
   28400    93.788542   -737.17618    74047.568   -17233.722    1268.1106   -18501.832    86.393448    239.54101 
   28450    96.187744   -756.75381    74055.276   -17214.321    1300.5501   -18514.871    86.710493     245.6687 
   28500    95.669637   -686.97564    74097.239   -17173.322    1293.5448   -18466.867     87.06554    244.34542 
   28550    98.054583   -1090.0567    74142.069   -17164.547    1325.7915   -18490.338    87.392031    250.43671 
   28600    97.995415   -948.53918    74134.614   -17151.727    1324.9915   -18476.719     87.84078    250.28559 
   28650    95.799259   -720.45878    74168.721   -17161.702    1295.2974   -18456.999    88.132725    244.67648 
   28700    92.836117   -863.13566     74197.86    -17202.06    1255.2329   -18457.292    88.523499    237.10846 
   28750    93.215829   -971.95843    74211.903   -17185.624     1260.367    -18445.99    88.198512    238.07827 
   28800    94.787149   -1099.5548    74182.854   -17178.835    1281.6127   -18460.447    88.156547     242.0915 
   28850     94.74842   -646.19569    74141.642   -17190.146    1281.0891   -18471.235    88.159786    241.99259 
   28900     94.35936   -701.63297    74118.627    -17180.46    1275.8286   -18456.289     88.09397    240.99891 
   28950    94.653677   -606.98537    74148.687   -17198.717    1279.8081   -18478.525     88.04678    241.75061 
   29000    94.157214   -888.06414    74173.664   -17139.226    1273.0954   -18412.322    88.313101    240.48261 
   29050    96.685898   -818.51976    74202.175   -17125.874    1307.2856    -18433.16    88.110702    246.94101 
   29100    94.055066   -911.01368    74189.853   -17147.011    1271.7143   -18418.726    87.837719    240.22172 
   29150    97.301383   -790.79394    74204.481   -17143.355    1315.6076   -18458.962    88.097367    248.51299 
   29200    94.847737   -1073.8239     74195.78   -17144.185    1282.4319   -18426.617    87.836313    242.24625 
   29250    96.921911   -981.69566    74126.085   -17155.352    1310.4767   -18465.828    87.856041     247.5438 
   29300    91.896164   -1025.0834    74072.671    -17208.47    1242.5238   -18450.994    88.082611    234.70777 
   29350    92.044011    -1026.917    74008.782    -17193.93    1244.5229   -18438.453    88.164656    235.08538 
   29400      93.0777   -1040.6628    73932.021    -17189.41    1258.4993    -18447.91    88.509572    237.72548 
   29450     94.57424   -1093.9302    73921.154    -17235.61     1278.734   -18514.344    89.122377    241.54772 
   29500    90.769581   -967.80938    73923.062   -17271.505    1227.2914   -18498.796    89.243689    231.83042 
   29550    90.544201   -821.70337    73920.921    -17272.48     1224.244   -18496.724    89.578083    231.25478 
   29600    94.023499   -863.72536    73887.461   -17201.666    1271.2874   -18472.954    89.557593     240.1411 
   29650    96.135491   -931.02424    73848.231   -17195.964    1299.8436   -18495.808    89.500106    245.53524 
   29700    94.442064   -571.25235    73852.039   -17177.402    1276.9468   -18454.349    89.573849    241.21014 
   29750    92.773756   -758.41139    73858.543   -17188.627    1254.3897   -18443.017    89.757005    236.94919 
   29800    95.395632   -1107.6597     73830.03     -17171.4      1289.84    -18461.24     89.59636     243.6456 
   29850    91.530915   -1099.8371    73864.075   -17214.603    1237.5853   -18452.188    89.844872     233.7749 
   29900    94.999831   -834.33261    73848.084   -17198.712    1284.4884     -18483.2    90.096458     242.6347 
   29950    89.982669   -885.99103    73857.666   -17229.427    1216.6516   -18446.079    90.707913     229.8206 
   30000    92.338677   -968.53344    73911.342   -17191.504     1248.507   -18440.011    91.080697    235.83797 
   30050    91.708229   -900.44169    73907.632   -17217.755    1239.9828   -18457.738    91.085956    234.22777 
   30100    96.478503    -679.9891    73880.536   -17199.227    1304.4814   -18503.709      90.9778    246.41131 
   30150    94.414842    -928.8439    73902.057   -17218.969    1276.5788   -18495.548    91.200457    241.14061 
   30200     90.82505   -861.34891    73908.652   -17214.265    1228.0414   -18442.306    91.337414    231.97209 
   30250    95.862007   -859.46126    73883.882   -17193.873    1296.1458   -18490.019    91.530505    244.83675 
   30300     97.06776   -667.27182    73883.129   -17171.586    1312.4488   -18484.035    91.669971    247.91631 
   30350    95.838674   -796.96829    73892.141   -17174.415    1295.8303   -18470.245    91.900887    244.77715 
   30400    95.631874   -992.21449    73923.123   -17168.755    1293.0342   -18461.789    92.096109    244.24898 
   30450    93.385345    -1099.217    73881.596   -17174.438     1262.659   -18437.097    92.110382    238.51122 
   30500    92.164099   -1061.6512    73798.104   -17167.865    1246.1466   -18414.011    91.972993    235.39209 
   30550    95.117363   -1105.0242    73798.743   -17201.468    1286.0775   -18487.546    92.617211    242.93489 
   30600    94.702699   -652.07781    73862.028   -17195.437    1280.4709   -18475.908    92.782749    241.87581 
   30650    93.520738   -1072.8206    73839.898   -17197.464    1264.4896   -18461.953    92.782547    238.85702 
   30700     93.76304   -949.91355    73779.921   -17192.232    1267.7658   -18459.997    92.842995    239.47587 
   30750    94.853119   -848.65449    73780.644   -17181.706    1282.5047    -18464.21    93.475618    242.25999 
   30800    94.852998   -840.52357     73800.18   -17159.059    1282.5031   -18441.562    93.478986    242.25968 
   30850    94.459231   -707.10066    73812.695   -17180.625     1277.179   -18457.804    93.872602    241.25398 
   30900    94.376565    -711.7445    73792.317   -17205.262    1276.0612   -18481.324    94.232191    241.04285 
   30950    94.381994    -1020.474    73772.323   -17217.307    1276.1346   -18493.441    94.136292    241.05672 
   31000    93.124109   -939.03412    73836.434   -17225.494    1259.1268   -18484.621    94.530255    237.84401 
   31050    92.583988    -1025.189    73792.717    -17231.14    1251.8239   -18482.964    94.556418    236.46451 
   31100    91.645448   -912.03565    73770.362   -17261.771    1239.1339   -18500.905    94.750675    234.06743 
   31150    92.040099   -723.28709     73780.71   -17229.071      1244.47   -18473.541    94.822759    235.07539 
   31200    94.724014   -719.13047    73778.985   -17235.365    1280.7591   -18516.124    95.092488    241.93025 
   31250    90.616849   -764.04402    73861.724   -17242.184    1225.2263    -18467.41      95.5222    231.44033 
   31300    94.901926   -833.58712    73893.319   -17233.259    1283.1646   -18516.423    95.567016    242.38465 
   31350     97.53436   -674.46822    73973.551   -17228.455    1318.7576   -18547.212    95.872824    249.10803 
   31400    93.729273   -673.09793    74025.917    -17231.78    1267.3092   -18499.089    96.021414    239.38963 
   31450    92.930858   -956.01928    74060.982   -17254.389    1256.5139   -18510.902    96.256811    237.35044 
   31500    90.422268   -1070.1086    74057.534   -17284.162    1222.5954   -18506.757     96.16823    230.94336 
   31550    92.583688   -1050.2901    74044.124   -17279.105    1251.8198   -18530.925    96.611455    236.46374 
   31600    93.114207   -691.11194    74017.759   -17272.963    1258.9929   -18531.956    96.990158    237.81872 
   31650    95.015052   -634.92921     74055.51   -17236.287    1284.6942   -18520.982    96.782773    242.67358 
   31700    95.712527   -982.76186     74031.38    -17242.45    1294.1247   -18536.575    96.776411    244.45497 
   31750     91.42605   -936.62143    74038.246   -17255.651    1236.1675   -18491.819    96.753432    233.50707 
   31800    91.504958   -878.37225     74007.52   -17285.759    1237.2344   -18522.993    96.825446    233.70861 
   31850    93.618638   -886.97173    74073.025   -17269.803    1265.8133   -18535.616    96.925415    239.10706 
   31900    95.681343   -1065.3526    74176.714   -17258.358    1293.7031   -18552.061    97.252499    244.37532 
   31950    95.109236   -702.14959    74146.943   -17279.807    1285.9676   -18565.775    97.407374    242.91413 
   32000    94.357026   -837.28687    74184.773   -17275.714     1275.797   -18551.511     97.32177    240.99294 
   32050    92.132864   -1099.4372    74166.691   -17289.177    1245.7243   -18534.902    97.408739    235.31232 
   32100    93.365563    -940.6667    74170.069   -17351.562    1262.3915   -18613.953    97.601385    238.46069 
   32150    89.431787   -1220.5447    74172.199   -17320.022    1209.2031   -18529.225    97.651672    228.41362 
   32200    94.645519   -918.27545    74159.534   -17272.143    1279.6978   -18551.841    97.717926    241.72977 
   32250    96.287085   -904.11555    74203.661   -17246.318    1301.8933   -18548.211    97.945278    245.92242 
   32300    96.174362   -486.35987    74254.365    -17290.16    1300.3692   -18590.529    98.160376    245.63452 
   32350    93.048182   -1100.5595    74275.243   -17311.533    1258.1002   -18569.633     98.36556    237.65009 
   32400    94.258475   -1103.3914    74241.515   -17316.656    1274.4645   -18591.121    98.362481    240.74124 
   32450    93.019846   -1037.3969     74207.22   -17309.984    1257.7171   -18567.701    98.331807    237.57771 
   32500    94.132281    -1405.587    74169.062   -17293.155    1272.7583   -18565.914    98.501964    240.41893 
   32550    91.409676   -873.80086    74165.151   -17316.359    1235.9461   -18552.305    98.497633    233.46525 
   32600    93.661992   -881.71154     74164.41   -17298.003    1266.3995   -18564.403    98.456571    239.21779 
   32650     90.93315   -982.02367    74172.802   -17319.752     1229.503   -18549.255    98.661265    232.24818 
   32700    91.538067   -1274.6155     74114.61   -17309.945     1237.682   -18547.627    98.696602    233.79317 
   32750    92.196047   -1087.9927    74040.497   -17287.873    1246.5785   -18534.451    98.571629    235.47369 
   32800    95.000712   -637.05399    74039.568   -17288.512    1284.5003   -18573.013    98.887183    242.63695 
   32850     92.89242   -914.27766    74101.144   -17310.197    1255.9942   -18566.192      99.5778    237.25226 
   32900    92.774418   -539.18819    74099.707   -17281.725    1254.3987   -18536.123    99.901524    236.95088 
   32950    93.760362   -854.99437      74163.1   -17293.073    1267.7296   -18560.803    99.854466    239.46903 
   33000    95.044061   -696.08899    74254.611    -17317.79    1285.0864   -18602.877    100.07481    242.74767 
   33050    94.770545   -799.66439    74258.483   -17288.547    1281.3882   -18569.936    100.52572    242.04909 
   33100    95.093646   -725.92705     74295.35   -17293.637    1285.7568   -18579.394    100.04125    242.87431 
   33150    91.211377   -979.95432    74332.899   -17284.457    1233.2649   -18517.722    100.56724    232.95879 
   33200     93.52627   -892.22261    74295.378   -17272.523    1264.5644   -18537.087    100.54308    238.87115 
   33250    91.364305   -773.86542    74336.821    -17284.39    1235.3326   -18519.722    100.45215    233.34937 
   33300    94.612834   -696.37175    74399.917   -17256.073    1279.2558   -18535.329    100.46719    241.64629 
   33350    92.765547   -669.63268    74463.142   -17248.647    1254.2787   -18502.926    100.47009    236.92822 
   33400    91.913155   -674.06061    74458.833   -17254.896    1242.7536   -18497.649    100.59585    234.75117 
   33450    93.613662   -958.29768    74491.328   -17254.308    1265.7461   -18520.054    100.77283    239.09435 
   33500    95.257734   -482.28376    74532.895   -17242.116    1287.9755   -18530.091    100.88252     243.2934 
   33550    93.862604   -797.21896     74520.01   -17245.382     1269.112   -18514.494    100.88557    239.73016 
   33600    92.368582   -938.59337    74519.308   -17205.372    1248.9114   -18454.283    100.69848    235.91435 
   33650    93.972151   -564.50887    74506.336    -17221.77    1270.5932   -18492.363    100.63106    240.00995 
   33700    92.873614   -461.33368      74483.9   -17266.655    1255.7399   -18522.395    100.72886    237.20423 
   33750    94.891483   -769.64786    74502.273   -17264.283    1283.0234   -18547.306    100.92637    242.35798 
   33800    94.131133   -820.12159    74504.496   -17243.884    1272.7428   -18516.627     100.8986      240.416 
   33850    94.481036   -1016.6817    74456.436   -17238.809    1277.4738   -18516.283    101.11099    241.30967 
   33900    94.622353   -667.32811    74471.277   -17234.317    1279.3845   -18513.702    101.28876     241.6706 
   33950    93.566074   -602.25404    74461.596   -17228.742    1265.1026   -18493.844    101.56547    238.97281 
[...]
   92000    93.455348    -889.1883     73413.25   -17158.656    1263.6055   -18422.261    240.18291    238.69001 
   92050    95.524885   -1062.6856    73430.007   -17153.881    1291.5876   -18445.468    240.14807    243.97572 
   92100    98.243487   -940.83381    73456.548   -17147.551    1328.3457   -18475.897     240.2916    250.91918 
   92150    96.461058   -976.85753    73508.882   -17146.142    1304.2456   -18450.388    240.85267    246.36676 
   92200    96.365848   -719.93697    73619.127   -17117.082    1302.9582    -18420.04     240.3663    246.12359 
   92250    97.832988   -805.14783    73694.756   -17127.009    1322.7954   -18449.804    240.67734    249.87074 
   92300    98.493139   -812.60328    73790.608    -17092.42    1331.7212   -18424.141    240.88275     251.5568 
   92350    94.021802   -929.41741     73833.27   -17134.587    1271.2645   -18405.851    241.52357    240.13676 
   92400    95.893974   -653.62317    73871.056   -17152.301    1296.5781   -18448.879     242.0843    244.91839 
   92450    94.055864   -929.89261    73852.374   -17171.454     1271.725    -18443.18    242.27273    240.22376 
   92500    96.937294    -731.1521    73891.385   -17162.038    1310.6847   -18472.723     242.4971    247.58309 
   92550    97.471085   -788.25312    73952.856   -17153.892    1317.9021   -18471.794    243.05969    248.94642 
   92600    95.708781   -599.29526    74030.579   -17136.033    1294.0741   -18430.107    243.74728     244.4454 
   92650    97.671997   -719.47142     74072.86   -17124.258    1320.6186   -18444.877    243.55628    249.45956 
   92700    97.334423   -1119.7208    74181.006   -17106.934    1316.0543   -18422.988    243.24983    248.59738 
   92750    93.859853   -933.73335    74224.809   -17136.167    1269.0748   -18405.242    243.60213    239.72314 
   92800    94.394013   -949.42386     74188.49   -17126.487    1276.2971   -18402.784    243.65574    241.08741 
   92850    94.493239   -842.75648    74228.015   -17142.325    1277.6388   -18419.964    243.60985    241.34084 
   92900    92.734448   -916.22016    74262.986   -17192.548    1253.8582   -18446.406     243.7255    236.84879 
   92950     93.69633   -1054.2096    74192.257   -17171.269    1266.8638   -18438.133    243.60913    239.30549 
   93000    97.186656   -572.01378    74220.162     -17154.2    1314.0563   -18468.257    243.88758    248.21997 
   93050     94.53252   -702.17569    74296.262   -17170.851    1278.1699   -18449.021    244.41944    241.44117 
   93100    95.472249    -783.1991    74332.214   -17190.462    1290.8759   -18481.338    244.49211    243.84129 
   93150    91.938109     -1060.48     74345.33   -17182.141     1243.091   -18425.232    244.47071     234.8149 
   93200    93.944493   -902.21152    74371.926   -17209.235    1270.2192   -18479.455    244.49111    239.93931 
   93250    91.669939   -996.39069    74305.267   -17208.942    1239.4651   -18448.407    244.50032    234.12998 
   93300    91.580836   -1181.5515    74334.436   -17204.164    1238.2603   -18442.424    244.91829    233.90241 
   93350    92.358319   -839.58368    74299.868   -17201.639    1248.7726   -18450.412    244.88659    235.88814 
   93400    95.749194   -643.54067    74401.724   -17198.359    1294.6205    -18492.98    245.34368    244.54862 
   93450    96.230931   -1244.3976    74424.739    -17199.76     1301.134   -18500.894    245.19373      245.779 
   93500    93.802883   -963.08666    74441.637   -17217.017    1268.3045   -18485.322    244.59887    239.57763 
   93550    95.058896   -1048.9282    74435.127   -17195.824     1285.287   -18481.111    244.72018    242.78556 
   93600    92.068955   -902.03749    74414.776   -17216.933    1244.8601   -18461.793    244.91368    235.14909 
   93650    94.344339   -937.75065    74458.909   -17192.372    1275.6255   -18467.998    244.90225    240.96054 
   93700    94.705526   -1128.2672    74446.209   -17205.495    1280.5091   -18486.004    245.54796    241.88303 
   93750    96.629621   -928.11613    74455.213     -17168.5    1306.5247   -18475.024    246.42267    246.79728 
   93800     93.77157   -1100.4181    74469.073   -17172.651    1267.8811   -18440.532    246.59141    239.49766 
   93850    95.410542   -900.17416    74494.404    -17188.89    1290.0416   -18478.932    246.48703    243.68368 
   93900    96.334856   -1011.2113     74508.71   -17160.619    1302.5392   -18463.159    246.55348    246.04443 
   93950    93.678771    -1134.389    74529.174   -17181.854    1266.6264    -18448.48    246.63435    239.26064 
   94000    96.175715   -1139.6735    74530.216   -17174.199    1300.3875   -18474.586    246.65544    245.63797 
   94050    93.426487   -1427.1681    74540.257   -17191.101    1263.2153   -18454.316     247.4375     238.6163 
   94100    91.178335   -1061.9699     74528.08   -17193.274    1232.8181   -18426.092    247.47911     232.8744 
   94150    95.459027   -1063.0049    74528.448   -17179.891    1290.6972   -18470.588    247.59144    243.80752 
   94200    93.900584   -1065.4598    74499.474   -17164.984    1269.6255    -18434.61    247.55574    239.82717 
   94250    95.460922   -890.68319    74517.147   -17148.189    1290.7228   -18438.911    247.74548    243.81236 
   94300    94.751374   -811.27558    74564.839   -17120.392     1281.129   -18401.521    247.70058    242.00013 
   94350    93.869494   -1025.4032     74519.07   -17110.804    1269.2051   -18380.009    247.89262    239.74776 
   94400    96.355268   -742.38259    74515.043   -17133.519    1302.8152   -18436.334    247.87743    246.09656 
   94450    98.337522   -1227.2987    74526.705   -17108.475    1329.6172   -18438.092     248.3277    251.15935 
   94500    99.269324   -1708.3864    74451.041   -17099.578     1342.216   -18441.794    248.85114    253.53922 
   94550     96.33601   -1131.0682    74381.069   -17120.254    1302.5548   -18422.809    248.81377    246.04738 
   94600    95.427591    -1266.194     74351.44   -17105.092    1290.2721   -18395.364    249.42436    243.72723 
   94650    95.824137   -1082.9281    74359.888   -17123.787    1295.6338   -18419.421    249.62361    244.74003 
   94700    96.032589    -628.7179    74407.775   -17135.273    1298.4523   -18433.725    249.68527    245.27242 
   94750    95.965141   -902.47671    74463.902   -17138.683    1297.5403   -18436.223    249.57941    245.10016 
   94800    96.374775    -779.3575    74527.816   -17161.366    1303.0789   -18464.445    249.79212    246.14638 
   94850    94.952106   -1104.3504    74546.114   -17136.337    1283.8431    -18420.18    249.83914    242.51281 
   94900    98.816268   -1132.4222    74507.534   -17091.688    1336.0903   -18427.778     249.2308    252.38209 
   94950    96.386735   -1392.1243    74382.965   -17104.324    1303.2407   -18407.565    249.28014    246.17693 
   95000    94.031444   -1243.0191    74301.696   -17125.767    1271.3949   -18397.162    249.25312    240.16139 
   95050    96.296156   -577.25943     74256.46   -17079.756    1302.0159   -18381.772    249.83189    245.94559 
   95100    96.893614   -1210.4229    74214.253   -17084.247    1310.0941   -18394.341    250.02583    247.47153 
   95150     97.88097   -1283.8322    74111.743    -17115.05    1323.4441   -18438.494    249.54179    249.99329 
   95200    94.893597   -1116.3815    74039.727   -17134.731     1283.052   -18417.783    249.67702    242.36338 
   95250    95.298717    -1116.412    74045.748   -17142.651    1288.5296    -18431.18    250.55223    243.39807 
   95300    95.397915   -734.23444     74016.44   -17130.023    1289.8709   -18419.894    250.37805    243.65143 
   95350    94.828271   -799.77559    74072.836   -17159.887    1282.1687   -18442.056    250.62613    242.19653 
   95400     95.62091   -709.66171    74110.512   -17142.536     1292.886   -18435.422    250.47701    244.22097 
   95450    92.153642   -1068.6126    74128.865   -17193.907    1246.0052   -18439.912    250.86031    235.36538 
   95500    94.754688    -863.4438     74083.95   -17182.329    1281.1738   -18463.503    250.51999    242.00859 
   95550    94.199906   -568.86373    74092.309   -17182.569    1273.6726   -18456.241    250.75118    240.59165 
   95600     94.66837   -694.51114    74136.303   -17197.397    1280.0067   -18477.403    251.54239    241.78814 
   95650     94.77517   -1327.6301    74170.636    -17163.68    1281.4507    -18445.13    251.82863    242.06091 
   95700    92.902047   -1031.5862    74145.114   -17191.372    1256.1243   -18447.496    252.06798    237.27685 
   95750    95.616694   -929.20892    74159.377   -17172.533     1292.829   -18465.362    252.26513     244.2102 
   95800    94.382508   -884.49823    74126.764   -17208.691    1276.1416   -18484.833    252.42281    241.05803 
   95850    93.588242   -1074.9036    74142.295   -17236.474    1265.4024   -18501.877    252.41258    239.02943 
   95900    92.384046   -1053.1481    74123.692   -17234.143    1249.1205   -18483.263    252.61606    235.95385 
   95950    92.689991   -815.24196     74074.93   -17217.868    1253.2571   -18471.126    252.25886    236.73525 
   96000    93.404487   -759.55048    74016.324   -17188.326    1262.9178   -18451.244    252.58206    238.56011 
   96050    96.558762    -793.8248    74014.779   -17167.083    1305.5666   -18472.649    252.94422     246.6163 
   96100     95.40899   -745.73867    74056.023   -17172.962    1290.0206   -18462.982    253.54669    243.67972 
   96150    94.152253   -753.03679    74101.554   -17192.175    1273.0283   -18465.203    253.92308    240.46994 
   96200    94.655951   -801.62267    74149.808   -17194.388    1279.8388   -18474.227    254.74072    241.75642 
   96250    94.283879   -1062.9252    74130.094   -17166.165     1274.808   -18440.973    254.95982    240.80612 
   96300    95.700378   -982.71227    74139.948   -17166.172    1293.9604   -18460.132    255.29209    244.42394 
   96350    94.571684   -1255.6425    74117.688    -17168.84    1278.6994   -18447.539    255.56642    241.54119 
   96400    97.328907   -983.39976    74050.004   -17166.569    1315.9797   -18482.548    254.94748    248.58329 
   96450    95.714057    -1018.077    74046.885   -17178.842    1294.1454   -18472.987    255.18925    244.45887 
   96500    94.205839   -996.19229    74034.102    -17179.42    1273.7528   -18453.173    255.28552     240.6068 
   96550    93.185371   -650.24725    74050.118   -17146.283    1259.9551   -18406.238     255.7312    238.00047 
   96600    94.262853   -949.82525    74074.004   -17164.404    1274.5237   -18438.928    255.97913    240.75242 
   96650    95.733822   -992.40267    74014.687    -17173.19    1294.4126   -18467.602    256.26744    244.50936 
   96700    94.746706   -1183.2584    73947.652    -17156.15    1281.0659   -18437.216    256.54303    241.98821 
   96750    94.341731   -1169.4764    73912.055   -17199.871    1275.5902   -18475.461    256.49002    240.95388 
   96800    94.704903   -883.71522    73914.956     -17184.5    1280.5007       -18465    256.41719    241.88144 
   96850    93.533833    -891.6977    73944.822   -17196.616    1264.6667   -18461.283    256.43288    238.89047 
   96900    90.859981   -1374.2635    73932.305   -17231.899    1228.5137   -18460.412    256.86881     232.0613 
   96950    93.867669   -955.07565    73898.778   -17186.602    1269.1805   -18455.783    257.11893     239.7431 
   97000    92.475543   -1066.2006    73810.875   -17199.814    1250.3576   -18450.172     257.2676    236.18754 
   97050    91.399684   -1207.4861    73749.909   -17200.698     1235.811   -18436.509    257.49223    233.43973 
   97100    96.096794   -1072.6602    73694.804   -17183.515    1299.3204   -18482.835    257.43765    245.43641 
   97150    92.216889   -1120.9134    73661.512   -17210.221    1246.8604   -18457.081    258.26768    235.52692 
   97200    93.860848   -790.37779    73674.463   -17227.277    1269.0882   -18496.366    258.04059    239.72568 
   97250    93.108015   -1085.2583     73670.19   -17218.841    1258.9092    -18477.75    258.03096     237.8029 
   97300    92.719007   -848.56373    73655.468   -17232.033    1253.6495   -18485.682    258.84985    236.80936 
   97350    94.171406   -1104.9193    73651.887   -17208.679    1273.2873   -18481.966    258.48728    240.51886 
   97400    93.350093   -668.33488    73705.156   -17198.079    1262.1823   -18460.262    257.70129    238.42118 
   97450    92.060743   -1060.7251    73719.562   -17193.354    1244.7491   -18438.103    258.02203    235.12811 
   97500    88.667731   -930.81419    73672.882    -17211.94    1198.8723   -18410.812    257.87585    226.46218 
   97550    92.448844   -1263.0478    73594.204   -17199.894    1249.9966   -18449.891    258.02031    236.11934 
   97600    96.849599   -664.80904    73557.214   -17194.222     1309.499   -18503.721    258.12333    247.35911 
   97650    95.372865   -1280.4997    73489.856   -17166.255    1289.5322   -18455.788    258.16517    243.58745 
   97700    96.505059   -1110.8795    73506.565   -17152.586    1304.8405   -18457.426    258.30501    246.47914 
   97750    94.802334   -898.39197    73526.019    -17159.96     1281.818   -18441.778     258.2527    242.13028 
   97800    96.310571   -1024.5158    73510.439   -17142.743    1302.2108   -18444.954     257.7174    245.98241 
   97850    94.391887   -842.50703    73465.838   -17147.036    1276.2684   -18423.304     257.5204    241.08198 
   97900    94.290987   -999.01988    73425.491   -17154.439    1274.9041   -18429.343    257.97694    240.82428 
   97950    97.378428   -768.65364    73411.891   -17181.676    1316.6493   -18498.325    258.41924    248.70977 
   98000    93.638495   -756.92886    73418.901   -17212.562    1266.0818   -18478.644    258.75061    239.15778 
   98050    93.273091   -1047.3512    73367.153   -17168.544    1261.1412   -18429.685    258.85861    238.22452 
   98100    96.753956   -775.05445    73319.018   -17149.834    1308.2058    -18458.04    258.64149    247.11483 
   98150    96.038034   -532.85022    73367.518   -17126.469    1298.5259   -18424.995    258.61313    245.28633 
   98200    95.011553   -644.22305    73465.154   -17139.766    1284.6469   -18424.413    259.26529    242.66464 
   98250    92.619915   -759.76999    73601.639   -17147.682    1252.3096   -18399.991    259.82557    236.55627 
   98300    92.223715   -1181.4658    73661.185   -17175.136    1246.9526   -18422.089    260.42526    235.54435 
   98350    92.105074   -614.00958    73616.931   -17204.346    1245.3485   -18449.695     260.4615    235.24134 
   98400    93.981702   -728.98335    73648.346   -17185.043    1270.7223   -18455.765    261.14643    240.03435 
   98450     92.77635   -1023.0289    73680.894   -17177.945    1254.4248    -18432.37    261.42611    236.95581 
   98500    88.413911   -998.64647     73705.22   -17202.038    1195.4405   -18397.478    261.53333    225.81391 
   98550    93.299064   -851.26707      73736.7   -17165.922    1261.4924   -18427.415    261.40554    238.29085 
   98600     95.47948   -848.11595    73748.623   -17137.067    1290.9737   -18428.041    261.60547    243.85975 
   98650    94.654368   -691.84091    73787.792   -17154.927    1279.8174   -18434.745     262.3355    241.75237 
   98700    95.308237   -1204.6507    73727.143   -17153.986    1288.6583   -18442.644    262.62143    243.42239 
   98750    95.112735    -881.2502    73672.023   -17129.075     1286.015    -18415.09    262.71038    242.92307 
   98800    93.090863   -1068.1806    73685.498   -17160.521    1258.6773   -18419.198    263.10512    237.75909 
   98850    96.847744   -1023.2065    73645.345   -17148.148    1309.4739   -18457.622    262.73086    247.35437 
   98900    98.103918    -1121.114     73641.85   -17168.086    1326.4586   -18494.544    262.26068    250.56271 
   98950     94.39361   -1098.1228    73554.349   -17158.387    1276.2917   -18434.678    262.27317    241.08638 
   99000    98.258266   -677.90784    73553.618   -17159.002    1328.5455   -18487.548      262.532    250.95692 
   99050    95.191748   -688.60161    73587.485   -17159.717    1287.0833   -18446.801    262.20558    243.12487 
   99100    96.620163   -628.57301    73603.199   -17161.483    1306.3968   -18467.879    261.54717    246.77312 
   99150    97.957485   -768.89298    73622.026   -17182.945    1324.4787   -18507.424    262.10226    250.18871 
   99200    92.171972   -556.92752    73665.918   -17215.077     1246.253    -18461.33    262.14661     235.4122 
   99250    93.975196   -866.86871    73711.629   -17231.711    1270.6343   -18502.346    261.99553    240.01773 
   99300    96.048691   -892.45404    73689.037   -17230.672      1298.67   -18529.342    261.19313    245.31355 
   99350    92.364987   -861.13062     73696.64     -17229.8    1248.8628   -18478.662    261.79831    235.90517 
   99400    92.307129   -927.44427    73700.291   -17249.759    1248.0805   -18497.839    261.73467     235.7574 
   99450    92.661737   -938.18823    73703.216   -17258.127    1252.8751   -18511.002    262.21627    236.66308 
   99500    93.603484   -873.14961    73660.936    -17246.81    1265.6084   -18512.418    261.41885    239.06836 
   99550    94.016849   -910.67962    73641.798   -17249.327    1271.1975   -18520.525    261.39761    240.12411 
   99600    92.377768    -1121.716    73598.744   -17261.722    1249.0356   -18510.757    261.65282    235.93781 
   99650    94.606367   -701.93787    73655.058    -17247.72    1279.1684   -18526.889    261.39249    241.62978 
   99700    92.775428    -792.1063    73617.747   -17207.673    1254.4123   -18462.086     261.3968    236.95346 
   99750     92.32785   -671.95429    73632.798   -17232.457    1248.3606   -18480.818    261.94633    235.81032 
   99800    92.727997   -762.89288    73645.461   -17246.838     1253.771   -18500.609    261.53158    236.83232 
   99850    94.784669   -791.06519    73702.005   -17270.528    1281.5792   -18552.107    261.96196    242.08517 
   99900    93.885714   -934.39226    73798.443   -17252.775    1269.4245     -18522.2    261.84785    239.78919 
   99950     94.02043   -816.47513    73749.738   -17224.172    1271.2459   -18495.418    261.52736    240.13326 
  100000    93.883475   -934.71416    73801.337   -17260.752    1269.3942   -18530.147    261.90558    239.78347 
Loop time of 61.1295 on 60 procs for 100000 steps with 4537 atoms

Performance: 706.697 ns/day, 0.034 hours/ns, 1635.873 timesteps/s
100.0% CPU use with 60 MPI tasks x no OpenMP threads

MPI task timing breakdown:
Section |  min time  |  avg time  |  max time  |%varavg| %total
---------------------------------------------------------------
Pair    | 25.906     | 32.139     | 38.701     |  71.0 | 52.58
Neigh   | 0.6883     | 1.5394     | 3.9477     |  92.7 |  2.52
Comm    | 15         | 20.558     | 26.761     |  87.1 | 33.63
Output  | 0.11506    | 0.11791    | 0.12872    |   0.5 |  0.19
Modify  | 4.5715     | 6.0427     | 7.8589     |  30.6 |  9.89
Other   |            | 0.7324     |            |       |  1.20

Nlocal:    75.6167 ave 149 max 36 min
Histogram: 40 0 0 0 0 0 0 0 5 15
Nghost:    788.383 ave 860 max 732 min
Histogram: 13 7 1 15 4 0 1 3 8 8
Neighs:    0 ave 0 max 0 min
Histogram: 60 0 0 0 0 0 0 0 0 0
FullNghs:  7735.27 ave 19570 max 1827 min
Histogram: 40 0 0 0 0 0 0 0 3 17

Total # of neighbors = 464116
Ave neighs/atom = 102.296
Neighbor list builds = 5652
Dangerous builds = 0

write_data		${DIR}/data.eq-${NAME}-${TEMP}
write_data		run_20/data.eq-${NAME}-${TEMP}
write_data		run_20/data.eq-het_freeze_20-${TEMP}
write_data		run_20/data.eq-het_freeze_20-240
undump          1

reset_timestep  0

unfix           2
unfix           3
unfix           4


################################################
#######         Run Simulation         #########
################################################

log				${DIR}/log.run_${NAME}
log				run_20/log.run_${NAME}
log				run_20/log.run_het_freeze_20
