LAMMPS data file via write_data, version 29 Oct 2020, timestep = 100000

6768 atoms
2 atom types

0.28783915634001644 48.93216084365976 xlo xhi
0.2866674248329595 48.73296850557725 ylo yhi
-0.6751972443839733 60.73719724438557 zlo zhi

Masses

1 18.015
2 12.01

Atoms # atomic

33 1 2.701663309208261 3.789240762734338 1.5275617134237005 0 3 0
4901 1 3.1244080119651483 1.114171462640972 2.670072760173499 1 1 0
3206 1 22.16737538664776 19.711122569453092 17.758250331519633 0 0 1
5544 1 12.85377140039644 24.082183009590704 2.377793812961687 2 -1 0
5363 1 1.0127573865401596 6.443447128937889 13.772111510465045 0 1 0
5542 1 11.954599262356039 21.525361771332364 0.44601847886294776 0 0 0
5317 1 0.9638200357578428 12.708538832368973 -0.5859141130026673 0 0 0
5197 1 15.873727293439234 2.4060152420273924 1.8826377610900087 -1 1 0
1417 1 0.2903091307728492 23.8788071601616 13.680583378480572 0 -1 1
4715 1 22.81527710465683 0.5035954637424227 8.94508374747153 0 1 1
1860 1 18.769592309487162 5.121904190490037 3.5048743317409228 -1 -1 0
612 1 21.177200595715234 4.999444223732809 4.729943575645732 0 1 1
1782 1 18.234002251380733 3.4529144984611504 0.7218424383229491 0 1 1
3674 1 22.414270635337804 3.0125154833049135 2.5892548959084283 1 -1 0
1523 1 9.381346860086012 12.67156005977441 19.64850328917793 0 0 0
1496 1 7.322571526824097 9.415526014816644 5.164421264515325 0 0 1
3808 1 0.7517068466210921 5.022587090789764 2.954725840620286 1 0 0
3298 1 14.254985788737429 23.11476633034951 0.2998039936447797 0 1 1
5260 1 5.207234188475131 4.456092498715451 1.8455002604850637 2 1 0
5085 1 23.38515343633247 3.0907404228087523 -0.28720691464324566 1 0 1
1981 1 24.238406172490105 19.62356014418165 -0.40249841907792683 0 1 0
5479 1 14.772409549844003 1.8215693142939147 17.504434531724485 2 0 0
352 1 9.908439075481722 6.351918952827354 2.0743861237404992 1 0 0
4886 1 15.080214617094004 6.690611574637526 1.8394711899272491 0 -1 1
326 1 13.669933105738219 4.298383185532608 2.374091372149349 0 0 0
1707 1 16.612775570682928 23.895713559865833 3.6487878094123216 1 2 1
3425 1 17.741236757865636 6.415593960594469 1.2091491468379147 1 0 0
1410 1 17.022987012885256 3.5876750893072273 4.769413740652845 -1 0 1
6354 1 3.990474214201734 24.400743732332423 16.06469019843665 0 1 1
161 1 21.0089321242879 9.893459988559375 -0.4782132208152184 0 1 1
1830 1 20.885555226230068 7.19713662241956 6.123995477758914 0 1 0
4723 1 0.5907043558871952 15.633355418827055 0.00392852541764066 1 0 1
3948 1 10.957394966427078 8.61283281055696 0.3029893535802143 0 -1 1
3137 1 4.4145397726064 9.292532532554528 4.592890169849718 1 0 1
289 1 17.157812438996324 0.9854738262466197 7.569045719171191 0 1 0
2175 1 10.395286651441726 12.580193597494306 3.55360391112616 0 0 0
3154 1 12.785403668076018 12.511132122561591 5.283039525190153 -1 0 1
3140 1 22.06976422613382 16.119238601421532 18.857784789579 1 2 1
306 1 19.82768543717792 23.715254179246593 14.455327619372172 -1 -1 1
3869 1 14.051869035186416 10.768379836054699 1.4662756849248866 0 0 0
3652 1 13.435839660979779 8.513189308348252 0.1379339545880789 0 2 0
1668 1 18.47006546604901 8.976486744704102 0.21992672298374083 0 1 1
1779 1 20.806198962174104 13.309958877609134 1.698398021754675 0 1 0
4943 1 4.520950584715581 10.751277635101088 1.1518404337091042 0 0 0
1918 1 5.479098681968003 13.538301675458028 3.722422379619264 2 0 0
3702 1 4.92540326023259 16.128556039601435 3.5423228021940956 1 -1 0
3821 1 3.311173762550992 13.457213314012423 1.7369794442801942 1 0 0
422 1 8.100524254149072 12.341983333257895 4.758651706871088 1 0 0
1460 1 10.344114948984577 15.071156064436144 1.3374501901332252 1 0 1
3667 1 13.858171423535875 17.894992611249542 -0.05917883578735428 0 1 0
85 1 12.919098378251212 13.240204456345285 1.119123662809833 0 1 0
2041 1 18.52653727976746 18.25643150207822 17.839750121598506 0 1 0
1895 1 16.709012686976816 11.09402200320884 0.4533207890848563 0 1 0
2304 1 18.060742771200587 12.79490100151525 1.9829214397571078 0 0 1
3710 1 19.237497029503523 15.022820541365274 4.8505585039167025 -1 -1 0
5398 1 3.9277384912650484 20.49026505325708 0.5417501866373209 1 0 0
54 1 14.08417245623275 15.130340143798437 -0.07568247251860816 1 0 1
533 1 6.330340113720459 19.23375792467474 1.8201557345898314 0 0 1
6561 1 0.7783235058356521 23.09409404757791 2.8491239672927935 0 0 1
5212 1 8.626927918378225 20.877608103125887 4.36661243097117 1 0 0
3720 1 11.892404258784493 16.51074884677743 5.071841003620879 1 0 0
3860 1 10.43462092717988 17.136783406653553 3.072200853446191 1 0 0
3477 1 15.591588506973073 20.07010908864551 5.610753413613356 1 1 0
5400 1 13.150414893887142 14.809432349260351 3.4510153231724656 -1 1 0
39 1 16.674397995795566 18.4896868023391 0.46363838650755773 0 0 1
6422 1 16.458270308686124 16.728806511158364 18.972085311120605 0 -1 1
1897 1 20.385275163619244 18.402765461632338 1.9586602290056523 0 0 0
4724 1 18.039517389038757 20.751205410273837 3.5831438757368197 1 0 1
5173 1 19.10307103675469 1.0322541178030518 19.098675582525903 -1 1 0
1968 1 3.098249224442614 22.909828419309033 1.7011328804076942 0 0 0
1815 1 8.751566127896591 19.46851444608509 0.7361357166346343 1 0 0
1948 1 9.721547215145424 23.630022061211623 15.101533533185194 0 0 0
2173 1 7.771656310418049 22.627563163814703 2.489531695039865 0 -1 0
3296 1 24.46807294889991 3.9939628762662176 7.850106325006712 0 1 0
5480 1 0.9512586288546411 8.651946371724272 15.242698663909758 2 2 0
3169 1 15.427453687813884 20.87572685584477 2.5590130849241848 1 -1 1
4883 1 13.502801935207982 22.45106117327916 4.332824246354409 1 0 1
2064 1 18.736442935430283 20.42812459980099 0.7863151711520178 0 0 0
2069 1 0.8046308751970037 11.89784286589576 3.6193487373984095 2 0 0
3587 1 22.491783025436995 22.696750213740614 1.740263916354571 1 1 0
3639 1 13.296633731552847 0.9251478670183148 12.583507807688973 0 1 0
2224 1 19.951641486664066 23.20377317580036 2.1499342022697405 1 1 0
6677 1 22.687747553545538 19.86561226422324 2.26307833778044 0 0 1
2004 1 5.304306238411473 4.827668676809922 4.82730971572999 0 1 0
3661 1 2.7416057879893625 2.0763981213361666 5.298141302182285 -1 0 0
6479 1 6.741600054326513 1.9040920901470417 4.81462006852775 0 2 1
83 1 10.703205260876821 20.06219158111307 2.52516214504875 0 0 0
1667 1 10.450497384715653 3.7157143908718373 1.2070062322798636 0 1 1
1822 1 10.883628937226748 1.6847740761922074 3.4764123698506166 1 1 0
1595 1 9.68624001985388 2.2467952277465124 8.432303177100273 0 0 1
3106 1 13.398801879033629 2.4640843454797623 4.943690780294416 -1 1 1
3942 1 24.492218439751795 14.379490813815547 12.270979554894533 1 1 0
4806 1 7.76167391362166 17.401012888937014 19.481138386213736 0 0 1
3167 1 18.676846522977097 3.418813898976739 7.342885771726108 -1 1 1
5137 1 20.598138019916878 2.4026069030205752 5.79681396164211 0 0 1
1346 1 5.713164814528897 0.6765331200641493 2.561142501159179 0 0 1
4783 1 22.829997113452603 1.3292897621875208 6.470569193606528 0 -1 1
1656 1 3.770369101210587 6.7281647907803075 6.040954532116581 0 0 1
6672 1 1.3337569258529969 7.452937715737185 4.023781726900375 -1 0 0
5342 1 4.251230886264219 6.920590274589024 10.034542920953795 0 1 0
97 1 7.5614175779481165 12.059289819118545 1.297523003918989 -1 0 1
580 1 7.740891854438428 6.558548882798102 4.916833074014504 0 1 1
1473 1 7.480716764908851 4.4206782389347135 8.707898691190136 1 0 1
1537 1 11.60405504717524 5.538159131118037 4.113043313956596 0 -1 1
2214 1 15.407841640899475 7.278201873491383 4.368466485113682 1 0 0
5615 1 14.755748598373197 5.078983885263496 5.69971119116278 0 -1 0
550 1 18.31107079909187 7.391234809447417 5.276853264804544 0 1 0
5399 1 17.064349164978186 5.798192163237962 7.624708027439807 0 1 0
4704 1 3.09809192856866 24.439592533660292 12.956042577034733 2 0 1
5248 1 11.513926765269291 2.5573924472397485 19.66116361169364 0 0 0
3401 1 23.84738898151615 13.955042269545611 15.926935196816089 2 0 1
6715 1 2.8684702586018584 10.120580762325195 7.032576959294209 0 0 1
203 1 8.031652671974298 9.319663838575647 1.9390351815981548 1 0 0
421 1 8.104797641197234 9.282393756935996 7.772285744602925 2 1 0
3651 1 7.3554049640091685 12.133890372969322 7.938871548094788 2 0 0
3444 1 10.98756481371269 10.165525334860442 2.4211027234016727 0 1 0
5440 1 14.893988823955173 10.680566731674666 7.078997275349178 0 0 1
1476 1 10.976191994708907 9.627780895609293 8.405160823427448 1 2 1
3916 1 12.510523254460324 8.266502631349786 4.250214181604762 1 2 0
6696 1 15.238865171769396 10.720382175973263 4.178614573602013 1 0 1
1450 1 19.044489900606894 9.022793715097915 3.0889793068776004 2 1 1
3060 1 22.525798310931005 12.940009505350618 3.9341223324858596 -1 -1 1
1899 1 22.059248752257005 9.658550681157104 5.458490309154154 0 1 0
3041 1 24.442358330430118 8.60204459035184 6.813713352135869 0 1 1
1670 1 0.960153026789334 15.808916110044144 6.451314582436225 1 0 0
1982 1 4.170078684634179 14.796262232344233 7.218439705229493 0 2 1
1314 1 4.3520257516862735 12.125499328785171 6.30589211222929 2 0 1
2206 1 8.377181074458962 15.557134798510193 4.226637536084935 0 0 0
375 1 12.699719293286636 12.054453773584374 8.663981841929226 0 0 0
466 1 8.76986247450722 14.322436055716622 6.987340490071152 0 0 1
6549 1 11.599830008887716 14.372225907412606 7.047229570899982 2 1 0
1401 1 17.06046896515472 15.259777855535706 6.209308837650334 0 1 1
5024 1 17.934993878821622 11.690544961199459 4.357536462969579 0 -1 1
6613 1 20.915849264535478 13.2170930485136 6.156788473810096 -2 0 1
5194 1 21.71473343993933 16.42534310293892 9.823106484398803 1 0 1
6601 1 22.766165951800453 14.214548277284369 8.298872880992787 0 0 1
5349 1 11.753511482362757 18.008588686687194 16.239168576686634 1 0 0
5498 1 2.4491521593159273 17.348001184437692 4.139784563258313 3 0 0
145 1 6.408074971229552 16.7307632660148 5.729247506466773 0 1 0
502 1 6.45129101735133 19.051551262871104 4.736126892601212 0 0 1
6467 1 13.662167170685018 18.091531672097823 6.547932932183557 0 1 1
107 1 7.516683183517402 19.368731567464074 8.1446294382098 0 1 0
3023 1 12.091099406069413 19.798268328243903 7.66241904750779 0 1 1
136 1 14.812657200083736 17.157226915733414 8.833312411992226 -1 0 0
5237 1 17.371329139980606 16.85621548414037 8.424469126097115 1 0 0
3954 1 15.399307386489511 17.26005116305529 4.27600156204782 0 -1 1
6588 1 18.79882496203896 15.931966274485927 10.35147049450978 -1 0 1
1532 1 17.34280981898651 17.263522802967035 2.6812257844730367 0 -1 1
2220 1 16.474916247778342 12.588471848831919 17.383364869825797 1 0 0
6386 1 4.363780872842163 0.837971166114485 11.074270303984386 0 1 1
5421 1 2.649912984707594 19.672064659422666 5.863912437362559 1 -1 0
2264 1 5.161612240305759 22.26693490576574 3.530448913755788 0 0 1
1339 1 4.580157447276338 21.225065314183073 5.710303187230953 -1 -1 1
2194 1 11.071078912399065 21.565965789698478 5.572157674749773 0 1 0
3501 1 2.0014978887231014 18.521686300153288 1.32564221053768 1 1 0
22 1 9.234988982360045 23.466195191928392 6.679210595690589 1 1 1
296 1 2.2931717922309813 9.474189070664004 2.411098851655089 0 -1 0
5259 1 15.29914896670837 23.952259799318163 6.138607190892198 1 0 1
2055 1 20.351576163289298 17.76422862308003 4.922345176512458 1 0 0
2149 1 18.241135594793665 19.08369967031941 6.569919480911736 0 1 0
3621 1 19.58221766347563 21.790300958247872 5.711520157281321 1 -1 0
460 1 22.32318524899507 22.491708234409717 5.304507422338171 0 0 0
108 1 23.388439340769295 23.13171374859503 17.08240129022371 1 1 0
2176 1 21.778159843015978 8.775637098120631 2.2719073878922944 2 0 0
2077 1 2.370380946013592 1.8927473970539337 9.254152836902502 2 0 0
6638 1 2.970344823357439 4.966572003722323 8.530968969277788 0 1 1
2016 1 20.84104900436608 15.993831668143986 0.9230695573091972 0 1 0
1555 1 4.702068142398439 2.6868050063889877 7.029310539510535 0 0 1
1940 1 6.2161266057666635 2.7675543322567524 10.710949573548362 0 1 0
1589 1 11.007170787479016 1.3265484549961422 11.055691299343069 1 -1 0
215 1 12.786035664303569 22.598471607196384 18.535886212545456 1 0 0
3824 1 14.384987394206728 3.6810456342362503 8.756647519188673 0 2 0
3373 1 14.888630147817612 3.259799687725678 13.56878777211469 0 0 1
3387 1 15.702278973170742 1.601579260358933 9.848792808290586 0 0 1
291 1 18.492079401936174 4.9781035387038255 11.789812853312917 0 0 0
6364 1 21.01926570065473 1.0305907325598507 10.984690916214808 -2 1 1
3219 1 17.45830528866414 2.1041048087564715 12.317094840089458 0 1 0
5355 1 20.012132927479083 3.360139959923161 10.150620195214016 1 2 1
4743 1 19.34198473727782 16.142123302980714 16.388080659766036 0 -1 1
1613 1 0.9866661612889622 6.168237320003546 7.132025347872504 0 0 1
1585 1 5.343498362478084 5.163980702676716 11.668911686743636 1 0 1
1810 1 6.398721972403453 7.120317754666125 8.415869104631764 1 -1 0
3145 1 7.945570297258189 8.208339041180924 10.86936611613589 -1 1 0
3418 1 9.800222282829752 5.192545711048789 5.9756378681383895 2 -1 0
5575 1 9.808475458618945 5.302858988011433 12.322200329168265 0 1 1
6743 1 12.464214918490978 7.920197661993058 11.88512636362326 0 1 0
373 1 11.410585690795958 5.63947812609403 8.230483989062243 1 0 0
5033 1 12.238999366311928 4.030291253705643 10.694390166278831 -1 -1 0
3316 1 12.820691344890712 8.072048194903868 7.040280527090942 0 1 1
4911 1 18.545685962832057 9.589248362312793 7.686403520278841 1 -1 0
5603 1 15.798405025678703 6.014664914132706 10.671977546945355 2 2 1
2226 1 22.63941741257059 4.580139348781561 10.168267900388447 -1 1 1
194 1 7.119830798003285 6.511971234077561 2.255179750754935 1 0 0
3074 1 13.798616367668275 18.58435443066235 2.6857336032625647 0 0 1
1947 1 2.991208609777314 10.809431699342387 9.607987008016156 -1 1 0
1723 1 1.0696945444767652 12.76189369388943 9.73822933423998 0 1 1
2339 1 4.915943005364652 11.727533262303899 11.32109608996895 -1 0 1
1522 1 7.817571819482608 10.42343452000176 11.988129643535936 1 0 0
5546 1 10.40714159792123 7.198681498205795 10.162792198273157 2 0 1
6625 1 15.269450722608605 8.99581409102896 10.543159113339172 0 1 1
5524 1 15.743987631948652 8.31139998621859 7.805751520688567 2 1 0
5523 1 17.613981075245157 9.498151114491314 12.205345374053998 1 0 0
3469 1 20.26095181442251 8.318125737176324 9.623471987783121 1 1 0
3974 1 22.424927401866782 7.037911040483607 8.542112705090581 0 0 1
348 1 23.2115424012309 6.617953306293871 12.391604815104712 -1 -1 0
3266 1 2.0512353063468143 15.57805144079693 9.470417631461379 1 0 1
6359 1 9.409316545515741 14.203912691384742 10.80042135755266 1 -1 1
2340 1 5.9097325658701 13.82186251158909 9.394114667282393 0 0 1
1971 1 4.540725777895304 16.23811435437245 10.764898116104847 1 1 0
1483 1 13.988221033351566 14.43722577608151 9.076465091251084 0 1 1
3340 1 9.640044455692875 11.516271538986405 10.330973781466204 2 0 1
5530 1 12.6705574872072 10.698381517333836 11.418959476433663 1 0 0
1850 1 11.531590646253482 16.01678587193899 9.819071945826797 -1 0 0
1738 1 16.23789576272727 12.913847017226825 7.700934778381454 0 1 1
1587 1 19.632118790136776 10.978186272807795 6.170320707318725 0 0 1
1939 1 19.85823914264318 13.027541574496931 9.259222320363452 0 0 0
1974 1 23.925831346299827 12.569257169005075 10.057254498125479 0 1 0
3238 1 23.79709155780137 10.274241690532477 3.1523243027383008 -1 0 1
186 1 0.4879139849860638 21.383931368961527 5.114707005291364 0 0 0
4735 1 1.2722522877447502 20.40447739216398 8.5850780831709 -1 1 0
4950 1 7.892020583557343 16.03433343719861 9.129907858644968 0 1 1
3608 1 3.7150161592816526 20.997180642286107 9.613706404964661 1 -1 0
3270 1 5.708076762918538 18.728257752699392 10.046363560308182 -1 -1 0
3068 1 10.332561049564745 18.345757418778035 9.192460313270868 -1 0 1
5617 1 13.197819187113536 21.367157032965956 9.442206226906357 0 1 0
1489 1 12.782683597557103 17.920360038260487 12.193970748314225 0 0 1
2150 1 14.77289429047583 19.27189770426061 10.743159714384202 2 0 0
6605 1 10.000651436719396 19.4981588442 11.697338010837687 1 -2 1
3834 1 22.641724451998325 17.437423166586182 12.061989378044586 0 0 0
1814 1 22.149823332747914 19.06844690572517 8.400149544783474 1 2 0
1550 1 17.767747953171245 19.513611488909998 10.877738194043475 0 -1 1
1823 1 23.45941871385542 23.658499174177475 13.129173012140642 1 0 0
1635 1 23.67227853601435 21.139579553561497 9.272185963256735 1 0 0
410 1 7.562237681172159 21.905630718492546 8.55584607095174 0 -1 0
3378 1 4.9713256007904 22.850289157019876 7.946662318654072 0 0 1
3287 1 8.679612575628656 22.866766259217492 10.959801627883367 0 1 0
4918 1 19.772849453549856 22.2145936914354 8.743074525134169 1 1 1
5578 1 15.359191608370205 21.818184147912884 7.989805181200248 -1 1 1
2000 1 17.210509598057197 23.62264344049978 9.179015659184211 2 1 0
471 1 19.542968395562337 19.564975252967166 8.865630424481495 1 2 0
258 1 7.751354481451144 14.604298492641254 1.5618036334228096 0 1 0
6709 1 13.33862882257777 10.504243741439733 17.27710004888679 1 1 0
3773 1 22.712599349150867 23.171849105655838 7.806871549499627 2 0 0
6623 1 22.504543414810616 21.75834106243739 11.83040129083683 0 -1 1
416 1 2.06105147532406 2.723085719072335 13.7570360875418 0 1 0
3468 1 5.729951746423614 2.776358880250165 16.12552921722335 2 0 0
2193 1 8.021606000365473 4.0147518872546994 15.086675829213853 1 1 0
5079 1 4.8292033381631425 1.072696918445292 13.957412823384328 0 0 0
5599 1 8.454822375150508 2.710485208653078 12.225553310228495 1 1 0
1418 1 10.585008947079396 1.7113505482187183 16.246651385954937 1 0 1
5456 1 13.306858402644723 3.59327984494562 15.824095839936692 1 0 1
5680 1 24.525986407955443 21.850372463954663 14.998454562385787 0 0 1
3620 1 1.8382618877614014 8.441303087875012 17.87528836429995 1 1 0
5041 1 19.697615634968177 4.875124869095593 14.31254213659525 1 2 1
5482 1 23.858090777996686 20.39331160998757 4.750323717216717 1 1 0
415 1 5.406902838450612 22.627775501367953 17.601298177371007 2 1 1
5190 1 22.951010016011466 1.2350721447148048 13.257542689718084 0 1 1
3649 1 8.763313565724209 2.462025423243242 -0.34708933760134 2 0 0
3512 1 3.292879186042805 5.0497385608461505 13.693036766956915 1 1 1
3413 1 6.379639024870805 8.986740647123053 14.412301314471263 1 -1 0
6739 1 7.334326735223021 6.331028701855807 13.107746913215056 1 1 0
1371 1 4.700067354958435 5.281521955729157 16.186293332592633 -1 1 1
4736 1 11.243037222276135 4.950533772493499 15.017221289669411 0 0 1
3201 1 9.156106459517863 5.422754807701078 17.339625484463102 -1 0 1
3864 1 10.851528253782275 6.719119874840989 18.88541232460256 -1 1 0
3252 1 13.978891694006151 5.64019867343485 12.657874186409904 0 1 1
5241 1 19.524019972226927 7.743983143803111 11.991937020825029 0 1 1
3022 1 16.1183645660899 5.113452853713167 16.78426608740896 0 1 0
3134 1 19.399732648051728 7.563267612264555 15.723341924338214 0 0 1
1688 1 22.13622061614413 3.776372117804693 13.462632805599233 0 1 1
1998 1 21.650450764634527 8.15846027680889 14.017345212998052 0 -1 0
3776 1 2.3465490221907563 8.58839182070655 10.750086888834934 1 1 0
4836 1 3.383414266973238 9.40264694432037 13.950117792168275 2 1 1
382 1 3.940410751695141 12.245667831584582 13.790638286841906 1 1 0
30 1 8.334623500277607 11.11380351329547 14.742904084535041 1 1 0
5299 1 11.102274492253112 10.116630421070363 15.39548733151262 1 2 0
4981 1 15.20152143114207 6.805866580630696 15.066219000489617 1 0 1
6510 1 17.501746008810734 11.360594703923597 9.424600270935619 1 1 1
3251 1 16.60528477972375 11.954644725526396 12.875688553132884 0 0 0
6457 1 21.494161885815082 10.714041215883201 10.32044839552196 0 0 1
5527 1 23.35864694565911 8.65050195193664 16.089087746338226 2 1 0
4793 1 21.136675093243927 10.86574945584256 12.912444874015371 -1 1 1
6708 1 16.85430564090938 8.90591920693077 19.261439367413743 -2 -1 1
3480 1 1.9048638883801923 14.098566613411709 13.663178109146727 1 1 0
4727 1 2.0841865528362633 16.393589590365256 12.522807382978513 1 0 1
1333 1 4.992522455142555 12.925060987602818 16.95289060352963 -1 -1 1
6397 1 6.8015685768383705 14.89878978344178 12.225369614079284 1 0 1
1980 1 6.723293680206338 13.340565498897762 14.698702850425578 0 0 0
405 1 8.654661403137617 14.873543102675827 16.076987976184125 -1 -1 0
6602 1 14.451535369540874 15.41203088306213 12.556779929790773 1 1 1
3043 1 12.293253107639217 11.942713311231104 13.747797039575374 0 1 1
3185 1 16.273374717125687 14.318240253488984 10.850740038262774 0 0 1
1527 1 21.507222084079398 15.334064764397581 13.189650099914125 0 -1 1
3550 1 24.2064935825239 23.292190648489985 -0.38937846294218253 0 -1 0
3727 1 24.371808050623194 1.386411668848762 3.4362664099934097 1 0 0
562 1 23.329845446950426 12.310332215628035 13.62967945043625 1 0 0
3622 1 2.355943100701366 20.572008104089573 14.111630755950035 2 0 1
4764 1 3.6975520279533134 18.063682145950718 15.07281133789599 1 -1 1
1748 1 7.748201067109771 17.283224225861876 13.48682586591753 1 2 0
174 1 7.4773638636229665 19.97099363999417 12.125324495679166 0 -1 0
349 1 6.562274416590948 18.442686052216263 15.685402111082084 0 -1 0
5240 1 11.968378938133345 14.499533073076252 12.619994708487484 1 1 0
551 1 10.231660992866821 16.426596843414607 14.236569288172033 0 -1 1
1396 1 15.659017524318685 16.905339266647683 14.30532848593868 1 2 1
3914 1 13.648741823134326 19.078356162379826 14.594008177742285 1 -1 1
3097 1 15.2507547505738 22.120800694053585 16.407205858476274 0 1 1
5384 1 18.7457761118766 19.220449998033875 13.623225814332336 0 0 1
3027 1 18.669106709823794 16.577570850670636 13.700499903281923 1 1 1
388 1 23.874195696527334 8.898740205090945 10.704315490493082 1 0 0
1322 1 23.16397703318564 18.40251140631027 15.89721402906289 2 1 1
1831 1 21.708141216448965 19.633805505751194 13.234336853719558 0 0 0
4872 1 22.830226119986868 18.307597697169417 6.025524105443812 0 0 1
1986 1 6.216289416709428 2.357446451419233 0.4339620542252487 1 1 0
6590 1 4.127272384203525 21.933343215351393 12.147337504725957 1 -1 0
5618 1 6.409728909460058 21.69501787723677 13.429214297012727 0 0 0
5312 1 11.195248773482227 22.01275392601475 11.440347358471163 0 0 0
164 1 17.48431307796781 22.254600364995134 11.597573828412031 -1 0 0
3581 1 16.47344099199619 19.830664674004407 15.447614795502464 1 0 0
2268 1 13.135525192865869 21.744578383843912 14.136936742977545 1 1 0
1697 1 1.724272857833286 22.591327232069055 15.87929281628865 0 -1 1
1639 1 20.748898058262043 21.19224815389706 15.550106688160678 0 1 1
2124 1 0.4196258082962899 1.4272544623148142 11.589176877058879 1 2 0
2285 1 20.21913226725522 22.85061601605454 11.56380648067568 0 0 1
6470 1 0.8871335294782761 3.8608573971322184 18.197222209457742 0 -1 1
3053 1 2.1595274895202765 1.1543858185943403 18.945270100770852 0 2 1
257 1 6.665878422880597 1.0567038276154577 18.315067554689776 0 0 0
3101 1 15.327684867205036 23.37141748648216 13.225347542505554 0 0 1
3817 1 12.423427617757442 2.3154351301714837 7.4421675413595185 -1 0 0
5356 1 8.916263591255195 2.748748572687134 18.665689468084857 0 1 0
1341 1 17.59004027070774 1.1559813285224543 17.130382070675108 0 0 1
6541 1 13.080426366264854 4.925491211907348 18.63955556169508 0 1 1
2082 1 23.271904250838915 3.049083572031079 19.372559796773178 -1 1 0
3794 1 20.94740704854903 22.492469404023574 19.025416272553674 1 -1 0
5083 1 9.332955249719012 2.5051648218703546 5.433323354857159 1 0 0
2079 1 6.1555803563009945 16.705549186259525 0.6010681143333496 3 -1 0
21 1 21.76884370684816 5.259708056840346 19.349773729553462 -1 1 0
3564 1 2.8736527131764915 5.753042083216256 18.19086625781019 0 -1 1
1425 1 18.321673945876142 20.668657594148538 17.34838165101068 0 0 1
4875 1 12.498581511774823 9.109007777066862 19.336055654937212 0 0 1
1917 1 7.011481393928816 7.067388463004643 16.474458008826694 1 1 0
5481 1 9.583443935876996 19.659182554833645 17.030259328579152 0 -1 0
3057 1 20.24003157487904 1.7947349961964791 1.3913765321068885 1 2 1
2161 1 17.245095548812355 8.615274377305015 14.953333023111886 1 1 0
276 1 17.46102038542635 5.482568602916997 19.227860548209247 1 -1 0
1336 1 19.157002067235368 7.496319420347533 18.59271792777495 1 1 1
1698 1 23.332456816261008 6.290397729060501 17.32420948627459 -1 0 0
2292 1 23.72955302235729 4.490626288192221 15.618988889656318 -1 0 1
2074 1 6.973804678508721 24.283454217897088 19.090996477689703 0 0 0
3282 1 3.958184061110823 10.124032351881011 16.82810082397248 1 0 0
6694 1 1.8589706368900487 12.758546108225527 16.98477615889357 0 1 1
6418 1 6.26947235297882 9.246140451636915 18.157925638622356 1 0 1
1458 1 6.749679192525614 11.918372092580857 19.125252424144946 0 0 1
5608 1 11.384048232293225 21.768606568365925 16.531944056890975 2 1 0
5114 1 17.827684442585788 23.42505040591289 17.97724649175742 1 0 1
5564 1 11.525096987023117 7.853475917447352 14.318447364654196 0 -1 0
6534 1 10.02504696020406 12.833999800476256 16.954310899406817 0 1 1
1734 1 22.126499852751316 16.141813090082053 15.844343843281003 0 1 0
5476 1 15.83991866341642 10.067726109731735 17.063684832594188 2 0 0
495 1 17.69355570158756 3.2503729139672317 15.349236428134649 -1 0 1
3367 1 0.5081798930076424 3.8645789664305537 5.348689323557892 1 -1 1
3940 1 7.190617426095773 21.44059029909164 16.02416240511134 1 0 1
5674 1 16.487971281127173 14.91978169031524 1.0266271798847917 0 0 1
6682 1 23.723430807729795 16.156763877646423 0.29157863646844306 0 1 0
3237 1 2.300547477713952 15.532235687502974 16.202880658087448 0 0 0
1761 1 1.322892288164521 14.884090570627425 2.669578209417781 0 0 0
50 1 4.505075912208768 15.483398454130574 17.93132068230936 0 -1 0
6447 1 6.843714801521899 16.6139139178626 17.131015683266444 0 0 1
3925 1 12.772696332244301 16.108601835085224 18.02143123539388 1 0 1
3731 1 4.585900644214379 20.618399703113855 19.345401829174676 0 1 0
1979 1 12.53093552197456 13.510000110974723 17.16422350673457 2 1 0
3743 1 14.893464032827852 12.94232733457077 15.017007152985938 -1 1 0
5643 1 15.407715353926292 15.761323470971654 16.78661326742714 0 0 1
5166 1 19.296150118030887 13.079915958285069 13.656230899387337 1 1 0
3989 1 18.77715364491396 13.47558201752751 16.425602639730606 -1 -1 1
3846 1 22.44510076425437 10.963296133453056 17.73880455448551 -1 0 1
5619 1 1.0488394012308553 20.40871467308072 17.58808946883909 0 0 0
5597 1 3.505745347358247 18.43578630330069 18.163507466484866 0 -1 1
25 1 14.651512953018976 1.0401126280359034 -0.16913558839237663 -1 0 1
1840 1 9.195722056169483 0.813459949410788 14.185294125178764 0 1 1
1580 1 22.527711948287042 6.122250425940549 2.2081776754381925 0 -1 1
4757 1 22.96859466966634 5.752792727835375 -0.3027975099419926 0 -1 1
1538 1 1.5229971267880793 17.350832045759905 19.419774364015783 1 0 1
1687 1 19.829613387551912 12.704058021667345 18.9911784411384 0 1 1
135 1 20.70778392833167 18.43816891159432 19.28373641857617 1 -1 0
2306 1 1.3840110266209413 11.849084376349964 19.414255044027158 1 0 1
3371 1 7.621297635573615 22.074566496505305 -0.19528748624294878 -1 -1 1
4771 1 11.273445339330564 24.124640661728534 8.494172968475993 1 -1 1
3306 1 7.921176913051636 23.84605164711895 13.277121422152005 0 2 1
3094 1 0.4816517653875715 18.049892231043597 9.431245386861141 0 1 1
3275 1 0.5070666611626736 10.805297959044696 6.034025675250342 0 1 1
5038 1 0.5945864249008376 11.411689884779307 14.773972092833986 0 1 1
1735 1 24.13869996362314 13.474953922138948 -0.37644864791415106 1 0 0
2247 1 19.717502717462928 0.33935215138241054 4.156525222853598 0 1 1
329 1 17.282449031430488 0.89976235360315 4.706409279981856 0 1 0
313 1 14.063723977223363 24.135935766184637 10.791114330890421 0 0 0
2211 1 19.600876117188164 3.602677837284953 19.767567814292395 -1 1 0
60 1 2.121377491317695 6.042115453312078 -0.6605371958380601 0 2 0
3637 1 15.427246925939798 18.752558325057166 39.34485174115458 1 -1 -1
3574 1 24.533506857237782 22.89993708652745 36.559938733558255 0 -1 -1
2081 1 4.767680636123519 2.3174376514392976 23.4625409725186 0 1 0
3849 1 5.429453183439717 3.9028779444365846 21.038960003551374 1 0 0
6463 1 9.341276497335688 4.211325329155924 23.211080289596378 1 1 1
6490 1 11.726161872184734 3.2662902399966156 22.441939702608277 0 1 1
3407 1 0.7300977909064089 15.7036104176782 39.640645038313096 0 0 -1
206 1 14.45672991189633 2.4831045829469263 23.55847176345408 0 1 0
113 1 12.069922193057446 12.19019229064611 39.45844840633217 0 0 0
6658 1 4.9381697716482815 8.145221484476494 20.67862991023083 0 1 0
2257 1 23.442032667992613 11.35454096104013 21.11670774942089 1 1 0
3764 1 0.3276994809205957 7.023215871931698 23.090081462476086 1 0 0
5548 1 22.052939428555277 3.1729349821392927 23.599322633224777 1 1 0
3885 1 10.84991889123191 23.924632960922505 38.808357753515615 1 -1 0
3312 1 2.9928482990968353 6.453627586857817 24.168440020500547 1 1 1
3753 1 3.4449710070913806 5.880845940869775 21.004522444290792 0 1 0
6415 1 11.946308899904158 14.87830524469834 21.099501314273297 0 0 1
3214 1 7.984938207590247 4.632023882619255 20.726774783715086 2 1 1
5205 1 10.632987238914964 6.628511025118423 23.33279323242725 2 0 0
535 1 15.56601448287629 4.8834200704698665 23.256010610058247 0 -1 1
5369 1 14.686036894599445 8.090214265910944 20.966495250139275 0 2 0
6390 1 15.06521974770456 5.026383050358907 20.492126433682287 1 0 1
4937 1 24.162407079466707 13.748535825618639 23.961575551684316 0 0 0
6450 1 18.016744140391804 5.399675214214171 23.972621989360402 0 1 1
119 1 18.78364899766714 7.729503328656432 23.17468426808991 0 1 0
5569 1 15.226453703314823 22.17077635232765 39.35100335464675 1 0 -1
1549 1 11.244397925532425 0.3398983407027175 23.15274046933972 -1 1 1
3757 1 22.899181163047718 7.182133219456255 23.180592697899176 0 0 0
6585 1 2.5384218936800296 10.696598019641625 23.518764476964716 -1 0 1
5210 1 3.372315274648583 10.530627269331813 20.82910113296572 0 1 1
354 1 7.7528414433956 9.543917498540267 21.048066733410213 0 0 0
1963 1 6.945276613732095 9.9717501533599 23.625975017634747 -1 0 0
6738 1 9.549735266453762 9.158714100710908 24.193923516365967 0 1 0
5306 1 11.327897043482274 11.116851259745907 23.530588965335035 1 2 1
2341 1 10.758040042632702 10.642296279473332 20.92629534241783 0 1 1