LAMMPS data file via write_data, version 16 Mar 2018, timestep = 6000000

6337 atoms
2 atom types

0.0000000000000000e+00 4.9219999999999999e+01 xlo xhi
0.0000000000000000e+00 4.9019635930410494e+01 ylo yhi
2.0245795643416287e+00 5.8037420435659875e+01 zlo zhi

Masses

1 18.015
2 12.01

Atoms # atomic

282 1 1.3787468097258000e+00 2.7514032334978946e+00 5.4085642744588895e+00 1 0 0
5292 1 3.2588535261932234e+00 8.4338798804452086e-01 6.1502652197808994e+00 2 3 1
4572 1 1.1527476680002637e+00 2.8119191952187448e+00 2.6174257799875118e+00 0 2 0
3428 1 5.2500276900674336e+00 2.5592660030424632e+00 5.2823026908460520e+00 1 4 0
1514 1 7.2638408533423613e+00 6.7167190379907726e-01 6.0506824817561204e+00 -1 -1 1
4993 1 5.4589670538890980e+00 2.5867494754767772e+00 2.6764911528457955e+00 1 0 0
3706 1 4.0860513314825431e+00 6.5157412120787352e+00 2.2122665530811876e+00 2 1 1
3086 1 4.1784139688352759e+00 6.7948144105460884e+00 4.8818076866055851e+00 1 0 1
5041 1 2.0360503819728284e+00 5.4500090474358283e+00 6.0346433293269293e+00 -3 -1 0
1 1 8.1962816780521681e+00 5.7597906835452859e+00 5.1400165530885431e+00 -3 1 0
1774 1 5.7790303440632540e+00 4.9851574316756562e+00 6.3909644427325079e+00 0 -1 0
6150 1 8.1092451135576251e+00 5.8504949025551722e+00 2.4480966022183530e+00 -1 2 0
1960 1 8.7311145077836247e+00 8.3289266278673395e+00 5.9769209767906073e+00 0 -4 0
110 1 2.4789673298511232e+00 1.0503423443820807e+01 2.2426127381505507e+00 1 -3 0
1285 1 2.3605540893999142e+00 1.0679650656019012e+01 5.0061710187530384e+00 2 -1 1
2913 1 4.1558548820403081e+00 9.1499295467121495e+00 6.3345693405169783e+00 1 1 1
84 1 7.5389435296035474e+00 1.4433672744140132e+01 9.8150005587824776e+00 -1 1 1
4525 1 6.8179979712072374e+00 1.0015384876282566e+01 5.2101892250750925e+00 1 2 1
4675 1 7.1193086705011490e+00 1.0282040971217898e+01 2.1520027615526431e+00 1 0 1
1833 1 5.6636613971783978e-01 1.4600303047775689e+01 2.3561229141156743e+00 -1 0 0
3113 1 4.6134984979405802e-01 1.4543122428849975e+01 5.1153171420641188e+00 2 -1 0
1462 1 2.5745450798257949e+00 1.2917293803082957e+01 6.2070688614611855e+00 2 3 1
1428 1 7.1732746885523371e+00 1.1841648476187766e+01 8.7660403372248368e+00 -1 2 1
6092 1 7.1655808317267109e+00 1.2686615320241863e+01 6.0232039408686617e+00 2 1 1
3396 1 5.1946618368552979e+00 1.3814420808980204e+01 2.4795860130792984e+00 -1 -1 0
4800 1 4.9946943973093800e+00 1.4035863345662616e+01 5.2343394611268756e+00 1 1 1
3129 1 9.6577618353182260e+00 1.3404336535056650e+01 5.3217662649065991e+00 -2 -3 0
1435 1 2.8902250177618347e+00 1.0462900504767643e+00 8.8030270343050177e+00 0 4 1
3099 1 3.6410504773264352e+00 3.4724779871657732e+00 9.8703731323548993e+00 1 3 1
6073 1 2.0250416458267750e-02 9.7486212869783202e+00 6.2827214557169446e+00 0 -1 0
2052 1 7.3923744253965555e+00 6.5440214519436335e-01 8.7406320624675651e+00 2 0 0
240 1 8.1287724400278041e+00 2.7973018725157788e+00 1.0029076666043311e+01 1 1 0
3587 1 1.7873906123242973e+00 5.2554129663475120e+00 8.8634189913920522e+00 -1 0 0
453 1 1.7951821429177384e+00 7.8203234452296062e+00 9.9868125145955950e+00 -2 2 1
1244 1 6.1352892661725411e+00 4.4399574936644024e+00 9.0046398421523079e+00 0 2 0
3370 1 6.2567221098621184e+00 7.1065076350613472e+00 9.9022306339778972e+00 3 0 0
3624 1 4.2591401413718009e+00 8.3265468004156613e+00 8.7722209652006207e+00 1 1 0
4964 1 2.0928928298812288e-01 1.1894101136793791e+01 1.0187661296760448e+01 2 0 0
162 1 4.7436169305429239e+00 1.0842163404871428e+01 9.7392890570832584e+00 -1 -3 0
5287 1 2.7011972656021599e+00 1.2614829355573615e+01 8.9834296570564867e+00 0 0 1
4804 1 3.4912768525816475e+00 1.4974979838578587e+01 1.0049421025523241e+01 2 1 1
1275 1 8.5765979648995234e+00 8.0975729400948371e+00 8.7635718169899661e+00 1 1 1
4791 1 9.0130598007620613e+00 1.0596128825034326e+01 9.9250099696266005e+00 1 0 1
1889 1 9.7215464200160326e+00 1.3517842549517901e+01 2.5440931809186500e+00 3 -1 0
3687 1 9.7699308876199300e+00 1.8741241163879023e+00 5.3713410348516124e+00 -1 2 1
1461 1 2.8936613129226250e+00 1.0309185732343982e+00 1.3649612903846339e+01 -1 0 1
6125 1 3.3646180459351371e+00 3.6530191233793090e+00 1.2741155159825377e+01 3 0 1
4985 1 4.9908403850268765e+00 1.3634201724461374e+01 1.7132359161782428e+01 0 2 0
159 1 7.2703169548261002e+00 8.0008586710425555e-01 1.3269043547779557e+01 -1 1 1
4613 1 7.8997114596546183e+00 3.1736006362880347e+00 1.2859352601641019e+01 3 1 1
2089 1 1.2335134757766792e+00 5.1561580797350546e+00 1.3849944837698366e+01 0 1 1
487 1 1.7826825027603779e+00 7.7552336796880610e+00 1.2676579704537446e+01 2 3 0
2899 1 5.7752901543248134e+00 4.5585103670924507e+00 1.3801345469480310e+01 1 -1 1
3151 1 6.2418660662192629e+00 7.2131427266936337e+00 1.2749541803389663e+01 -1 0 1
1640 1 8.6554779216683553e+00 8.2517519588325250e+00 1.3747796747875434e+01 -4 3 1
481 1 4.1116607247576624e+00 8.6667244209529581e+00 1.3933437877236049e+01 1 2 1
1762 1 5.0227082826172520e+00 1.1020172114444385e+01 1.2462109535247038e+01 3 1 0
3554 1 2.7900692359232604e-01 1.1796753740028128e+01 1.2862967447183244e+01 2 0 0
3051 1 6.0246432255397995e+00 1.6213409799664625e+01 1.3759768834262955e+01 1 1 1
1601 1 7.2585313212498930e+00 1.1916308600844388e+01 1.3549862023995882e+01 0 0 0
423 1 9.3077200059482870e+00 1.9119856302633085e+00 1.7500818028244460e+01 0 1 0
3665 1 2.6883733233697611e+00 1.2905008442356534e+01 1.3676520797763276e+01 1 -1 1
2869 1 3.6234224309409577e+00 1.5548582697012582e+01 1.2851790748009831e+01 1 -2 1
1926 1 7.6637439164830967e+00 1.4320569517472787e+01 1.2403406885665479e+01 -1 0 0
3169 1 1.3173137888788475e+00 2.6286607942678879e+00 1.9912302591976783e+01 3 -2 1
1611 1 3.0058559828269247e+00 1.0821638761067796e+00 1.6430072546950107e+01 0 2 1
165 1 1.0496804319589157e+00 2.7384096056677230e+00 1.7222718723132278e+01 2 0 0
3305 1 5.8087742106210394e+00 1.7988648605196120e+00 1.9841799769171903e+01 -2 -1 0
4858 1 5.5324466411521733e+00 1.8014313728510103e+00 1.7276313457733202e+01 0 2 0
5159 1 7.5903009127688623e+00 4.7998364469670918e-01 1.6134436056601572e+01 -1 0 1
172 1 8.3458698812985102e+00 1.9576723895225794e+00 1.9984920620640249e+01 2 0 1
1734 1 1.6540116258678883e+00 5.4517047557422105e+00 1.6612512041373584e+01 1 1 0
3579 1 4.2173915490248248e+00 6.3882302376285525e+00 1.7511687942505915e+01 0 0 0
4847 1 3.9318783830611466e+00 6.1901622184570018e+00 2.0044154832187843e+01 1 0 0
2882 1 5.9087052903313912e+00 4.5381715786063577e+00 1.6572091309307304e+01 1 1 1
5322 1 8.4976955080396657e+00 5.6694313045815772e+00 1.7519548488697481e+01 3 2 0
3207 1 8.7602427992077896e+00 6.4573232402335909e+00 2.0243990814963407e+01 -2 1 0
3582 1 2.5014344838875555e+00 1.0150418146756277e+01 2.0085558042377809e+01 0 3 0
4610 1 4.5923746042724121e+00 8.8505022621336291e+00 1.6705185433892346e+01 0 0 1
412 1 2.4779869589839585e+00 1.0364909669933104e+01 1.7340735487009301e+01 0 0 0
214 1 7.2481737697603830e+00 1.2219269514615524e+01 1.6106331174785574e+01 0 0 0
4650 1 9.1001388619636288e+00 8.0006564711807702e+00 1.6370000653662544e+01 3 0 1
310 1 6.8187331610870920e+00 9.8416913652080513e+00 1.9985272287695139e+01 0 3 0
81 1 6.9736506316054747e+00 9.7535226737292255e+00 1.7201103396626738e+01 1 1 0
1440 1 8.3758382400703524e-01 1.4440536619934370e+01 2.0187922135058191e+01 -1 -1 1
3095 1 2.8116977624363999e+00 1.2729228128644076e+01 1.6277459383900599e+01 2 1 1
5074 1 9.1028303298049751e-01 1.4249988984228052e+01 1.7382044707740750e+01 2 0 0
1871 1 5.5757922156196082e+00 1.3571223653425049e+01 1.9892633169622581e+01 -1 -2 0
1845 1 9.4596323527419663e+00 1.0608199090005932e+01 1.2753603268548309e+01 2 1 0
4427 1 5.7676965138274383e+00 1.6123474024649862e+01 1.6633604360599435e+01 1 -2 1
6064 1 9.5778251591614101e+00 1.3018007068068904e+01 1.7380144968329212e+01 3 1 1
355 1 3.9479694197762732e-01 1.0186320176237018e-01 1.2944946513770942e+01 0 -1 0
3449 1 1.4598420392961486e-01 8.9740594970301988e+00 1.6454553409311920e+01 2 -1 0
6294 1 4.6529616398282485e+00 3.0853375138279944e+00 2.3216347181046881e+01 0 -1 1
3159 1 3.8723318280294476e+00 1.5695520474460162e+01 2.4169809197081776e+01 0 -2 1
3518 1 4.5752010899815483e+00 4.4582916559818225e-01 2.3662265893066660e+01 0 -1 0
5052 1 9.7637090354161096e+00 2.6286455347244506e+00 2.4172283774448438e+01 1 -2 0
4758 1 7.3586046906669078e-01 1.1652149356885344e+01 2.3772598662747352e+01 3 1 0
132 1 4.5295606228141899e-01 1.1854798292763068e+01 2.0996147137125845e+01 -2 -1 1
2961 1 2.6998852644499305e+00 4.8355494870952533e+00 2.4324577728879820e+01 -1 0 1
4504 1 3.1497818596265725e+00 7.4723666100830348e+00 2.4058594552843420e+01 -1 2 1
3062 1 1.9678143231848337e+00 7.5813335356124023e+00 2.1366082272105583e+01 -1 0 1
2849 1 7.2191031270421995e+00 4.1166934184713080e+00 2.3635614850925311e+01 2 2 1
3473 1 7.8449077228067328e+00 6.9802844174532419e+00 2.3854837471065199e+01 2 -1 0
2159 1 6.2845834281587107e+00 7.4670599752392466e+00 2.1262971153558503e+01 2 -1 1
677 2 4.9220000000000006e+00 1.2787731112280996e+01 2.6805393508494916e+01 0 0 0
200 1 9.2925005314110987e+00 1.0587696165557917e+01 2.1058016843562353e+01 0 -3 0
724 2 7.3829999999999991e+00 1.2787731112280996e+01 2.6805393508494916e+01 0 0 0
3314 1 5.5325907443349349e+00 8.4424383381928418e+00 2.3992136681102000e+01 0 -3 1
4825 1 5.6782680632669935e+00 1.1074916875169746e+01 2.3666741767459634e+01 -1 0 1
3089 1 9.3268003734337057e+00 4.1571094775319439e+00 2.1411997704634221e+01 -1 0 1
1863 1 4.7822585354445843e+00 1.1316927460488060e+01 2.1026441061740169e+01 4 0 0
679 2 6.1524999999999990e+00 1.3498160618518829e+01 2.6805393508494916e+01 0 0 0
5222 1 7.5186599684482291e-01 8.9617975710061160e+00 2.4307639167868562e+01 -2 1 0
1948 1 3.4809061088032438e+00 1.2844681255249823e+01 2.4422472257073352e+01 -1 1 0
5055 1 3.5158938726713096e+00 1.4871851396754215e+01 2.1311297612758761e+01 0 -1 0
541 1 7.9365191275970117e+00 1.4368507001385831e+01 2.1025374162995213e+01 3 1 1
3381 1 8.2543331236308131e+00 1.2664408671851490e+01 2.3849323663490381e+01 0 -3 0
1610 1 8.9228310897746166e+00 1.5322971249810431e+01 2.3924317167111695e+01 -1 -1 1
554 2 0.0000000000000000e+00 2.8417180249513345e+00 2.6805393508494916e+01 0 0 0
556 2 0.0000000000000000e+00 0.0000000000000000e+00 2.6805393508494916e+01 0 0 0
558 2 1.2305000000000001e+00 7.1042950623783474e-01 2.6805393508494916e+01 0 0 0
565 2 1.2305000000000001e+00 2.1312885187134998e+00 2.6805393508494916e+01 0 0 0
567 2 2.4610000000000003e+00 2.8417180249513345e+00 2.6805393508494916e+01 0 0 0
569 2 2.4610000000000003e+00 0.0000000000000000e+00 2.6805393508494916e+01 0 0 0
571 2 3.6915000000000004e+00 7.1042950623783474e-01 2.6805393508494916e+01 0 0 0
586 2 3.6914999999999996e+00 2.1312885187134998e+00 2.6805393508494916e+01 0 0 0
588 2 4.9220000000000006e+00 2.8417180249513332e+00 2.6805393508494916e+01 0 0 0
590 2 4.9220000000000006e+00 0.0000000000000000e+00 2.6805393508494916e+01 0 0 0
592 2 6.1524999999999999e+00 7.1042950623783407e-01 2.6805393508494916e+01 0 0 0
615 2 6.1524999999999999e+00 2.1312885187134989e+00 2.6805393508494916e+01 0 0 0
617 2 7.3829999999999991e+00 2.8417180249513345e+00 2.6805393508494916e+01 0 0 0
619 2 7.3829999999999991e+00 0.0000000000000000e+00 2.6805393508494916e+01 0 0 0
621 2 8.6134999999999984e+00 7.1042950623783407e-01 2.6805393508494916e+01 0 0 0
652 2 8.6134999999999984e+00 2.1312885187135002e+00 2.6805393508494916e+01 0 0 0
561 2 0.0000000000000000e+00 4.2625770374269996e+00 2.6805393508494916e+01 0 0 0
563 2 1.2305000000000001e+00 4.9730065436648339e+00 2.6805393508494916e+01 0 0 0
578 2 1.2305000000000001e+00 6.3938655561404980e+00 2.6805393508494916e+01 0 0 0
582 2 2.4610000000000003e+00 4.2625770374269996e+00 2.6805393508494916e+01 0 0 0
584 2 3.6914999999999996e+00 4.9730065436648339e+00 2.6805393508494916e+01 0 0 0
607 2 3.6914999999999996e+00 6.3938655561404980e+00 2.6805393508494916e+01 0 0 0
559 2 0.0000000000000000e+00 7.1042950623783341e+00 2.6805393508494916e+01 0 0 0
580 2 2.4610000000000003e+00 7.1042950623783341e+00 2.6805393508494916e+01 0 0 0
611 2 4.9220000000000006e+00 4.2625770374269978e+00 2.6805393508494916e+01 0 0 0
613 2 6.1524999999999999e+00 4.9730065436648339e+00 2.6805393508494916e+01 0 0 0
644 2 6.1524999999999999e+00 6.3938655561404980e+00 2.6805393508494916e+01 0 0 0
648 2 7.3829999999999991e+00 4.2625770374269996e+00 2.6805393508494916e+01 0 0 0
650 2 8.6135000000000002e+00 4.9730065436648339e+00 2.6805393508494916e+01 0 0 0
689 2 8.6135000000000002e+00 6.3938655561404980e+00 2.6805393508494916e+01 0 0 0
609 2 4.9220000000000006e+00 7.1042950623783341e+00 2.6805393508494916e+01 0 0 0
646 2 7.3830000000000009e+00 7.1042950623783341e+00 2.6805393508494916e+01 0 0 0
574 2 0.0000000000000000e+00 8.5251540748539991e+00 2.6805393508494916e+01 0 0 0
576 2 1.2305000000000001e+00 9.2355835810918343e+00 2.6805393508494916e+01 0 0 0
603 2 2.4610000000000003e+00 8.5251540748539991e+00 2.6805393508494916e+01 0 0 0
605 2 3.6915000000000004e+00 9.2355835810918343e+00 2.6805393508494916e+01 0 0 0
572 2 0.0000000000000000e+00 1.1366872099805333e+01 2.6805393508494916e+01 0 0 0
599 2 1.2305000000000001e+00 1.0656442593567498e+01 2.6805393508494916e+01 0 0 0
601 2 2.4610000000000003e+00 1.1366872099805333e+01 2.6805393508494916e+01 0 0 0
636 2 3.6914999999999996e+00 1.0656442593567499e+01 2.6805393508494916e+01 0 0 0
728 2 8.6134999999999984e+00 1.0656442593567498e+01 2.6805393508494916e+01 0 0 0
640 2 4.9220000000000006e+00 8.5251540748539991e+00 2.6805393508494916e+01 0 0 0
642 2 6.1524999999999999e+00 9.2355835810918343e+00 2.6805393508494916e+01 0 0 0
685 2 7.3830000000000009e+00 8.5251540748539991e+00 2.6805393508494916e+01 0 0 0
687 2 8.6134999999999984e+00 9.2355835810918343e+00 2.6805393508494916e+01 0 0 0
638 2 4.9220000000000006e+00 1.1366872099805333e+01 2.6805393508494916e+01 0 0 0
681 2 6.1524999999999999e+00 1.0656442593567499e+01 2.6805393508494916e+01 0 0 0
683 2 7.3829999999999991e+00 1.1366872099805333e+01 2.6805393508494916e+01 0 0 0
632 2 2.4610000000000003e+00 1.2787731112280996e+01 2.6805393508494916e+01 0 0 0
597 2 1.2305000000000001e+00 1.3498160618518829e+01 2.6805393508494916e+01 0 0 0
593 2 0.0000000000000000e+00 1.5629449137232333e+01 2.6805393508494916e+01 0 0 0
595 2 0.0000000000000000e+00 1.2787731112280996e+01 2.6805393508494916e+01 0 0 0
630 2 2.4610000000000003e+00 1.5629449137232328e+01 2.6805393508494916e+01 0 0 0
634 2 3.6915000000000004e+00 1.3498160618518829e+01 2.6805393508494916e+01 0 0 0
673 2 3.6915000000000004e+00 1.4919019630994494e+01 2.6805393508494916e+01 0 0 0
628 2 1.2305000000000001e+00 1.4919019630994494e+01 2.6805393508494916e+01 0 0 0
720 2 6.1524999999999990e+00 1.4919019630994494e+01 2.6805393508494916e+01 0 0 0
722 2 7.3829999999999991e+00 1.5629449137232333e+01 2.6805393508494916e+01 0 0 0
767 2 8.6135000000000002e+00 1.4919019630994494e+01 2.6805393508494916e+01 0 0 0
726 2 8.6135000000000002e+00 1.3498160618518835e+01 2.6805393508494916e+01 0 0 0
675 2 4.9220000000000006e+00 1.5629449137232333e+01 2.6805393508494916e+01 0 0 0
340 1 3.5561523701553854e-01 2.8177555054516795e-01 2.1090367319900249e+01 -2 -1 0
1752 1 1.1582271967504454e-01 5.6998117820854211e-01 2.3568813732072744e+01 -1 1 0
3115 1 1.3541061703092083e-01 3.5503114391219257e+00 2.3914054740209043e+01 -4 2 0
6093 1 9.4986032320613312e+00 5.0315039259423600e-02 2.4315258616860262e+01 3 2 0
4980 1 3.9649763593373657e+00 3.4952964276078178e+00 2.0786947540717595e+01 2 1 1
555 2 0.0000000000000000e+00 1.4208590124756650e+00 3.0031000000000795e+01 0 0 0
557 2 0.0000000000000000e+00 0.0000000000000000e+00 3.0031000000000795e+01 0 0 0
566 2 1.2305000000000001e+00 2.1312885187134998e+00 3.0031000000000795e+01 0 0 0
568 2 2.4610000000000003e+00 1.4208590124756650e+00 3.0031000000000795e+01 0 0 0
570 2 2.4610000000000003e+00 0.0000000000000000e+00 3.0031000000000795e+01 0 0 0
587 2 3.6914999999999996e+00 2.1312885187134998e+00 3.0031000000000795e+01 0 0 0
564 2 1.2305000000000001e+00 3.5521475311891644e+00 3.0031000000000795e+01 0 0 0
585 2 3.6914999999999996e+00 3.5521475311891644e+00 3.0031000000000795e+01 0 0 0
883 2 0.0000000000000000e+00 2.8417180249513345e+00 3.3256606491501998e+01 0 0 0
884 2 0.0000000000000000e+00 0.0000000000000000e+00 3.3256606491501998e+01 0 0 0
885 2 1.2305000000000001e+00 7.1042950623783474e-01 3.3256606491501998e+01 0 0 0
889 2 1.2305000000000001e+00 2.1312885187134998e+00 3.3256606491501998e+01 0 0 0
890 2 2.4610000000000003e+00 2.8417180249513345e+00 3.3256606491501998e+01 0 0 0
891 2 2.4610000000000003e+00 0.0000000000000000e+00 3.3256606491501998e+01 0 0 0
892 2 3.6915000000000004e+00 7.1042950623783474e-01 3.3256606491501998e+01 0 0 0
900 2 3.6914999999999996e+00 2.1312885187134998e+00 3.3256606491501998e+01 0 0 0
589 2 4.9220000000000006e+00 1.4208590124756650e+00 3.0031000000000795e+01 0 0 0
591 2 4.9220000000000006e+00 0.0000000000000000e+00 3.0031000000000795e+01 0 0 0
616 2 6.1524999999999999e+00 2.1312885187134989e+00 3.0031000000000795e+01 0 0 0
618 2 7.3829999999999991e+00 1.4208590124756659e+00 3.0031000000000795e+01 0 0 0
620 2 7.3829999999999991e+00 0.0000000000000000e+00 3.0031000000000795e+01 0 0 0
653 2 8.6134999999999984e+00 2.1312885187135002e+00 3.0031000000000795e+01 0 0 0
614 2 6.1524999999999999e+00 3.5521475311891644e+00 3.0031000000000795e+01 0 0 0
651 2 8.6134999999999984e+00 3.5521475311891657e+00 3.0031000000000795e+01 0 0 0
901 2 4.9220000000000006e+00 2.8417180249513332e+00 3.3256606491501998e+01 0 0 0
902 2 4.9220000000000006e+00 0.0000000000000000e+00 3.3256606491501998e+01 0 0 0
903 2 6.1524999999999999e+00 7.1042950623783407e-01 3.3256606491501998e+01 0 0 0
915 2 6.1524999999999999e+00 2.1312885187134989e+00 3.3256606491501998e+01 0 0 0
916 2 7.3829999999999991e+00 2.8417180249513345e+00 3.3256606491501998e+01 0 0 0
917 2 7.3829999999999991e+00 0.0000000000000000e+00 3.3256606491501998e+01 0 0 0
918 2 8.6134999999999984e+00 7.1042950623783407e-01 3.3256606491501998e+01 0 0 0
934 2 8.6134999999999984e+00 2.1312885187135002e+00 3.3256606491501998e+01 0 0 0
560 2 0.0000000000000000e+00 5.6834360499026637e+00 3.0031000000000795e+01 0 0 0
562 2 0.0000000000000000e+00 4.2625770374269996e+00 3.0031000000000795e+01 0 0 0
579 2 1.2305000000000001e+00 6.3938655561404980e+00 3.0031000000000795e+01 0 0 0
581 2 2.4610000000000003e+00 5.6834360499026637e+00 3.0031000000000795e+01 0 0 0
583 2 2.4610000000000003e+00 4.2625770374269996e+00 3.0031000000000795e+01 0 0 0
608 2 3.6914999999999996e+00 6.3938655561404980e+00 3.0031000000000795e+01 0 0 0
577 2 1.2305000000000001e+00 7.8147245686161639e+00 3.0031000000000795e+01 0 0 0
606 2 3.6914999999999996e+00 7.8147245686161639e+00 3.0031000000000795e+01 0 0 0
887 2 0.0000000000000000e+00 4.2625770374269996e+00 3.3256606491501998e+01 0 0 0
888 2 1.2305000000000001e+00 4.9730065436648339e+00 3.3256606491501998e+01 0 0 0
896 2 1.2305000000000001e+00 6.3938655561404980e+00 3.3256606491501998e+01 0 0 0
898 2 2.4610000000000003e+00 4.2625770374269996e+00 3.3256606491501998e+01 0 0 0
899 2 3.6914999999999996e+00 4.9730065436648339e+00 3.3256606491501998e+01 0 0 0
911 2 3.6914999999999996e+00 6.3938655561404980e+00 3.3256606491501998e+01 0 0 0
886 2 0.0000000000000000e+00 7.1042950623783341e+00 3.3256606491501998e+01 0 0 0
897 2 2.4610000000000003e+00 7.1042950623783341e+00 3.3256606491501998e+01 0 0 0
610 2 4.9220000000000006e+00 5.6834360499026637e+00 3.0031000000000795e+01 0 0 0
612 2 4.9220000000000006e+00 4.2625770374269978e+00 3.0031000000000795e+01 0 0 0
645 2 6.1524999999999999e+00 6.3938655561404980e+00 3.0031000000000795e+01 0 0 0
647 2 7.3829999999999991e+00 5.6834360499026637e+00 3.0031000000000795e+01 0 0 0
649 2 7.3829999999999991e+00 4.2625770374269996e+00 3.0031000000000795e+01 0 0 0
690 2 8.6135000000000002e+00 6.3938655561404980e+00 3.0031000000000795e+01 0 0 0
643 2 6.1524999999999999e+00 7.8147245686161639e+00 3.0031000000000795e+01 0 0 0
688 2 8.6135000000000002e+00 7.8147245686161639e+00 3.0031000000000795e+01 0 0 0
913 2 4.9220000000000006e+00 4.2625770374269978e+00 3.3256606491501998e+01 0 0 0
914 2 6.1524999999999999e+00 4.9730065436648339e+00 3.3256606491501998e+01 0 0 0
930 2 6.1524999999999999e+00 6.3938655561404980e+00 3.3256606491501998e+01 0 0 0
932 2 7.3829999999999991e+00 4.2625770374269996e+00 3.3256606491501998e+01 0 0 0
933 2 8.6135000000000002e+00 4.9730065436648339e+00 3.3256606491501998e+01 0 0 0
953 2 8.6135000000000002e+00 6.3938655561404980e+00 3.3256606491501998e+01 0 0 0
912 2 4.9220000000000006e+00 7.1042950623783341e+00 3.3256606491501998e+01 0 0 0
931 2 7.3830000000000009e+00 7.1042950623783341e+00 3.3256606491501998e+01 0 0 0
573 2 0.0000000000000000e+00 9.9460130873296642e+00 3.0031000000000795e+01 0 0 0
575 2 0.0000000000000000e+00 8.5251540748539991e+00 3.0031000000000795e+01 0 0 0
602 2 2.4610000000000003e+00 9.9460130873296642e+00 3.0031000000000795e+01 0 0 0
604 2 2.4610000000000003e+00 8.5251540748539991e+00 3.0031000000000795e+01 0 0 0
598 2 1.2305000000000001e+00 1.2077301606043163e+01 3.0031000000000795e+01 0 0 0
600 2 1.2305000000000001e+00 1.0656442593567498e+01 3.0031000000000795e+01 0 0 0
635 2 3.6914999999999996e+00 1.2077301606043163e+01 3.0031000000000795e+01 0 0 0
637 2 3.6914999999999996e+00 1.0656442593567499e+01 3.0031000000000795e+01 0 0 0
894 2 0.0000000000000000e+00 8.5251540748539991e+00 3.3256606491501998e+01 0 0 0
895 2 1.2305000000000001e+00 9.2355835810918343e+00 3.3256606491501998e+01 0 0 0
909 2 2.4610000000000003e+00 8.5251540748539991e+00 3.3256606491501998e+01 0 0 0
910 2 3.6915000000000004e+00 9.2355835810918343e+00 3.3256606491501998e+01 0 0 0
893 2 0.0000000000000000e+00 1.1366872099805333e+01 3.3256606491501998e+01 0 0 0
907 2 1.2305000000000001e+00 1.0656442593567498e+01 3.3256606491501998e+01 0 0 0
908 2 2.4610000000000003e+00 1.1366872099805333e+01 3.3256606491501998e+01 0 0 0
926 2 3.6914999999999996e+00 1.0656442593567499e+01 3.3256606491501998e+01 0 0 0
639 2 4.9220000000000006e+00 9.9460130873296642e+00 3.0031000000000795e+01 0 0 0
641 2 4.9220000000000006e+00 8.5251540748539991e+00 3.0031000000000795e+01 0 0 0
684 2 7.3830000000000009e+00 9.9460130873296642e+00 3.0031000000000795e+01 0 0 0
686 2 7.3830000000000009e+00 8.5251540748539991e+00 3.0031000000000795e+01 0 0 0
680 2 6.1524999999999999e+00 1.2077301606043163e+01 3.0031000000000795e+01 0 0 0
682 2 6.1524999999999999e+00 1.0656442593567499e+01 3.0031000000000795e+01 0 0 0
727 2 8.6135000000000002e+00 1.2077301606043163e+01 3.0031000000000795e+01 0 0 0
729 2 8.6134999999999984e+00 1.0656442593567498e+01 3.0031000000000795e+01 0 0 0
928 2 4.9220000000000006e+00 8.5251540748539991e+00 3.3256606491501998e+01 0 0 0
929 2 6.1524999999999999e+00 9.2355835810918343e+00 3.3256606491501998e+01 0 0 0
951 2 7.3830000000000009e+00 8.5251540748539991e+00 3.3256606491501998e+01 0 0 0
952 2 8.6134999999999984e+00 9.2355835810918343e+00 3.3256606491501998e+01 0 0 0
927 2 4.9220000000000006e+00 1.1366872099805333e+01 3.3256606491501998e+01 0 0 0
949 2 6.1524999999999999e+00 1.0656442593567499e+01 3.3256606491501998e+01 0 0 0
950 2 7.3829999999999991e+00 1.1366872099805333e+01 3.3256606491501998e+01 0 0 0
973 2 8.6134999999999984e+00 1.0656442593567498e+01 3.3256606491501998e+01 0 0 0
596 2 0.0000000000000000e+00 1.2787731112280996e+01 3.0031000000000795e+01 0 0 0
633 2 2.4610000000000003e+00 1.2787731112280996e+01 3.0031000000000795e+01 0 0 0
594 2 0.0000000000000000e+00 1.4208590124756663e+01 3.0031000000000795e+01 0 0 0
629 2 1.2305000000000001e+00 1.4919019630994494e+01 3.0031000000000795e+01 0 0 0
631 2 2.4610000000000003e+00 1.4208590124756663e+01 3.0031000000000795e+01 0 0 0
674 2 3.6915000000000004e+00 1.4919019630994494e+01 3.0031000000000795e+01 0 0 0
905 2 0.0000000000000000e+00 1.2787731112280996e+01 3.3256606491501998e+01 0 0 0
906 2 1.2305000000000001e+00 1.3498160618518829e+01 3.3256606491501998e+01 0 0 0
924 2 2.4610000000000003e+00 1.2787731112280996e+01 3.3256606491501998e+01 0 0 0
925 2 3.6915000000000004e+00 1.3498160618518829e+01 3.3256606491501998e+01 0 0 0
904 2 0.0000000000000000e+00 1.5629449137232333e+01 3.3256606491501998e+01 0 0 0
922 2 1.2305000000000001e+00 1.4919019630994494e+01 3.3256606491501998e+01 0 0 0
923 2 2.4610000000000003e+00 1.5629449137232328e+01 3.3256606491501998e+01 0 0 0
945 2 3.6915000000000004e+00 1.4919019630994494e+01 3.3256606491501998e+01 0 0 0
678 2 4.9220000000000006e+00 1.2787731112280996e+01 3.0031000000000795e+01 0 0 0
725 2 7.3829999999999991e+00 1.2787731112280996e+01 3.0031000000000795e+01 0 0 0
676 2 4.9220000000000006e+00 1.4208590124756663e+01 3.0031000000000795e+01 0 0 0
721 2 6.1524999999999990e+00 1.4919019630994494e+01 3.0031000000000795e+01 0 0 0
723 2 7.3830000000000009e+00 1.4208590124756663e+01 3.0031000000000795e+01 0 0 0
768 2 8.6135000000000002e+00 1.4919019630994494e+01 3.0031000000000795e+01 0 0 0
947 2 4.9220000000000006e+00 1.2787731112280996e+01 3.3256606491501998e+01 0 0 0
948 2 6.1524999999999990e+00 1.3498160618518829e+01 3.3256606491501998e+01 0 0 0
971 2 7.3829999999999991e+00 1.2787731112280996e+01 3.3256606491501998e+01 0 0 0
972 2 8.6135000000000002e+00 1.3498160618518835e+01 3.3256606491501998e+01 0 0 0
946 2 4.9220000000000006e+00 1.5629449137232333e+01 3.3256606491501998e+01 0 0 0
969 2 6.1524999999999990e+00 1.4919019630994494e+01 3.3256606491501998e+01 0 0 0
970 2 7.3829999999999991e+00 1.5629449137232333e+01 3.3256606491501998e+01 0 0 0
993 2 8.6135000000000002e+00 1.4919019630994494e+01 3.3256606491501998e+01 0 0 0
128 1 3.1007802864417595e+00 1.3761789530084163e+00 3.6577112103239507e+01 1 0 -1
6077 1 3.1268305417385811e-01 1.0061452074449191e+01 3.6520805060382202e+01 0 1 0
4948 1 9.5184621208836315e+00 1.0743614206940464e+01 3.5693725647550792e+01 0 0 -1
281 1 7.6453456199793939e+00 4.3822745784061878e-01 3.6499270392331681e+01 -1 0 0
5086 1 7.7833411756038613e+00 3.1758939217175475e+00 3.5684777735850808e+01 -1 -2 -1
4972 1 7.4068461258370286e+00 1.2566985413548162e+01 3.9061344008809620e+01 3 0 -1
6120 1 3.4312591756285804e+00 4.4833041891795178e+00 3.5942721388962823e+01 -1 1 -1
4486 1 1.5332687970430521e+00 6.1943733403263330e+00 3.6625217689968871e+01 1 2 0
3197 1 3.7528026544728936e+00 1.6041956166467539e+01 3.5672298203903821e+01 0 3 0
4516 1 6.1684749279891289e+00 5.3248811922949324e+00 3.6509196505503212e+01 1 -1 0
1309 1 6.5054684826889151e+00 7.6537532722963988e+00 3.5436752705497547e+01 1 2 0
6006 1 5.7729756350228578e-01 1.2663990974763035e+01 3.5934532336417973e+01 5 3 0
6337 1 3.1726710175216213e+00 1.3550052880915647e+01 3.6390973096459987e+01 -1 0 0
258 1 2.3000235429128084e+00 8.6000592383811245e+00 3.5546840339001086e+01 2 -1 -1
1250 1 4.7394420270259587e+00 9.7732885953061270e+00 3.6186595562598171e+01 3 2 0
95 1 5.4841927953238150e+00 1.2391616208128212e+01 3.5388217849483226e+01 0 1 -1
3004 1 7.8971902608726321e+00 1.2856539220807614e+01 3.6436161809433237e+01 -1 1 0
6209 1 7.9526866992696519e+00 1.5499000990192329e+01 3.5953310275181423e+01 0 -1 0
3114 1 9.3532136300075734e+00 7.9770344475748391e+00 3.6372872650068771e+01 2 2 -1
1988 1 7.8905139032866312e-01 5.9423331898540843e-01 3.5614823255658294e+01 -2 1 -1
2840 1 3.1179136795168336e+00 1.6292058913566072e+00 3.9335051640557417e+01 1 2 0
5137 1 1.7120864926413670e+00 5.8124028793517883e+00 3.9230995412147479e+01 -2 -3 -1
3017 1 9.2927731492582453e+00 8.3795557636831788e+00 3.8957244295375922e+01 1 1 -1
4529 1 7.5960753055456127e+00 7.9069234226844631e-01 3.9241651165661629e+01 3 -1 0
5232 1 6.3508384323672624e+00 4.9957447877280599e+00 3.9151016995810480e+01 -1 1 0
2876 1 4.7726384473544083e+00 9.6541037370995291e+00 3.8946549758111118e+01 -1 1 -1
4475 1 3.1885551031289601e+00 1.3454289670408322e+01 3.9221419272894749e+01 2 -3 0
1409 1 2.8504595881370920e-01 9.9080142916970999e+00 3.9134214673346953e+01 4 3 0
4936 1 3.3100689861485271e+00 4.1485626199836387e+00 4.2816754212791359e+01 0 0 -1
3153 1 3.7262417016017166e+00 4.0877024397436230e+00 4.0017017330162886e+01 0 1 0
1352 1 6.9755837003151716e-02 9.8892467521276579e+00 4.6581671424827078e+01 0 -1 0
5143 1 3.0285311537386645e+00 1.4716550344773487e+00 4.3941891165473621e+01 3 1 -1
3097 1 2.7846383026451371e+00 1.3477958317805859e+01 4.6199202091305416e+01 -1 -2 -1
1676 1 8.4209745116987698e+00 3.3198593421847860e+00 4.0417796751311563e+01 1 1 -1
1548 1 8.0840909952700564e+00 3.4184272736618819e+00 4.3171083396236298e+01 -1 0 0
530 1 7.4936607137208391e+00 7.3944931626905297e-01 4.3637725602709452e+01 0 2 -1
5172 1 1.7467937068995385e+00 5.7618781802185657e+00 4.3950877270756173e+01 2 4 0
311 1 2.4329436225995482e+00 8.3436659926196430e+00 4.0018492700423060e+01 0 0 -1
3054 1 2.3023401852637670e+00 8.2717952817637475e+00 4.2724079656477642e+01 4 -2 0
4824 1 6.8034720008887604e+00 7.4056433702109512e+00 4.2730122757368811e+01 2 -1 0
3071 1 6.6917500427208640e+00 7.6891558903265507e+00 3.9912493801765500e+01 1 1 0
5004 1 5.9535394640761803e+00 4.8976260802518414e+00 4.3651013975950519e+01 -1 1 0
5045 1 9.6961532133810806e+00 1.1478618281042950e+01 4.2690357649117615e+01 -1 -2 -1
6310 1 5.0024764723624369e+00 1.1925766878492167e+01 4.0204176403515987e+01 1 0 -1
1410 1 4.9415152685207131e+00 1.1591041029552168e+01 4.2914553719185150e+01 3 -2 0
3319 1 4.9611228166315868e+00 9.0676096026668649e+00 4.3616528956524512e+01 2 0 0
1675 1 7.5622040700824638e+00 1.2900405742542398e+01 4.6487963550252580e+01 1 -1 0
3337 1 9.8172179372561938e+00 1.3694315603082581e+01 4.7372434607488117e+01 1 0 -1
1483 1 9.1841743366687325e+00 8.9096606338102955e+00 4.3558311174849329e+01 -1 0 -1
2135 1 5.8971483493407884e-01 5.6327782064331611e-01 4.0243624800190602e+01 3 3 0
97 1 3.0329903882374216e+00 1.3529873756447776e+01 4.3543637988487497e+01 2 1 -1
5084 1 3.4689558899307937e+00 1.6320743140591400e+01 4.2884207924113696e+01 0 0 0
5011 1 5.3148125468629204e-01 1.2703737893024739e+01 4.2679197563494547e+01 1 1 -1
3445 1 6.6566975560001451e-01 1.2481936677181602e+01 3.9912889512080795e+01 -1 -2 -1