
# Create simulation box and atoms

read_data data.ML_graphite_m1000atm_245K
  orthogonal box = (0 0 2.62195) to (49.22 49.0196 57.4401)
  5 by 3 by 6 MPI processor grid
  reading atoms ...
  6337 atoms
  reading velocities ...
  6337 velocities
group water type 1
3577 atoms in group water
group graphite type 2
2760 atoms in group graphite

# Define potential

pair_style sw
pair_coeff * * MLC_e.sw mW C


# Fix graphite atoms in place

fix 5 graphite setforce 0.0 0.0 0.0
velocity graphite set 0.0 0.0 0.0


# Equilibration of molecular water

# Add velocity/set timestep

velocity	    water create ${TEMP} ${SEED} rot yes dist gaussian
velocity	    water create 248 ${SEED} rot yes dist gaussian
velocity	    water create 248 26317 rot yes dist gaussian
timestep	    5.0

# Define output

compute			1 water msd
compute			3 water temp
thermo	    	50
thermo_style	custom step temp press vol etotal ke pe c_1[4] c_3

# Neighbor lists

neigh_modify    delay 0 every 1 check yes

# Set fixes

fix             1 water momentum 10 linear 1 1 1 rescale
fix             2 water nve
fix             3 water temp/csvr ${TEMP} ${TEMP} 500.0 ${SEED}
fix             3 water temp/csvr 248 ${TEMP} 500.0 ${SEED}
fix             3 water temp/csvr 248 248 500.0 ${SEED}
fix             3 water temp/csvr 248 248 500.0 26317
fix             4 water press/berendsen z ${PRES} ${PRES} 1000.0 modulus 20000
fix             4 water press/berendsen z -1000 ${PRES} 1000.0 modulus 20000
fix             4 water press/berendsen z -1000 -1000 1000.0 modulus 20000

# Run 0.5 ns equilibration

dump		    1 all atom 2000 ${DIR}/eq.${NAME}-${TEMP}.dump
dump		    1 all atom 2000 run_9/eq.${NAME}-${TEMP}.dump
dump		    1 all atom 2000 run_9/eq.het_freeze_9-${TEMP}.dump
dump		    1 all atom 2000 run_9/eq.het_freeze_9-248.dump

reset_timestep  0

run	            100000
Neighbor list info ...
  update every 1 steps, delay 0 steps, check yes
  max neighbors/atom: 2000, page size: 100000
  master list distance cutoff = 6.67472
  ghost atom cutoff = 6.67472
  binsize = 3.33736, bins = 15 15 17
  1 neighbor lists, perpetual/occasional/extra = 1 0 0
  (1) pair sw, perpetual
      attributes: full, newton on
      pair build: full/bin/atomonly
      stencil: full/bin/3d
      bin: standard
Per MPI rank memory allocation (min/avg/max) = 4.07 | 4.222 | 4.502 Mbytes
Step Temp Press Volume TotEng KinEng PotEng c_1[4] c_3 
       0     139.9697   -1056.0851     132262.2   -34085.323    2643.5254   -36728.848            0          248 
      50    139.80241   -1161.6639    132406.55   -34136.963     2640.366   -36777.329   0.50650499     247.7036 
     100     137.1862   -1134.7054    132487.78    -34173.31    2590.9552   -36764.265    0.7971453    243.06817 
     150    140.45963   -1174.2939    132516.06   -34105.817    2652.7785   -36758.596   0.99516714    248.86807 
     200    139.61283   -1313.0711    132451.87   -34099.793    2636.7856   -36736.579    1.2184125    247.36771 
     250    141.18328   -1005.1737     132501.4   -34101.381    2666.4457   -36767.826    1.4151571    250.15025 
     300    141.28136   -1261.2953    132517.18   -34122.198    2668.2981   -36790.496    1.6053873    250.32403 
     350    141.08673   -1196.8641    132541.93   -34136.544    2664.6221   -36801.167    1.7100285    249.97917 
     400    139.11969   -1041.0439    132588.33   -34138.116    2627.4718   -36765.587    1.8008855    246.49394 
     450     142.6143   -1121.1717    132652.04   -34075.814    2693.4725   -36769.286    1.9592916    252.68574 
     500    140.90488   -1330.9971    132612.97   -34079.253    2661.1877   -36740.441    2.1389531    249.65697 
     550    138.75054   -1044.1897    132583.94   -34076.933    2620.4999   -36697.433    2.3244219    245.83988 
     600    139.31173   -1395.5064    132643.42   -34095.924    2631.0988   -36727.023    2.4788522    246.83421 
     650    143.12806   -1044.4205    132693.36   -34016.803    2703.1755   -36719.979    2.6230879    253.59602 
     700    139.79134   -1375.6717    132712.27   -34060.523     2640.157    -36700.68    2.7612298    247.68399 
     750    139.52983   -1128.0446    132678.38   -34047.799    2635.2179   -36683.017    2.9238664    247.22064 
     800    141.36189   -1227.9669    132748.99   -34029.536    2669.8189   -36699.355    3.1190917     250.4667 
     850     140.1655   -1223.7101     132765.1    -34088.35    2647.2235   -36735.574    3.2301851    248.34693 
     900    141.40549   -1042.9766    132843.09   -34062.217    2670.6423    -36732.86    3.2580103    250.54395 
     950    140.05664   -1184.6718    132942.29   -34097.306    2645.1676   -36742.473    3.3652094    248.15405 
    1000    136.51615    -1058.275    132991.62   -34148.879    2578.3003   -36727.179    3.5196421    241.88096 
    1050    142.60867   -1029.2279    133096.63   -34109.698    2693.3662   -36803.064    3.6878805    252.67577 
    1100     138.9079   -1163.5661    133111.27   -34150.703     2623.472   -36774.175    3.9009333     246.1187 
    1150    137.27728   -861.69513    133151.75    -34117.66    2592.6753   -36710.335    4.0115734    243.22954 
    1200    136.02432    -1270.685    133147.11    -34136.69    2569.0113   -36705.701    4.2271768    241.00953 
    1250    136.12921   -1279.4718    133110.86   -34154.255    2570.9924   -36725.247     4.327016    241.19538 
    1300    137.08856   -1055.4251    133136.28    -34162.76    2589.1111   -36751.871    4.4664393    242.89517 
    1350    137.50335   -1056.7866    133253.15    -34172.93    2596.9451   -36769.875    4.5575617     243.6301 
    1400    137.84004   -1223.5176    133275.09   -34147.052    2603.3038   -36750.356    4.6977955    244.22665 
    1450    138.83576   -1122.1606    133299.26   -34140.157    2622.1094   -36762.267    4.8263002    245.99087 
    1500    138.96178   -1179.7461    133254.63   -34101.637    2624.4894   -36726.126    4.9854782    246.21415 
    1550     139.6296   -1147.7417    133273.81   -34132.573    2637.1021   -36769.675     5.181211    247.39741 
    1600    137.18569   -1331.1663     133210.6   -34127.512    2590.9455   -36718.457    5.3274382    243.06726 
    1650    138.50836   -1312.8909    133165.41   -34137.095     2615.926   -36753.021    5.5145689    245.41079 
    1700    137.85316   -908.19117    133157.96    -34161.39    2603.5516   -36764.942    5.6303109    244.24989 
    1750    139.08835   -1101.2244    133101.21   -34101.789    2626.8799   -36728.669    5.8091566    246.43842 
    1800    141.04944   -974.87972    133093.21    -34085.19     2663.918   -36749.108    5.9239715    249.91311 
    1850     140.8463   -1180.3691    133195.18   -34080.328    2660.0814   -36740.409    6.0277144    249.55318 
    1900    141.05924   -1205.7687    133173.36   -34107.522     2664.103   -36771.625    6.0751021    249.93046 
    1950    138.36452   -1285.1736    133136.79   -34059.437    2613.2094   -36672.646    6.2170001    245.15593 
    2000    137.74229   -1206.5896    133110.71   -34084.877    2601.4578   -36686.335    6.2980541    244.05346 
    2050    139.02595   -1077.1481    133172.16   -34069.845    2625.7015   -36695.547    6.4146889    246.32787 
    2100    143.00283   -1256.0659    133226.54   -34082.111    2700.8104   -36782.922    6.4929887    253.37414 
    2150    140.91043   -1047.7757    133267.91   -34090.516    2661.2925   -36751.808    6.6073655     249.6668 
    2200    140.71192   -1406.0955    133261.45    -34127.63    2657.5433   -36785.174    6.7694696    249.31507 
    2250    138.82868   -1158.0033    133300.16   -34116.952    2621.9758   -36738.928    6.9003528    245.97834 
    2300    137.52691   -1259.9186    133243.69   -34124.533    2597.3899   -36721.923    7.0222731    243.67183 
    2350    140.14492   -1361.0126    133156.78   -34195.616    2646.8348   -36842.451    7.1701235    248.31047 
    2400    136.57539   -1058.2809    133093.78   -34149.582    2579.4191   -36729.001    7.3238113    241.98592 
    2450    138.51843   -1084.1877    133150.29    -34152.79    2616.1161   -36768.907    7.5092895    245.42862 
    2500    139.36788   -1010.1082    133307.37   -34108.471    2632.1593    -36740.63    7.6967196    246.93369 
    2550    140.72592   -1190.5712    133340.38   -34160.948    2657.8078   -36818.756    7.7774697    249.33989 
    2600    138.44021   -1306.4324    133400.55   -34156.017     2614.639   -36770.656    7.8111037    245.29004 
    2650    139.63317   -1284.2362    133381.42   -34071.369    2637.1697   -36708.538    8.0042234    247.40374 
    2700    143.00449   -1025.3933    133380.81   -34056.893    2700.8417   -36757.734    8.1053637    253.37707 
    2750    139.89081   -1277.3804    133452.26   -34061.304    2642.0356    -36703.34    8.2957556    247.86023 
    2800     138.5798   -1143.6975    133509.17   -34052.629    2617.2753   -36669.904    8.4160395    245.53737 
    2850    144.80783   -1212.8005    133545.43   -34040.059    2734.9005    -36774.96    8.5103427    256.57227 
    2900    140.46908   -1007.5014    133596.26   -34043.528    2652.9569   -36696.485    8.6340078    248.88481 
    2950    143.49939    -1399.355    133607.76   -34051.553    2710.1886   -36761.742    8.7415237    254.25394 
    3000    142.35971   -1275.4547    133593.41   -34065.561    2688.6642   -36754.225     8.964165    252.23465 
    3050    137.45875   -1233.8098    133622.38   -34107.333    2596.1027   -36703.435    9.1535063    243.55107 
    3100    141.32014   -1406.7873    133532.77   -34102.264    2669.0304   -36771.295    9.2520311    250.39273 
    3150    138.04862    -1273.859     133462.5   -34129.616    2607.2432   -36736.859    9.3934128    244.59622 
    3200    138.38734   -1124.8852    133448.63   -34153.883    2613.6404   -36767.524    9.4721213    245.19636 
    3250    141.75043   -1188.4024    133517.93    -34051.98     2677.157   -36729.137    9.6448605    251.15512 
    3300    143.26347   -1318.1218    133544.21   -34083.161     2705.733   -36788.894    9.9369982    253.83595 
    3350    141.07462   -1107.2453    133495.78   -34068.963    2664.3934   -36733.356    10.128999    249.95771 
    3400    140.17052   -1432.8707    133351.68   -34118.711    2647.3183    -36766.03    10.151434    248.35583 
    3450    140.76897   -1471.3748       133340   -34125.042    2658.6208   -36783.662    10.323097    249.41616 
    3500    139.46012   -1308.7193    133316.13   -34102.322    2633.9014   -36736.223    10.480197    247.09713 
    3550    138.50882   -1204.7858    133304.91   -34164.946    2615.9347    -36780.88    10.662471     245.4116 
    3600    139.63163   -1063.8902    133386.09   -34186.984    2637.1405   -36824.124    10.726501      247.401 
    3650    134.71991   -938.39823    133483.92   -34256.657    2544.3758   -36801.033    10.866114    238.69836 
    3700    138.38103   -1327.9586    133561.29   -34211.354    2613.5212   -36824.875    11.058827    245.18518 
    3750    138.14831   -1084.7414    133588.23   -34192.901     2609.126   -36802.027    11.174025    244.77285 
    3800    138.51177   -1150.4087    133751.74   -34217.725    2615.9903   -36833.715    11.384888    245.41682 
    3850    140.06009   -881.19674    133845.11   -34150.161    2645.2326   -36795.394    11.563915    248.16016 
    3900    140.24531   -1237.1174    133852.29   -34166.794    2648.7307   -36815.524     11.59927    248.48833 
    3950    137.74922    -1370.008    133796.27   -34174.047    2601.5886   -36775.636    11.764377    244.06573 
    4000     142.5181   -1148.9735    133811.56   -34155.453    2691.6556   -36847.109    11.820465    252.51529 
    4050    140.54704   -962.74655    133732.92   -34134.625    2654.4294   -36789.054    11.971675    249.02295 
    4100    139.37275   -1109.9163    133731.32   -34110.668    2632.2513    -36742.92    12.181054    246.94233 
    4150    140.83878    -1016.941    133688.82   -34074.976    2659.9393   -36734.916    12.315982    249.53985 
    4200    140.85399   -1272.6187    133652.33    -34076.99    2660.2266   -36737.216    12.467028     249.5668 
    4250     142.2758    -1104.235    133663.89   -34122.106    2687.0794   -36809.185    12.555971    252.08597 
    4300    140.97355   -1268.7326     133666.5   -34124.507    2662.4847   -36786.992    12.722549    249.77864 
    4350    142.06766   -1264.7934    133677.99   -34112.793    2683.1485   -36795.941    12.737277     251.7172 
    4400    138.37588   -1419.4736     133692.4   -34130.848     2613.424   -36744.272    12.838111    245.17606 
    4450    137.98184   -1198.8976    133606.54   -34104.403     2605.982   -36710.385    13.027142     244.4779 
    4500    143.19454   -1203.3991    133604.06   -34130.731    2704.4311   -36835.162    13.127545    253.71381 
    4550    139.90205   -1161.0558    133639.67    -34122.94    2642.2478   -36765.188    13.345742    247.88014 
    4600    138.31425   -1171.1759    133680.27   -34171.689    2612.2599   -36783.949    13.540306    245.06686 
    4650    138.62881   -1338.4997    133789.51   -34181.218    2618.2009   -36799.419    13.873604     245.6242 
    4700     138.7435   -1287.6817     133635.1   -34123.991     2620.367   -36744.358    14.020724    245.82741 
    4750    137.95098   -1183.1644    133589.49   -34109.925    2605.3991   -36715.324    14.154777    244.42321 
    4800    138.42605   -1638.4396    133495.63   -34144.326    2614.3716   -36758.698     14.35796    245.26496 
    4850    139.10656   -1378.6837    133472.41   -34171.474    2627.2238   -36798.698    14.465605    246.47068 
    4900    138.60893   -1404.2045    133412.18   -34111.213    2617.8255   -36729.038    14.599817    245.58898 
    4950    139.98714   -1368.2009    133345.59   -34084.868    2643.8548   -36728.723    14.647671     248.0309 
    5000    139.61866   -1318.3213    133295.07    -34064.26    2636.8956   -36701.155     14.84027    247.37802 
    5050    138.82557   -1312.8705    133345.12   -34125.438    2621.9169   -36747.355    14.888002    245.97282 
    5100    142.47817   -1299.0255    133294.52   -34153.264    2690.9016   -36844.166    15.019797    252.44455 
    5150    138.58826   -1298.8612    133332.42   -34097.012     2617.435   -36714.447    15.150211    245.55235 
    5200    138.63978   -1335.7602    133264.06   -34078.789    2618.4081   -36697.197    15.351535    245.64364 
    5250    139.59935   -1270.9417    133208.28   -34050.042    2636.5308   -36686.573    15.647613    247.34381 
    5300    137.71822   -1256.2588     133130.6   -33994.914    2601.0031   -36595.917    15.690239     244.0108 
    5350    140.49939   -1183.6839    133135.05   -34031.128    2653.5294   -36684.658    15.807806    248.93851 
    5400    139.23558   -1195.3311    133184.11   -34017.079    2629.6607    -36646.74    15.995527    246.69929 
    5450     140.0745   -1568.5096     133190.9   -34039.627    2645.5048   -36685.132    16.109117    248.18569 
    5500    140.08657   -1483.2024    133156.87   -34013.481    2645.7327   -36659.213    16.337551    248.20708 
    5550    138.43421   -1061.9733    133015.98   -34039.639    2614.5256   -36654.164    16.484394     245.2794 
    5600     140.8935   -1318.1589    132987.27   -34038.742    2660.9727   -36699.715    16.579637     249.6368 
    5650    141.42477   -899.01616     132964.8   -34067.255    2671.0065   -36738.262    16.705543    250.57811 
    5700    141.63277   -1190.2181    132994.42   -33987.314    2674.9349   -36662.249    16.820963    250.94665 
    5750    141.27645    -1132.515    132938.73    -34009.45    2668.2053   -36677.656    17.040769    250.31532 
    5800    139.17869   -1086.2962     133003.9   -34052.541    2628.5861   -36681.127    17.148233    246.59848 
    5850     139.7022   -1253.2696    133066.76   -34032.411    2638.4734   -36670.885    17.350711    247.52605 
    5900    136.20617   -1184.5429    132947.07   -34047.936    2572.4459   -36620.382    17.433284    241.33174 
    5950    138.66509   -1212.1393    132963.91   -34059.044    2618.8861    -36677.93    17.532104    245.68849 
    6000    136.27631   -1047.0473    133037.21   -34090.437    2573.7705   -36664.208    17.712746    241.45601 
    6050    139.82624   -1215.6706    133063.47    -34059.74     2640.816   -36700.556    17.976964    247.74581 
    6100    140.54608   -1184.9938    133107.07   -33988.645    2654.4112   -36643.057    18.174138    249.02124 
    6150     139.6093   -1251.4699    133074.41   -34002.151    2636.7189    -36638.87    18.343735    247.36145 
    6200    143.94717   -1011.2197    133128.61   -33942.478    2718.6456   -36661.124    18.418724    255.04733 
    6250    141.13809   -1313.3406    133207.04   -33960.519    2665.5922   -36626.111    18.663647    250.07017 
    6300    142.93682   -1159.6322     133336.2   -33944.708    2699.5638   -36644.272    18.752844    253.25719 
    6350    142.70561   -1395.5786    133406.18   -33978.163     2695.197    -36673.36     18.76141    252.84752 
    6400    142.15088   -1284.6723    133449.47   -34031.808    2684.7202   -36716.528     18.92073    251.86465 
    6450     138.6511   -1261.8196    133457.93   -34024.659    2618.6219   -36643.281    19.046264     245.6637 
    6500    140.02558      -1325.1    133462.86   -34039.822    2644.5808   -36684.403    19.046777    248.09901 
    6550    138.55105   -1101.7185    133487.61   -34063.654    2616.7324   -36680.387    19.237319    245.48643 
    6600    142.20439   -1230.4347    133552.27   -34079.631    2685.7307   -36765.361    19.339098    251.95945 
    6650    136.99264    -1406.029    133553.06   -34115.948    2587.2994   -36703.247    19.519976    242.72521 
    6700    138.24608   -1274.3191    133534.62   -34096.647    2610.9724   -36707.619    19.570209    244.94607 
    6750    137.63173   -1245.4518    133465.13   -34066.345    2599.3696   -36665.715    19.797046    243.85756 
    6800    141.53619   -1372.5554    133452.09   -33978.917    2673.1108   -36652.027    19.859828    250.77553 
    6850    143.35206    -1452.408    133445.18   -33950.841    2707.4061   -36658.248    20.096429    253.99291 
    6900    142.78754   -1272.7046     133508.2     -33965.8    2696.7443   -36662.544    20.338002    252.99268 
    6950    142.15043   -1379.9676    133483.89   -33983.213    2684.7117   -36667.925    20.359465    251.86385 
    7000    143.03606   -1209.7763    133428.81    -33972.54     2701.438   -36673.978    20.482341    253.43301 
    7050    140.76786   -1305.2331    133471.47   -34023.774    2658.5998   -36682.374    20.777967    249.41419 
    7100    141.66111   -1423.7125    133382.23   -34041.652    2675.4701   -36717.122    20.838504    250.99686 
    7150     138.5186   -1394.2925    133312.11   -34031.432    2616.1194   -36647.551    20.889781    245.42893 
    7200    139.95727   -1397.0337    133310.31   -34056.953    2643.2908   -36700.244    21.136575    247.97799 
    7250    139.83089   -1336.3275    133336.95    -34068.76    2640.9039   -36709.664    21.330556    247.75406 
    7300     141.6958   -1307.2397    133246.46   -34040.688    2676.1254   -36716.813    21.337046    251.05833 
    7350    139.61693    -1352.073    133176.07   -34013.548    2636.8629    -36650.41    21.510787    247.37496 
    7400    141.21028   -1283.2991    133216.82   -33996.928    2666.9556   -36663.883    21.888282    250.19808 
    7450    140.43859   -1457.0304    133231.65   -34068.427    2652.3812   -36720.809     22.03556     248.8308 
    7500    139.48065   -1116.1763    133177.39   -34020.505    2634.2891   -36654.794    22.050542     247.1335 
    7550    140.81873   -1281.3491    133137.57   -34045.342    2659.5606   -36704.903    22.234907    249.50432 
    7600    137.34633   -1339.9758    133053.41   -34095.989    2593.9794   -36689.968    22.469734    243.35189 
    7650    139.73784   -961.52409    133078.33   -34093.376    2639.1464   -36732.523    22.741715    247.58919 
    7700    139.92075   -960.09745     133058.2   -34113.029     2642.601    -36755.63    23.005778    247.91328 
    7750    137.98509    -1006.771    133080.47   -34101.318    2606.0434   -36707.361     23.09475    244.48366 
    7800     140.2277    -1205.579    133045.97   -34089.056    2648.3981   -36737.455     23.22157    248.45713 
    7850    139.20499   -1163.6899    133034.01   -34052.251    2629.0829   -36681.334    23.444765    246.64508 
    7900    139.80332   -1186.6448    132977.72   -34029.531    2640.3832   -36669.915    23.509588    247.70521 
    7950    139.12198   -1166.0114    132935.98   -34042.288    2627.5152   -36669.803    23.544044    246.49801 
    8000    139.73111   -1255.0811    132865.72   -34027.715    2639.0193   -36666.734    23.578825    247.57726 
    8050    136.27357   -930.90184     132819.3   -34083.034    2573.7189   -36656.753    23.806795    241.45116 
    8100    138.87736   -961.26114    132793.67   -34045.353    2622.8951   -36668.248    24.058425    246.06458 
    8150      139.693   -1032.9935    132807.44   -34011.267    2638.2996   -36649.567    24.368867    247.50974 
    8200    143.14957   -1182.0966    132799.86   -33980.166    2703.5819   -36683.748    24.350399    253.63415 
    8250    141.57316   -1177.9944    132807.26   -34020.334     2673.809   -36694.143    24.635541    250.84103 
    8300    139.96594   -1065.9189    132762.73   -33969.212    2643.4544   -36612.667    24.739789    247.99334 
    8350    141.29921   -1261.2189    132803.89   -33911.588    2668.6352   -36580.224    24.928806    250.35565 
    8400    143.78272   -1098.5486    132714.64   -33963.173    2715.5397   -36678.712    25.075548    254.75595 
    8450    140.22024   -1232.4851    132702.59   -34016.826    2648.2574   -36665.083    25.263178    248.44392 
    8500    142.92665   -1349.1305    132707.36   -33979.413    2699.3716   -36678.785    25.351256    253.23916 
    8550    141.25617   -1331.0568    132676.95    -33979.18    2667.8222   -36647.002    25.507771    250.27938 
    8600    140.00978   -1371.6702    132664.29   -34069.096    2644.2825   -36713.379    25.547639    248.07102 
    8650     138.9449   -1257.3554    132680.34   -34109.401    2624.1706   -36733.572    25.673955    246.18425 
    8700    143.28222   -1428.7229       132720   -34047.601    2706.0871   -36753.688    25.845761    253.86917 
    8750    142.81516    -1250.662    132722.68   -34048.174     2697.266    -36745.44    25.954495    253.04163 
    8800    138.06613   -1064.4716    132802.54   -34039.539    2607.5738   -36647.113    26.028396    244.62723 
    8850    140.87559   -1088.8209    132919.03   -34035.098    2660.6345   -36695.733     26.18492    249.60507 
    8900    140.30324   -1476.8457     132920.2   -34048.465    2649.8248    -36698.29    26.413479    248.59097 
    8950    141.35507   -1286.1434    132918.54   -34031.971    2669.6901   -36701.661    26.390747    250.45462 
    9000    140.14656   -1227.6739     132933.3   -34037.323    2646.8658   -36684.189    26.382695    248.31337 
    9050    139.25227   -1024.4824    132978.56   -34081.222    2629.9758   -36711.197    26.582944    246.72885 
    9100    139.31221   -1325.0525    133023.84   -34111.873    2631.1078   -36742.981     26.61067    246.83505 
    9150    136.75544   -1048.8199    133049.99   -34110.723    2582.8197   -36693.542    26.681283    242.30495 
    9200    137.86451   -1266.6727     133130.1   -34101.764     2603.766    -36705.53    26.658788       244.27 
    9250    138.17239   -1116.8209    133124.08   -34104.169    2609.5808    -36713.75    26.682278    244.81552 
    9300    139.62732   -1343.0875    133129.15   -34075.128    2637.0591   -36712.187    26.897973    247.39336 
    9350    138.06288   -1260.8492    133092.51   -34096.849    2607.5125   -36704.361      27.1307    244.62147 
    9400    138.82692   -1395.2246    133138.49   -34137.297    2621.9425    -36759.24    27.272879    245.97522 
    9450    140.48123   -1211.6046    133115.99   -34127.055    2653.1864   -36780.242    27.380862    248.90633 
    9500    141.53383   -1218.6329    133139.32   -34058.255    2673.0662   -36731.322    27.663129    250.77134 
    9550    141.28118   -1383.2851    133073.47   -34058.683    2668.2945   -36726.977    27.932943    250.32369 
    9600    139.25651        -1242    132998.37    -34040.44    2630.0558   -36670.496    28.050679    246.73636 
    9650    142.42447   -1129.9628    133049.01   -34046.728    2689.8873   -36736.615    28.202394     252.3494 
    9700    141.42429   -1234.2792    133003.26   -34042.073    2670.9975   -36713.071    28.406775    250.57726 
    9750    136.00903   -1173.2551    132941.27   -34070.383    2568.7226   -36639.105    28.450397    240.98244 
    9800    137.60176   -1095.3703    132984.66   -34084.803    2598.8037   -36683.607    28.470736    243.80447 
    9850    141.09328   -1320.2033    132999.59   -34078.836    2664.7459   -36743.582    28.733621    249.99078 
    9900    140.57726    -1166.448    132872.06   -34011.632    2655.0001   -36666.632    28.990177    249.07649 
    9950    137.61051   -1072.4453    132890.02   -34027.148    2598.9689   -36626.117    29.127875    243.81997 
   10000    140.62284   -1351.6086    132894.33   -34020.336     2655.861   -36676.197    29.125323    249.15725 
   10050    137.39509   -1342.7032    132827.67   -34020.671    2594.9004   -36615.571    29.235606    243.43828 
   10100    141.37024   -1315.9676    132847.81   -33989.367    2669.9766   -36659.344    29.550241     250.4815 
   10150    142.91775   -951.53047    132869.83   -33952.776    2699.2035   -36651.979    29.777124    253.22339 
   10200    139.96238   -1089.6441    132837.51   -34006.595    2643.3873   -36649.982    29.904909    247.98704 
   10250    141.51312   -995.25142    132837.23   -33999.646    2672.6752   -36672.321    30.032382    250.73466 
   10300    139.38211   -1342.9812    132776.92   -33989.048    2632.4281   -36621.476    30.131545    246.95891 
   10350    140.31383   -1020.7237    132685.55   -34001.931    2650.0249   -36651.955    30.237516    248.60975 
   10400    142.29702   -1281.3516    132753.71   -34000.143    2687.4802   -36687.623    30.477331    252.12358 
   10450    138.03214   -951.36184     132665.6   -33972.092    2606.9318   -36579.024    30.612807      244.567 
   10500    136.09836   -891.42459     132821.7   -34030.715    2570.4097   -36601.125    30.818216    241.14072 
   10550    138.19926   -1052.9455    132847.38   -34036.375    2610.0882   -36646.464    30.928576    244.86312 
   10600    137.81356   -1141.1096    132831.02   -34066.298    2602.8037   -36669.102    30.900781    244.17973 
   10650    137.88258   -1167.8685    132878.12    -34079.66    2604.1072   -36683.767    31.141836    244.30201 
   10700    137.55857   -1265.7083    132862.15   -34074.388    2597.9879   -36672.376    31.131148    243.72794 
   10750    138.40538   -1101.7407    132890.53   -34073.279    2613.9811    -36687.26    31.202397    245.22832 
   10800      138.404   -1438.6109    132853.11   -34040.269    2613.9551   -36654.224    31.376002    245.22589 
   10850    136.36264    -957.2961    132912.68   -34090.884    2575.4011   -36666.285    31.556221    241.60898 
   10900    140.04491   -1257.4127    132998.87   -34041.527     2644.946   -36686.473    31.723893    248.13327 
   10950    139.66707   -1106.6843    132956.58   -34061.629    2637.8099   -36699.439    31.892981     247.4638 
   11000    140.13196   -1224.4322    133029.45   -34050.367      2646.59   -36696.957    32.128121     248.2875 
   11050    141.73861   -1360.8903    133007.15   -34045.694    2676.9339   -36722.628    32.315677    251.13419 
   11100    142.56144   -1011.2901    133048.76    -34019.63    2692.4741   -36712.104    32.497893    252.59207 
   11150    139.86924   -1085.3943    133071.26   -34070.955    2641.6281   -36712.583    32.614033      247.822 
   11200    140.75732   -1303.0315    133094.92   -34055.993    2658.4008   -36714.394    32.744727    249.39552 
   11250    140.97603   -1374.8524    133090.66   -34068.193    2662.5315   -36730.725    33.131938    249.78304 
   11300    139.10163    -1062.068    133111.89   -34096.094    2627.1308   -36723.225    33.372482    246.46195 
   11350      137.698   -1072.2775    133084.92   -34139.713    2600.6213   -36740.335    33.746735    243.97499 
   11400    134.95786    -1267.368    133066.28   -34175.718    2548.8699   -36724.587    34.020573    239.11997 
   11450    136.52665   -1266.6505    132940.29   -34169.456    2578.4986   -36747.955    34.241135    241.89956 
   11500     141.2884   -1134.4987    132932.07   -34168.001    2668.4311   -36836.432     34.41409     250.3365 
   11550     135.1266   -1398.0638    132854.73   -34187.296    2552.0567   -36739.352     34.70166    239.41894 
   11600    136.59625   -1256.8337     132855.7   -34143.521    2579.8132   -36723.334    34.765321    242.02289 
   11650     140.2405   -1315.1039    132890.86    -34099.19    2648.6399    -36747.83    34.906566    248.47981 
   11700    140.72733   -1223.4179    132894.75   -34061.003    2657.8344   -36718.837    35.032762    249.34238 
   11750    136.52618   -1470.8063    132821.23   -34048.325    2578.4897   -36626.814    35.141693    241.89873 
   11800    138.67111   -1215.5988    132845.97   -34052.196    2618.9997   -36671.196    35.142976    245.69914 
   11850    139.97585   -1260.6769    132974.94   -34123.574    2643.6416   -36767.216    35.355544     248.0109 
   11900    137.73375   -1292.4775    133038.19   -34099.977    2601.2963   -36701.274    35.460649    244.03832 
   11950    135.80829   -1275.0756    133092.41   -34091.589    2564.9313   -36656.521    35.859827    240.62676 
   12000    141.65478   -1278.0879    133127.92   -34013.397    2675.3505   -36688.748    36.173216    250.98564 
   12050    138.39159   -1096.5104    133125.88   -34044.672    2613.7206   -36658.392    36.353231    245.20388 
   12100    139.60313   -1277.1663       133160   -34025.427    2636.6024   -36662.029     36.27936    247.35052 
   12150    141.57721   -1420.5075    133136.52   -33991.362    2673.8856   -36665.247    36.260304    250.84821 
   12200     141.0771   -1117.7998    133074.44   -33957.102    2664.4403   -36621.542    36.297856    249.96211 
   12250    141.95809    -1368.891    133027.85   -33986.526     2681.079   -36667.605    36.380423    251.52306 
   12300    138.65738   -1221.4882    132899.65   -34044.737    2618.7404   -36663.477    36.515011    245.67481 
   12350    140.55474   -1126.1299    132881.37   -34061.726    2654.5748     -36716.3    36.492076    249.03659 
   12400    139.76318   -891.33915    132951.59   -34033.925     2639.625    -36673.55    36.427911    247.63409 
   12450    139.37977    -1340.774    132905.93   -34039.825    2632.3838   -36672.209    36.466633    246.95475 
   12500    142.88913   -1116.8008    132921.47   -33975.169     2698.663   -36673.832     36.43472    253.17268 
   12550    141.22911   -1097.8112    132974.09   -33974.985    2667.3112   -36642.296    36.534446    250.23144 
   12600    142.41185   -1176.3343     132973.8   -33981.591    2689.6489    -36671.24    36.763303    252.32703 
   12650    142.51328   -1101.6974    132963.32   -33972.761    2691.5645   -36664.325    36.989323    252.50675 
   12700    142.23724   -1361.7557    132963.02   -33940.052    2686.3511   -36626.403    37.053647    252.01765 
   12750    140.92292   -985.93351    133025.37    -33922.36    2661.5284   -36583.889    37.170723    249.68894 
   12800    138.70256   -1247.1979    133025.67    -33937.82    2619.5937   -36557.414    37.373698    245.75486 
   12850    140.99247   -1427.1932    132978.11   -33941.098     2662.842    -36603.94    37.508703    249.81216 
   12900    142.92812   -1120.8962    132979.28   -33921.405    2699.3995   -36620.805    37.864615    253.24178 
   12950    141.98576   -1202.8872    132919.62   -33938.119    2681.6017    -36619.72    38.200275    251.57209 
   13000    142.93925   -1214.5803    132923.93   -33937.492    2699.6097   -36637.101    38.368488     253.2615 
   13050    139.90972   -1134.1621    132882.57   -33939.271    2642.3927   -36581.663    38.654877    247.89373 
   13100    140.51077   -1174.5677    132811.52   -33946.083    2653.7443   -36599.827    38.828053    248.95867 
   13150    145.69597   -1200.1833    132849.38   -33874.574    2751.6741   -36626.248    38.956465    258.14587 
   13200    141.06817   -1438.9589    132809.78   -33924.634    2664.2716   -36588.905    39.082454    249.94628 
   13250    141.32667   -1210.5628    132692.38   -33950.048    2669.1537   -36619.201    39.256404     250.4043 
   13300    141.02383   -1106.7969     132720.6   -33947.667    2663.4342   -36611.101      39.2037    249.86773 
   13350    140.55213   -1255.0827    132602.27   -33971.864    2654.5254   -36626.389    39.386729    249.03195 
   13400    145.15532   -1378.7928    132564.18   -33941.085    2741.4633   -36682.549     39.61392    257.18796 
   13450    140.97504   -916.75931    132593.02   -33958.032    2662.5128   -36620.545    39.811469    249.78129 
   13500    140.62476   -1102.1967    132623.74   -33980.766    2655.8972   -36636.664    39.869738    249.16064 
   13550    137.73675   -1325.5014    132601.97    -34013.13    2601.3531   -36614.483    40.167909    244.04364 
   13600    140.85934   -1161.4791    132579.79   -34007.136    2660.3277   -36667.464    40.384526    249.57629 
   13650    142.14385   -1353.2259    132630.84   -34041.461    2684.5875   -36726.048    40.595239     251.8522 
   13700    140.62092   -1002.2034    132644.32   -33999.562    2655.8248   -36655.387     40.71363    249.15385 
   13750    138.37185   -1227.7726     132632.1   -34001.121    2613.3479   -36614.469    41.092587    245.16892 
   13800    139.14446   -1137.0923    132526.07   -33993.723    2627.9398   -36621.662    41.440012    246.53784 
   13850    138.26304    -1246.261    132587.04    -33985.75    2611.2929   -36597.043    41.471719    244.97613 
   13900    144.04206   -1266.4697    132560.36   -33933.616    2720.4377   -36654.054    41.726843    255.21545 
   13950    139.85026   -1228.7708    132515.24   -33998.685    2641.2697   -36639.955    41.874811    247.78838 
   14000    138.74483   -1408.8886    132588.96   -33992.748     2620.392    -36613.14    42.132632    245.82976 
   14050    141.00403   -1293.3985    132509.82   -33983.483    2663.0603   -36646.543    42.404027    249.83264 
   14100    138.60146   -1198.9519    132388.83   -34027.657    2617.6843   -36645.341    42.585816    245.57574 
   14150    139.67905   -1329.6643    132334.98   -34053.575    2638.0361   -36691.611    42.580151    247.48503 
   14200    142.31804   -1086.6813    132318.08   -34016.221    2687.8772   -36704.098    42.727154    252.16083 
   14250    141.55928   -954.11793    132385.85   -34011.859    2673.5469   -36685.406    42.767795    250.81643 
   14300    139.08031   -1102.4308    132387.71    -34021.85    2626.7281   -36648.578    42.928839    246.42417 
   14350    139.04026   -984.20973    132356.93   -34015.019    2625.9717   -36640.991    43.068534    246.35322 
   14400    138.69775   -1256.1829    132375.77   -34045.053     2619.503   -36664.556    43.086463    245.74636 
   14450    138.38733   -1025.1799    132351.96   -34031.631    2613.6402   -36645.271     43.06622    245.19634 
   14500    140.28252     -1076.91    132327.81   -34038.793    2649.4335   -36688.227    43.176788    248.55426 
   14550    137.20488   -981.74702    132353.68   -34069.364     2591.308   -36660.672    43.260458    243.10127 
   14600      137.098   -1275.4781    132358.36   -34093.855    2589.2893   -36683.145    43.300211    242.91188 
   14650    134.74804   -1414.3591    132331.04   -34062.837     2544.907   -36607.744    43.410349     238.7482 
   14700    139.21638   -1213.3079    132312.59     -34081.4     2629.298   -36710.698    43.674085    246.66527 
   14750    138.08279   -1148.6192    132262.75   -34037.751    2607.8886   -36645.639    43.702261    244.65676 
   14800    138.93642   -1416.5397    132321.71   -34058.275    2624.0106   -36682.286    43.852508    246.16923 
   14850    140.01662   -1209.2022    132336.64   -34054.778    2644.4116    -36699.19    44.048263    248.08314 
   14900    132.67629   -1155.2372    132412.04   -34133.204    2505.7791   -36638.983    44.152986    235.07745 
   14950    137.10491   -1237.9857    132436.24    -34097.57    2589.4199    -36686.99    44.317592    242.92414 
   15000    142.46707   -858.16323    132434.54   -34026.546    2690.6919   -36717.238    44.276307    252.42488 
   15050    138.73229   -1365.9569     132510.1     -34100.4    2620.1552   -36720.556     44.51304    245.80755 
   15100    136.06362   -1153.4145    132580.92   -34138.559    2569.7536   -36708.313    44.610648    241.07916 
   15150    138.28799   -1261.1303    132610.75   -34150.906    2611.7639    -36762.67    44.816095    245.02032 
   15200    137.79534   -1321.8195    132539.74   -34146.486    2602.4596   -36748.946    45.051356    244.14745 
   15250    139.14696   -1061.9574    132547.44   -34128.535    2627.9869   -36756.521    45.069296    246.54227 
   15300    139.64503   -1052.1079    132539.12    -34079.72    2637.3936   -36717.114    45.126316    247.42475 
   15350    140.62021   -1182.9972    132561.92   -34067.358    2655.8112   -36723.169    45.379789    249.15258 
   15400    139.37498   -1106.6835    132486.06   -34108.491    2632.2934   -36740.785     45.51981    246.94628 
   15450    137.72702   -1105.3063    132483.78   -34155.368    2601.1694   -36756.538    45.701697    244.02641 
   15500    139.37815   -1196.5849    132536.18   -34143.888    2632.3533   -36776.241    46.113831     246.9519 
   15550     137.1355   -1068.4222    132600.82   -34184.937    2589.9977   -36774.934    46.438156    242.97834 
   15600    137.28783   -1255.0067    132517.38    -34209.45    2592.8746   -36802.325    46.491835    243.24823 
   15650    135.94841   -1218.9098    132377.68   -34205.978    2567.5777   -36773.556    46.509052    240.87503 
   15700    138.66394   -950.67494    132346.02   -34146.875    2618.8643   -36765.739    46.695583    245.68644 
   15750    142.27761   -951.88827    132412.77   -34116.491    2687.1136   -36803.605    46.730859    252.08919 
   15800    141.68612   -1018.2297    132461.04   -34124.487    2675.9425    -36800.43    47.104172    251.04118 
   15850    137.66079    -951.2281    132529.33   -34167.363    2599.9184   -36767.282    47.209373    243.90905 
   15900    139.47298   -1211.1847    132555.46    -34182.35    2634.1442   -36816.494    47.344958     247.1199 
   15950    138.65132   -1070.8361    132558.94   -34156.257    2618.6261   -36774.883    47.461664    245.66409 
   16000    136.39744    -969.5161    132586.72   -34184.111    2576.0583   -36760.169    47.883269    241.67063 
   16050     141.6206   -1030.2073    132627.82    -34148.69     2674.705   -36823.395    48.144837    250.92508 
   16100    137.05558   -1122.7224    132575.77   -34148.689    2588.4882   -36737.177    48.328758    242.83673 
   16150    136.72637   -1299.1521    132567.33     -34141.1    2582.2707   -36723.371    48.519664    242.25344 
   16200    138.51664   -1258.8252    132401.73   -34172.228    2616.0824   -36788.311    48.489994    245.42546 
   16250    141.29368   -1109.2207    132412.66   -34147.832    2668.5307   -36816.362    48.840968    250.34585 
   16300    137.58676   -1116.9107    132476.11   -34188.351    2598.5203   -36786.871     49.11711    243.77789 
   16350    136.32788   -1009.7418    132525.13   -34157.916    2574.7446    -36732.66    49.576587    241.54739 
   16400    137.58618   -1228.2732    132604.83   -34104.502    2598.5093   -36703.011    50.018715    243.77685 
   16450    138.01582   -1084.9989    132626.64   -34131.591    2606.6236   -36738.215    50.145126    244.53809 
   16500     137.6455   -964.80495    132653.33   -34139.093    2599.6297   -36738.722    50.512267    243.88196 
   16550    135.23414   -1268.2593    132642.43   -34154.043    2554.0878   -36708.131    50.888267    239.60949 
   16600    137.20688   -1158.0671    132620.25   -34116.691    2591.3457   -36708.037    51.231382     243.1048 
   16650    138.29299     -1260.79    132606.04   -34078.603    2611.8585   -36690.461    51.226807     245.0292 
   16700    138.61962   -996.47201    132627.94    -34081.67    2618.0273   -36699.697    51.318432    245.60792 
   16750    141.46483   -1178.8109     132732.5   -34036.503    2671.7631   -36708.266    51.399095     250.6491 
   16800    141.79998   -1150.9854     132745.6   -33971.125     2678.093   -36649.218    51.309539    251.24292 
   16850    142.45484    -1205.219    132806.39   -33980.514    2690.4608   -36670.975    51.297299     252.4032 
   16900    143.34538   -1183.9554    132949.98   -33919.855      2707.28   -36627.135    51.102106    253.98108 
   16950    143.84235   -1001.9502    132974.61   -33872.342     2716.666   -36589.008    51.129274    254.86162 
   17000    144.29866   -1248.8275    132928.53   -33907.632    2725.2839   -36632.916    51.226855     255.6701 
   17050    143.62579   -1158.6634     132974.3   -33929.678     2712.576   -36642.254    51.276818    254.47792 
   17100    139.70278   -1602.2115    132827.06    -34007.18    2638.4843   -36645.664    51.285702    247.52707 
   17150    139.76935   -980.16589    132817.32   -33990.359    2639.7415   -36630.101    51.287787    247.64501 
   17200    142.25409   -955.20548    132927.89   -34004.623    2686.6695   -36691.293    51.250133    252.04752 
   17250    140.19743   -998.13828    132994.75   -34020.656    2647.8264   -36668.482    51.423634    248.40349 
   17300    141.02662    -1075.911    133047.06   -34001.383    2663.4869    -36664.87    51.533847    249.87266 
   17350    142.14374   -1039.9167    133031.97    -34019.94    2684.5852   -36704.526    51.700726    251.85199 
   17400    140.13107   -1040.2806    133016.08   -34041.641    2646.5732   -36688.214    51.700178    248.28593 
   17450    136.73824   -1064.2712    133001.83   -34044.366    2582.4948   -36626.861    51.873692    242.27447 
   17500    144.92955   -1031.3347    133054.31   -34019.722    2737.1993   -36756.922    51.878222    256.78793 
   17550    140.33023   -1009.7341    133044.59   -34020.445    2650.3347    -36670.78    51.926332     248.6388 
   17600    144.46147   -1117.7687    133047.16    -33996.44    2728.3589   -36724.799    51.889614    255.95858 
   17650    141.04191   -1216.8141    133033.94   -34002.854    2663.7757    -36666.63    51.980957    249.89976 
   17700    138.97924   -968.81581    133042.72   -34039.434    2624.8193   -36664.253    52.067379     246.2451 
   17750    141.27479   -1324.0443    132967.17   -34064.646    2668.1739    -36732.82    52.300621    250.31238 
   17800    143.26812   -1108.2458    132915.39   -34091.337    2705.8207   -36797.158     52.57456    253.84418 
   17850    139.41557   -1348.4329    132969.62   -34141.722      2633.06   -36774.782    52.720718    247.01819 
   17900    136.77863   -1084.2854    132996.99   -34097.036    2583.2576   -36680.294    52.983179    242.34603 
   17950    139.29787   -1218.6116    133071.95   -34163.006    2630.8371   -36793.843    53.116897    246.80966 
   18000    139.31405   -1357.3565    133035.89   -34207.894    2631.1427   -36839.036    53.238705    246.83833 
   18050    137.54497   -1210.7132    133015.43   -34157.303    2597.7311   -36755.034    53.263777    243.70384 
   18100    138.70031   -985.43744    133042.85   -34117.262    2619.5513   -36736.813    53.642069    245.75089 
   18150      143.256   -965.62786    133150.36     -34055.9     2705.592   -36761.492    53.781322    253.82272 
   18200    138.45515    -1207.351    133329.65    -34071.47    2614.9211   -36686.391    53.877089    245.31651 
   18250    140.07647   -1347.1398    133281.47   -34086.232     2645.542   -36731.774    54.017847    248.18918 
   18300    140.98461   -1285.1485    133230.25   -34062.876    2662.6935    -36725.57    54.257026    249.79824 
   18350    140.66441    -1226.277    133275.15   -34035.391    2656.6461   -36692.037    54.406783     249.2309 
   18400    141.77183   -1369.5312    133172.41   -34022.874    2677.5612   -36700.435    54.453689    251.19303 
   18450    143.24452   -1357.6946    133114.52   -34012.887    2705.3751   -36718.262    54.718822    253.80237 
   18500    138.76743   -1120.1461     133076.6   -34037.481    2620.8189     -36658.3    54.738608     245.8698 
   18550    135.61926   -1265.8011    133038.93   -34042.517    2561.3612   -36603.878    54.896266    240.29184 
   18600     139.7625   -1128.3023    133001.08   -34084.398    2639.6122    -36724.01    54.823235    247.63288 
   18650    139.42021    -1017.785    133044.08   -34091.033    2633.1476   -36724.181    54.959105    247.02641 
   18700    139.20301   -1028.7565    133182.12   -34069.861    2629.0454   -36698.906    55.057696    246.64157 
   18750    142.97681   -1064.1503    133195.18   -34036.426     2700.319   -36736.745    55.112763    253.32804 
   18800    141.39725   -1049.0609     133203.6   -34060.896    2670.4867   -36731.383    55.175859    250.52935 
   18850    141.99825   -1185.2287    133206.48   -34056.571    2681.8375   -36738.409    55.314638    251.59422 
   18900    142.79451   -1177.0126    133219.73    -34074.46    2696.8761   -36771.336    55.422166    253.00505 
   18950    140.22865     -1116.73    133212.32   -34088.098    2648.4162   -36736.515    55.410177    248.45882 
   19000    142.11391   -1195.3851     133238.4   -34087.954    2684.0219   -36771.975    55.564035    251.79914 
   19050    142.08497   -1050.2833    133225.95   -34073.381    2683.4754   -36756.856    55.723452    251.74787 
   19100    138.95962   -1006.8534    133266.59   -34119.898    2624.4486   -36744.347     55.93996    246.21033 
   19150    138.06675   -901.84992    133362.57   -34154.235    2607.5855    -36761.82    56.066521    244.62833 
   19200    139.59022   -1054.0386    133410.51   -34159.754    2636.3585   -36796.112    56.377937    247.32765 
   19250    141.49588   -839.81022    133438.58   -34122.592    2672.3495   -36794.941      56.3709    250.70411 
   19300    139.91558   -1005.3769    133512.38   -34114.953    2642.5034   -36757.456    56.428858    247.90412 
   19350    142.53912   -1126.9725    133387.38   -34125.373    2692.0525   -36817.425    56.468201    252.55253 
   19400    144.51474   -1230.4507    133383.35       -34052     2729.365   -36781.365    56.642633    256.05296 
   19450    141.18876   -1041.2755    133322.99   -34030.698    2666.5491   -36697.248    56.814596    250.15995 
   19500     141.8297   -1403.4127    133392.31   -34049.515    2678.6543   -36728.169    57.256541    251.29558 
   19550    142.74041   -1263.8432    133397.18    -34082.34    2695.8542   -36778.194    57.410939    252.90918 
   19600    141.24033   -1246.2141    133334.82   -34096.706    2667.5231    -36764.23     57.55161    250.25132 
   19650    140.78286   -1118.1073    133291.41   -34105.444    2658.8832   -36764.327    57.723686    249.44077 
   19700    141.45786   -1248.0336    133292.89   -34149.041    2671.6314   -36820.673    57.947872    250.63674 
   19750    138.79632   -1174.7655    133311.54   -34173.583    2621.3646   -36794.948    58.145314      245.921 
   19800    133.15319   -1411.5711    133292.43   -34242.601    2514.7861   -36757.387    58.464082    235.92243 
   19850    136.29669   -1468.7581       133285   -34232.733    2574.1555   -36806.889    58.623796    241.49213 
   19900    137.65438   -1360.4449    133312.85   -34212.723    2599.7974    -36812.52     58.78163    243.89769 
   19950    138.11947   -1205.3424     133334.7   -34217.526    2608.5812   -36826.107    58.814476    244.72174 
   20000     140.6331   -1091.3954    133428.19   -34206.589    2656.0547   -36862.644    59.051597    249.17542 
   20050    139.17192   -1217.7769    133421.85   -34214.563    2628.4583   -36843.021     58.98906    246.58649 
   20100    137.55985   -1206.4828    133391.96   -34183.216    2598.0121   -36781.228    59.212664     243.7302 
   20150    137.31915   -1302.2555    133438.59   -34177.919    2593.4661   -36771.385    59.209367    243.30372 
   20200    139.78957   -1212.7423    133392.61   -34211.337    2640.1234   -36851.461    59.189849    247.68084 
   20250    139.33106   -1486.9556    133277.71   -34232.667    2631.4638   -36864.131    59.309831    246.86845 
   20300    138.34089   -1180.2063    133212.41   -34276.115    2612.7631   -36888.878    59.347865    245.11406 
   20350    136.35106   -1283.3976    133208.08   -34259.963    2575.1823   -36835.146    59.386751    241.58845 
   20400    134.86155   -1133.2749    133182.58   -34280.387    2547.0508   -36827.438    59.434794    238.94932 
   20450    136.59036   -1340.3658    133102.21   -34278.355    2579.7019   -36858.057    59.628794    242.01245 
   20500     138.2892    -905.7845    133056.34    -34183.32    2611.7869   -36795.106    59.825611    245.02248 
   20550    139.50304   -1026.3923    133027.37   -34192.691    2634.7119   -36827.403    60.023603    247.17316 
   20600    136.93876   -1225.9057       133009   -34175.594    2586.2819   -36761.876    60.066638    242.62975 
   20650    137.21647   -1176.2589    132986.54   -34196.492    2591.5269   -36788.019    60.134716     243.1218 
   20700    140.02946   -1172.1077    132956.34   -34209.706    2644.6541    -36854.36     60.10973    248.10589 
   20750    138.88862   -1071.2566    132978.27    -34208.76    2623.1078   -36831.867    60.236257    246.08453 
   20800    140.57187   -1065.5337    133050.24   -34194.121    2654.8983    -36849.02    60.192731    249.06694 
   20850    136.93479   -1498.4301    133093.24   -34223.945    2586.2069   -36810.152    60.279726    242.62271 
   20900    141.20981   -1008.7196    133194.72   -34199.292    2666.9468   -36866.238    60.645252    250.19726 
   20950      135.143   -1191.5429    133300.75   -34290.556    2552.3665   -36842.922    60.894418      239.448 
   21000    135.62487   -1128.3622    133274.88   -34220.139    2561.4673   -36781.606    61.184854    240.30179 
   21050    138.84414   -1162.0137    133299.83    -34162.71    2622.2678   -36784.978    61.297914    246.00573 
   21100    140.58348   -1318.4086     133232.4   -34087.668    2655.1176   -36742.786    61.213241    249.08751 
   21150     141.9257   -1377.6706    133111.53   -34067.764    2680.4674   -36748.232    61.216823    251.46568 
   21200    142.16142   -1242.7872    133102.95   -34079.602    2684.9192   -36764.521    61.458701    251.88332 
   21250    137.95259   -970.51147     133103.9   -34099.571    2605.4295       -36705    61.458478    244.42606 
   21300    142.35691   -1250.7472    133113.74   -34045.787    2688.6113   -36734.398    61.743671    252.22969 
   21350    141.46351   -1123.4153    133116.47    -34077.09    2671.7382   -36748.828    62.061567    250.64675 
   21400    139.12349   -1201.4341    133047.15   -34161.643    2627.5437   -36789.187    62.046506    246.50069 
   21450    136.67614   -1090.7675    133000.04   -34155.457    2581.3219   -36736.779    62.259584    242.16443 
   21500    138.51241   -1172.5139    133007.12    -34171.56    2616.0025   -36787.562    62.453064    245.41796 
   21550    138.37592   -1096.2918    133012.15   -34147.562    2613.4246   -36760.987    62.455613    245.17612 
   21600    136.51002   -1274.5783    133027.75   -34168.698    2578.1845   -36746.882    62.654674     241.8701 
   21650    136.90088    -1476.357    132971.82    -34186.82    2585.5664   -36772.387    63.034431    242.56263 
   21700    136.73469   -1467.1507    132870.68   -34134.593    2582.4278   -36717.021    63.327843    242.26818 
   21750    137.60263   -1336.0405    132781.13   -34091.281      2598.82   -36690.101    63.300745      243.806 
   21800    141.32043   -1488.1638    132712.54   -34020.736     2669.036   -36689.772    63.331026    250.39325 
   21850    140.45935   -1466.0352    132719.98   -34067.221    2652.7732   -36719.994    63.583098    248.86757 
   21900    137.64565   -1190.1689    132734.09   -34026.417    2599.6324    -36626.05    63.810818    243.88222 
   21950    139.60682   -1209.8916    132673.91   -33992.187     2636.672   -36628.859    63.797311    247.35705 
   22000    139.40525   -1360.4845    132741.48   -34011.144     2632.865   -36644.009    63.856907     246.9999 
   22050    141.79096   -1344.0091    132680.27   -34049.175    2677.9225   -36727.098    64.092351    251.22693 
   22100    140.11977    -1547.768    132673.55   -34046.001    2646.3597   -36692.361    64.267051     248.2659 
   22150    137.96811   -1292.1201    132460.62   -34048.865    2605.7226   -36654.587    64.276753    244.45357 
   22200    140.62004   -1161.3168    132410.11   -34009.962    2655.8081    -36665.77    64.405024    249.15229 
   22250    141.74256   -1163.6281    132443.32   -34067.872    2677.0084   -36744.881    64.556715    251.14118 
   22300    140.93372   -1120.5806    132432.34   -34065.123    2661.7323   -36726.855    64.641528    249.70806 
   22350    138.84073    -1214.913    132437.03   -34079.386    2622.2032    -36701.59    64.639281    245.99967 
   22400    138.09349   -1150.2542    132528.42    -34015.22    2608.0905   -36623.311    64.693788    244.67571 
   22450    136.85822   -1262.7366    132607.45   -34046.124    2584.7607   -36630.885    64.874303    242.48704 
   22500    139.35024   -1190.7181    132617.33   -34001.728    2631.8261   -36633.554    65.147593    246.90243 
   22550    138.41967   -1060.4405    132700.92   -33961.018     2614.251   -36575.269    65.255447    245.25365 
   22600    142.41469   -1356.1528    132729.34   -33944.972    2689.7025   -36634.675    65.376391    252.33206 
   22650    140.95818   -1383.2322    132768.41    -34004.58    2662.1944   -36666.774    65.628157    249.75141 
   22700    139.67495   -1227.8427    132697.29    -33999.07    2637.9587   -36637.029    65.729054    247.47776 
   22750    136.75217   -1248.8723    132728.43   -33990.988    2582.7578   -36573.746    65.812347    242.29914 
   22800    139.82928   -1415.6616    132781.89   -33947.375    2640.8735   -36588.249    65.972872    247.75121 
   22850    139.26408   -1390.4283    132814.55   -33962.025    2630.1989   -36592.224    66.041724    246.74979 
   22900    140.98561   -799.25462    132839.49   -33955.742    2662.7124   -36618.454    65.934988    249.80001 
   22950    139.24084   -1312.0726    132894.81   -33947.161    2629.7599   -36576.921    66.444404    246.70859 
   23000    141.02702   -1086.9145    132939.98   -33912.146    2663.4945   -36575.641    66.620381    249.87338 
   23050     139.2274   -1442.0176    132957.15   -33946.276    2629.5061   -36575.783    66.724496    246.68479 
   23100     140.1484   -1155.8814     132892.7   -33970.694    2646.9004   -36617.594    66.528699    248.31662 
   23150     140.5403   -1261.1254    132833.46   -33941.129    2654.3021   -36595.431    66.676335      249.011 
   23200    141.62585    -1156.419    132777.42   -33958.719    2674.8043   -36633.524     66.48487     250.9344 
   23250    139.23183   -1526.7848    132759.32   -33990.223    2629.5897   -36619.812    66.753254    246.69263 
   23300    140.35587   -1192.1195    132729.96   -34064.917    2650.8188   -36715.736    67.088297    248.68422 
   23350    139.31253   -957.87038    132710.06   -34041.791     2631.114   -36672.905    67.477554    246.83563 
   23400    139.34268   -1221.7741    132732.96   -34090.577    2631.6834    -36722.26    67.657121    246.88905 
   23450    138.44518   -1177.8861    132699.42   -34070.977    2614.7327    -36685.71    67.840167    245.29883 
   23500    139.87415   -1170.0081    132694.66    -34082.82    2641.7208   -36724.541    68.321853     247.8307 
   23550    140.99767   -1097.2124    132717.29   -34047.614    2662.9402   -36710.554    68.310039    249.82138 
   23600    138.24275    -1162.349     132796.6   -34050.464    2610.9096   -36661.374    68.467677    244.94017 
   23650    140.24938    -1223.089    132840.07   -34116.617    2648.8077   -36765.424    68.489827    248.49555 
   23700    139.28519   -1227.0479    132868.19    -34155.75    2630.5975   -36786.348    68.335946    246.78718 
   23750    138.02706   -1163.1114    132902.19   -34175.419     2606.836   -36782.255    68.572731    244.55801 
   23800    139.95346   -916.53942    132968.68   -34121.942    2643.2188   -36765.161    68.547338    247.97123 
   23850    139.13756   -1139.8649    132991.48   -34061.162    2627.8094   -36688.971    68.532689    246.52561 
   23900    141.26284    -1149.283    132986.35   -34042.755    2667.9482   -36710.704    68.717181     250.2912 
   23950    136.40708   -1213.7804    133010.61    -34097.68    2576.2403   -36673.921    69.039485    241.68771 
   24000      140.757   -1050.9375    132944.14   -34036.179    2658.3948   -36694.573    69.184678    249.39495 
   24050    141.88277   -1248.4768    132962.19   -33988.695    2679.6565   -36668.351    69.189677    251.38961 
   24100    141.09306   -1285.8421    133059.51   -33983.791    2664.7417   -36648.533    69.478041    249.99038 
   24150    142.24621   -1410.0498    133053.83   -34004.256    2686.5205   -36690.777    69.626386    252.03355 
   24200    139.44549   -1283.1833    133113.92   -34044.767     2633.625   -36678.392    69.491866     247.0712 
   24250    139.60975   -1487.9553    133129.09    -34032.63    2636.7274   -36669.357     69.68309    247.36225 
   24300    138.98241   -1256.8949    133059.31    -33985.44    2624.8792    -36610.32    69.789553    246.25072 
   24350    141.96076    -1312.723    133048.89   -33958.758    2681.1295   -36639.887    69.830414    251.52779 
   24400    141.71625   -1255.1312    132981.75     -34017.8    2676.5116   -36694.312    70.026471    251.09457 
   24450    139.30889   -1259.8651     133014.6   -33986.573    2631.0452   -36617.619    70.291802    246.82918 
   24500    141.12203   -1180.3911    132964.73   -34021.702    2665.2888   -36686.991    70.518479    250.04172 
   24550    137.89663   -1086.2665    133001.67   -33991.158    2604.3727   -36595.531    70.668357    244.32692 
   24600    139.87229    -1084.995     133042.5   -33990.159    2641.6858   -36631.845    70.900418    247.82742 
   24650    141.74457   -1110.2258    133091.06   -34000.686    2677.0465   -36677.733    70.937844    251.14475 
   24700    140.32249   -1237.1747    133099.83   -33990.399    2650.1885   -36640.588    71.010095    248.62509 
   24750    140.10115   -1217.6848    133103.23   -33978.388    2646.0081   -36624.396    71.094845    248.23291 
   24800    140.49764   -1265.2678    133156.95   -33980.051    2653.4964   -36633.547     71.38519    248.93542 
   24850    139.54641   -1568.4102    133080.51   -33976.427     2635.531   -36611.958    71.267036    247.25001 
   24900    141.70035   -1131.7818    132932.73     -33974.9    2676.2113   -36651.111    71.055992     251.0664 
   24950    140.51958   -1122.9838    132854.58   -33988.662    2653.9107   -36642.572    71.214556    248.97429 
   25000     139.5541   -1505.6807    132877.42   -33999.227    2635.6764   -36634.903    71.279702    247.26365 
   25050    141.01652   -1341.9674    132829.31   -33961.351    2663.2963   -36624.647    71.211208    249.85478 
   25100    140.94901   -1286.3704    132830.59   -33967.671    2662.0211   -36629.693    71.472285    249.73515 
   25150    141.41292   -1133.4694    132906.38   -33924.455    2670.7827   -36595.237    71.559069    250.55712 
   25200    143.33456   -1171.3256    132940.39   -33949.876    2707.0757   -36656.951    71.699453    253.96191 
   25250    139.16508   -1345.3833    132957.71   -33947.581     2628.329    -36575.91    71.887048    246.57436 
   25300     139.7226   -1218.5405    132878.33   -33994.679    2638.8586   -36633.538    72.040042    247.56219 
   25350    141.86568   -1331.9606    132931.58    -33965.94    2679.3338   -36645.273    72.375967    251.35933 
   25400    138.18609   -1200.6711    132923.58   -33961.937    2609.8395   -36571.777     72.29889    244.83978 
   25450    141.53635   -1013.4568    133009.31   -33981.201    2673.1138   -36654.314    72.586142    250.77581 
   25500    142.80443   -1552.9587     133017.7    -33969.25    2697.0633   -36666.313    72.789151    253.02261 
   25550     141.1552   -1216.1909    132937.41   -33965.837    2665.9154   -36631.752    72.976996    250.10049 
   25600    142.05371   -1389.5136     132910.2   -33970.336    2682.8849   -36653.221    73.184325    251.69248 
   25650    142.82663   -1257.6728    132859.44   -33991.008    2697.4827    -36688.49    73.171223    253.06196 
   25700    139.96352   -1046.1036    132959.32   -33966.901    2643.4088    -36610.31     73.28821    247.98906 
   25750    140.81469   -1462.5673    132929.69   -33940.012    2659.4843   -36599.496    73.620465    249.49717 
   25800    139.11144   -1347.1932    132920.28   -34012.357     2627.316   -36639.673    73.631715    246.47933 
   25850    138.96768   -1303.2308    132964.11   -33991.883    2624.6009   -36616.484    73.723501    246.22461 
   25900    143.77514   -1231.7702     132986.9   -33926.761    2715.3966   -36642.158    73.827195    254.74253 
   25950    141.32653   -1124.1605    133032.16    -33954.35    2669.1511   -36623.501    73.985315    250.40405 
   26000    141.92211   -1356.8343    133061.97   -33942.776    2680.3994   -36623.176     74.29612     251.4593 
   26050    139.41478   -1436.1969    133013.83   -33938.791     2633.045   -36571.836     74.42911    247.01679 
   26100    139.69527   -1335.4925    133042.95   -33975.814    2638.3425   -36614.157     74.44196    247.51376 
   26150    137.32217   -1184.8755    133026.76   -34007.318    2593.5231   -36600.841    74.511087    243.30907 
   26200    140.29006   -1300.8369    133031.32    -33964.81    2649.5759   -36614.385    74.499854    248.56761 
   26250    139.69344   -1394.7253    133054.81   -33977.941    2638.3079   -36616.249    74.626613    247.51053 
   26300    143.37929   -1261.6196    133021.83   -33950.806    2707.9205   -36658.727    74.630617    254.04117 
   26350    140.77352    -1166.684    132907.53   -33978.308    2658.7068   -36637.014    74.747831    249.42423 
   26400    140.07591    -1124.868    132821.46   -33967.703    2645.5314   -36613.234    74.879848    248.18819 
   26450    136.08379    -1266.178    132824.42    -34022.07    2570.1346   -36592.205    75.040026    241.11491 
   26500     138.7714   -1156.4369    132838.18    -34020.55     2620.894   -36641.444    75.138781    245.87685 
   26550    144.33339   -1409.8713    132767.89   -34017.008    2725.9399   -36742.948    75.269876    255.73164 
   26600    139.97142   -1121.1879    132804.12   -34019.309    2643.5579   -36662.867    75.472139    248.00305 
   26650    139.00737   -966.23384    132914.23   -34085.055    2625.3505   -36710.405     75.66821    246.29493 
   26700    141.43708   -1368.6589    133062.72   -34070.088     2671.239   -36741.327    76.142642    250.59993 
   26750    142.61876   -1149.4076    133085.03   -34007.224    2693.5568   -36700.781     76.28137    252.69365 
   26800    140.72733   -1201.4294     133063.4   -33962.766    2657.8344     -36620.6    76.336878    249.34239 
   26850    143.20402   -1188.1686    133107.55   -33913.033    2704.6102   -36617.643    76.519042    253.73061 
   26900     145.1174   -1222.0016    133198.25   -33903.247    2740.7471   -36643.994    76.794287    257.12076 
   26950    142.61129   -1404.6227    133136.99   -33965.309    2693.4156   -36658.724    76.570961    252.68041 
   27000    138.57396   -1375.9301    133166.57   -33949.351    2617.1649   -36566.516    76.647687    245.52701 
   27050    140.47182    -1318.815    133260.39   -33969.657    2653.0088   -36622.666    76.875353    248.88967 
   27100    140.87248   -1274.8395    133302.78   -33973.888    2660.5758   -36634.463    77.046668    249.59956 
   27150    139.99758   -1544.5991    133280.81   -33963.353    2644.0521   -36607.405    77.160962    248.04941 
   27200    140.30519   -1137.4814    133302.75   -33923.781    2649.8618   -36573.643    77.268123    248.59444 
   27250    140.48051   -1308.4473    133326.52   -33961.472     2653.173   -36614.645    77.342434    248.90507 
   27300    141.43487   -1366.2527       133347    -33984.43    2671.1974   -36655.627    77.521762    250.59602 
   27350    141.04294   -1281.1327    133324.86    -33988.96    2663.7951   -36652.755    77.614383    249.90158 
   27400    138.43092   -1495.9362    133303.17   -33990.156    2614.4634   -36604.619    77.741019    245.27357 
   27450    140.49652    -1371.844    133326.44   -34009.304    2653.4752    -36662.78    77.855783    248.93343 
   27500    141.72931   -1307.9671    133328.69   -33987.956    2676.7583   -36664.714    78.101821    251.11771 
   27550    140.22974   -1427.9869    133296.21   -33990.773    2648.4366    -36639.21    78.286421    248.46074 
   27600     140.2151   -1323.8018    133250.89   -34002.941    2648.1602   -36651.101    78.451031    248.43481 
   27650    139.85579   -1428.2139    133268.44    -34026.19    2641.3742   -36667.565    78.260294    247.79818 
   27700    140.99689   -1528.5813    133222.09   -34054.859    2662.9255   -36717.785    78.699856       249.82 
   27750    141.51141    -1479.969    133317.06   -34005.078    2672.6429   -36677.721    78.644338    250.73163 
   27800     138.2982   -1623.2938    133335.18   -34017.322    2611.9568   -36629.279     79.09016    245.03842 
   27850    140.81922    -1397.983    133328.53   -34028.918    2659.5698   -36688.487    79.042392    249.50519 
   27900    143.68038   -1426.1696    133234.72   -34031.221    2713.6069   -36744.828    79.225021    254.57463 
   27950    137.88811   -1005.4492    133189.81   -34023.386    2604.2117   -36627.598    79.155514    244.31182 
   28000    141.50032    -1307.839    133096.38   -34022.521    2672.4335   -36694.954    79.281701    250.71198 
   28050    140.87952   -1382.6284    132913.54   -34048.311    2660.7087    -36709.02    79.418711    249.61204 
   28100     138.0841   -1507.4467    132757.63   -34093.795    2607.9133   -36701.709    79.365418    244.65908 
   28150    139.69959   -1354.8672    132775.99   -34111.836     2638.424    -36750.26    79.674682    247.52142 
   28200    140.08274   -1495.4678    132764.55   -34057.138    2645.6605   -36702.798    79.663631     248.2003 
   28250    139.85062   -1426.9185     132726.9   -34120.374    2641.2765   -36761.651    80.110012    247.78902 
   28300    140.02222    -1304.096    132782.59   -34083.601    2644.5174   -36728.118    80.418461    248.09306 
   28350     139.4445    -1381.726    132792.51   -34020.602    2633.6063   -36654.208    80.474335    247.06945 
   28400    142.01382   -1315.8949    132835.62    -34026.21    2682.1317   -36708.341    80.557804    251.62181 
   28450     139.7353   -1074.5102    132907.89    -34038.92    2639.0985   -36678.018    80.620993    247.58469 
   28500    140.27544    -1108.659    133018.25   -34046.921    2649.2999   -36696.221    80.949947    248.54173 
   28550     139.9379   -1251.9905    133090.25   -34042.636    2642.9249   -36685.561     81.27783    247.94367 
   28600    138.74379   -886.72223    133111.93   -34025.873    2620.3725   -36646.246    81.166198    245.82793 
   28650    142.39966   -1214.3107    133174.98   -33982.004    2689.4187   -36671.423    81.455495    252.30544 
   28700    140.10261   -1075.3594     133163.5   -33983.409    2646.0358   -36629.445     81.67047     248.2355 
   28750    142.49279   -940.51097    133196.16    -33974.77    2691.1776   -36665.947    81.949318    252.47044 
   28800    140.11157   -1195.9437    133330.37   -34043.594     2646.205   -36689.799    82.140317    248.25138 
   28850    140.16345   -1288.6469    133315.35   -34014.196    2647.1848   -36661.381    82.048275     248.3433 
   28900    136.67823   -1520.9715    133344.69    -33977.22    2581.3615   -36558.582     82.31612    242.16815 
   28950    140.95197   -1289.2541    133324.46    -33977.12    2662.0771   -36639.197    82.704863    249.74041 
   29000    141.99272   -1266.3158     133238.4   -34025.817     2681.733    -36707.55    82.818249    251.58441 
   29050    138.74303   -1547.3801    133182.89   -34060.083    2620.3581   -36680.442    83.110502    245.82658 
   29100    141.97985   -1524.7613    133040.34   -34004.085      2681.49   -36685.575    83.348757    251.56161 
   29150    142.05661   -1235.2681    132891.46   -34001.285    2682.9397   -36684.224    83.170935    251.69761 
   29200    138.91485   -1165.5868    132900.12   -34022.642    2623.6031   -36646.245      83.0936    246.13101 
   29250    137.97893   -1224.9106    132889.36    -34102.81    2605.9269   -36708.737    83.195444    244.47273 
   29300    138.18875   -1146.2706    132903.73   -34061.958    2609.8896   -36671.848    83.287508    244.84449 
   29350    137.76492    -1129.529    132907.21   -34077.011    2601.8851   -36678.896    83.533694    244.09355 
   29400    138.80355   -1404.6691    132855.65   -34092.725     2621.501   -36714.226    83.810804     245.9338 
   29450    139.10049   -1141.5745    132812.43   -34034.416    2627.1091   -36661.525    84.085822    246.45992 
   29500    139.17341   -1322.1095    132817.78   -34043.457    2628.4865   -36671.944    84.355267    246.58914 
   29550    138.09115   -1147.6694    132751.25   -34042.753    2608.0464   -36650.799    84.578802    244.67157 
   29600    140.58966    -1320.609    132615.68    -34056.64    2655.2343   -36711.874    84.852731    249.09846 
   29650    142.08715   -1139.6275    132515.48   -34028.589    2683.5165   -36712.106    85.181806    251.75173 
   29700     140.7589   -1277.6385    132475.36   -33996.718    2658.4306   -36655.148    85.262413    249.39831 
   29750    142.28709   -1067.0214    132469.19   -34002.158    2687.2926   -36689.451    85.255619    252.10598 
   29800    137.34339    -928.9717    132535.47   -34063.161    2593.9239   -36657.085    85.561216    243.34668 
   29850    140.75739   -1282.3512    132661.28    -34051.37    2658.4022   -36709.773    85.551137    249.39565 
   29900    140.48342   -1096.2916    132711.18    -34052.53    2653.2278   -36705.757    85.879402    248.91022 
   29950     139.6926   -1008.6034    132777.15   -34061.292     2638.292   -36699.584    85.913984    247.50903 
   30000    142.37113   -1099.3325    132838.92   -33994.931    2688.8799   -36683.811    85.965709    252.25489 
   30050    140.23749   -1283.5626    132768.83   -33967.235    2648.5831   -36615.818    85.938405    248.47448 
   30100    140.59918   -1414.5283    132693.98   -33968.586    2655.4141       -36624    86.086454    249.11532 
   30150    136.78558   -961.78817    132740.67   -34034.952    2583.3888   -36618.341    86.083708    242.35834 
   30200    139.26092   -1294.7337    132762.42   -34060.482    2630.1392   -36690.621    86.056699    246.74418 
   30250    139.35148   -1379.2893    132696.78   -34087.812    2631.8496   -36719.662    86.239033    246.90464 
   30300    137.09058   -1215.2352    132635.96    -34035.84    2589.1492   -36624.989    86.434027    242.89875 
   30350    138.78369   -1250.8574    132630.27   -34081.238    2621.1261   -36702.364    86.542963    245.89863 
   30400    137.19442   -1304.1892    132569.51   -34129.051    2591.1103   -36720.161    86.754843    243.08272 
   30450    138.31843   -1134.7511    132609.42   -34072.421     2612.339    -36684.76    86.885479    245.07427 
   30500    142.12489   -1158.4048    132685.35   -34012.328    2684.2293   -36696.558    87.086147     251.8186 
   30550    140.31722   -1199.7937    132764.04   -34006.674    2650.0889   -36656.763    87.126815    248.61574 
   30600    137.45326   -1204.0328    132850.27   -34028.844     2595.999   -36624.843     87.28165    243.54135 
   30650    138.81912   -1148.6836    132898.71   -34045.491    2621.7952   -36667.286    87.425882     245.9614 
   30700      139.181    -1189.301    132898.13   -34060.664    2628.6297   -36689.293    87.759243    246.60257 
   30750     138.4217   -1257.1002    132910.78   -33996.299    2614.2893   -36610.588    87.998433    245.25724 
   30800    139.66878   -1400.2434    132821.26   -33983.628    2637.8423    -36621.47    88.209765    247.46684 
   30850    139.76539   -1483.9644    132711.25   -33989.326    2639.6669   -36628.993    88.106201    247.63801 
   30900    137.88183   -1188.4448     132673.7   -34000.593    2604.0932   -36604.686    87.988993     244.3007 
   30950    140.86237   -1362.9769    132717.49   -33980.606    2660.3848   -36640.991     88.12901    249.58165 
   31000    141.50446   -1176.8856    132723.39   -33996.426    2672.5116   -36668.938     88.08304    250.71931 
   31050    139.06811   -1381.8859    132701.19   -33974.373    2626.4977    -36600.87     88.20516    246.40256 
   31100    141.53733   -1142.3303    132711.36   -33951.761    2673.1324   -36624.893    88.300251    250.77755 
   31150     140.5306    -1362.834    132696.58   -33978.311    2654.1188    -36632.43    88.636239    248.99381 
   31200    143.70509   -1131.9304    132624.27   -33937.391    2714.0736   -36651.465    88.777961    254.61841 
   31250    140.70644   -1345.7615     132570.2   -34013.368    2657.4399   -36670.808    88.812532    249.30538 
   31300    142.87587    -1121.893    132560.26   -34036.318    2698.4125   -36734.731    88.977527    253.14918 
   31350    140.15887   -1435.4331    132505.98   -34054.615    2647.0982   -36701.713    89.164011    248.33518 
   31400    138.42248    -1355.589    132457.54   -34062.465     2614.304   -36676.769    89.168892    245.25862 
   31450     138.2113   -1144.9542    132519.72   -34067.105    2610.3157   -36677.421    89.528866    244.88446 
   31500    138.97489   -1250.4591    132574.23    -34072.26    2624.7371   -36696.997     89.58143    246.23739 
   31550    140.89725   -1142.7086    132621.66   -34091.626    2661.0436    -36752.67    89.812792    249.64345 
   31600    140.63079    -1008.945    132735.67   -34068.792    2656.0111   -36724.803    89.852357    249.17134 
   31650    141.44635   -1239.1034    132773.37   -34049.308    2671.4141   -36720.722     90.04725    250.61635 
   31700    142.14798   -1100.0638    132833.26   -34033.643    2684.6655   -36718.308    90.149617    251.85951 
   31750    141.19441   -1301.6489       132831   -34013.652    2666.6558   -36680.307     90.42585    250.16996 
   31800    140.19823   -1282.5089    132835.66   -34021.397    2647.8415   -36669.239    90.541747    248.40491 
   31850    138.20646   -1315.2951     132859.3   -34025.988    2610.2243   -36636.212    90.453121    244.87588 
   31900    143.35092   -1099.8179    132831.76   -34029.545    2707.3846    -36736.93    90.430795    253.99089 
   31950    141.98863   -1148.4732    132764.93    -34038.52    2681.6559   -36720.176    90.375268    251.57718 
   32000    140.98893   -1130.4974    132806.01   -34098.424    2662.7751   -36761.199    90.609286    249.80589 
   32050     140.0949   -1122.5303    132776.15   -34129.128    2645.8901   -36775.018    90.471496    248.22184 
   32100    140.32765   -1075.4348    132743.27   -34131.271     2650.286   -36781.557    90.466118    248.63423 
   32150    138.38579   -1291.1422    132787.73   -34168.413     2613.611   -36782.024    90.494341    245.19361 
   32200    139.10094   -1337.5671    132755.59    -34129.54    2627.1178   -36756.658     90.58172    246.46073 
   32250    140.56661    -1158.443    132719.92    -34156.41    2654.7991   -36811.209    90.559758    249.05763 
   32300    139.85242   -1050.0646    132851.73   -34201.631    2641.3105   -36842.942    90.512847    247.79221 
   32350    137.59777   -1251.7958    132824.92   -34255.845    2598.7282   -36854.574    90.818041    243.79739 
   32400    134.20371   -1064.9202    132795.01   -34227.478    2534.6267   -36762.105    91.261529    237.78376 
   32450    136.85339   -1095.2861    132762.64   -34243.253    2584.6696   -36827.923    91.437693    242.47849 
   32500    137.25979   -1260.3177    132747.17   -34259.377     2592.345   -36851.722    91.692555    243.19855 
   32550    140.02068   -1387.2541    132777.98   -34244.316    2644.4883   -36888.804     91.94576    248.09033 
   32600    138.41877   -1180.1936    132789.46   -34259.931    2614.2341   -36874.165    92.250924    245.25206 
   32650    140.49051   -981.40258    132839.94   -34247.778    2653.3618   -36901.139    92.682947    248.92279 
   32700    137.76945   -1060.9118    132864.82   -34244.019    2601.9706    -36845.99    92.921936    244.10157 
   32750    138.97501   -1014.0172    132954.44   -34230.327    2624.7394   -36855.066    93.152496    246.23761 
   32800    138.74072   -974.16908    133019.83   -34163.379    2620.3145   -36783.693    93.381278    245.82249 
   32850    138.58201   -1226.5376    133055.86   -34153.573     2617.317    -36770.89    93.595908    245.54127 
   32900    142.18945   -1252.2071    133106.48    -34172.49    2685.4486   -36857.938    93.763083    251.93298 
   32950    136.59871   -1290.2949    133097.86   -34187.073    2579.8595   -36766.933     94.10854    242.02724 
   33000    136.32089   -1265.2535    133035.12   -34159.948    2574.6125   -36734.561    94.378122    241.53499 
   33050    139.63756   -1352.5022    132941.13   -34119.025    2637.2525   -36756.277     94.64372    247.41151 
   33100    139.95897   -1171.6997    132969.63   -34107.735    2643.3229   -36751.058    94.635249      247.981 
   33150    142.81555   -926.29153    133028.56    -34111.21    2697.2734   -36808.484    94.781874    253.04232 
   33200    139.10978   -995.41425    133065.86   -34114.229    2627.2846   -36741.513    95.086023    246.47638 
   33250    142.43112   -1068.0372    133080.53    -34072.15    2690.0129   -36762.163    95.236537    252.36119 
   33300    140.61967   -1234.4729    133058.34   -34086.481     2655.801   -36742.282    95.362545    249.15163 
   33350    142.54803   -1224.7214    133179.97   -34081.246    2692.2209   -36773.467     95.45112    252.56832 
   33400    143.31631   -1089.4248    133241.86   -34077.442     2706.731   -36784.173    95.553364    253.92957 
   33450    143.17018   -1171.9202    133336.46   -34083.926    2703.9711   -36787.897     96.17963    253.67066 
   33500    140.07198   -1112.6272    133358.04   -34087.801    2645.4572   -36733.259    96.433421    248.18123 
   33550    138.81171   -1123.5638    133302.27   -34115.122    2621.6552   -36736.777    96.486324    245.94827 
   33600    140.09494   -1118.5125    133322.47   -34088.924    2645.8908   -36734.814    96.725599     248.2219 
   33650    139.55995   -1131.0167    133268.64   -34122.135    2635.7868   -36757.922    96.859038    247.27401 
   33700    139.43912   -1187.8798    133217.03   -34063.616    2633.5048   -36697.121    97.053479    247.05992 
   33750     143.7596   -1220.8235    133254.64   -34028.328    2715.1031   -36743.431    97.356947    254.71499 
   33800    140.32967   -1107.4187    133207.19   -34051.305     2650.324   -36701.629    97.490038    248.63781 
   33850    139.83699   -1482.7256    133133.06    -34014.15     2641.019   -36655.169    97.646771    247.76487 
   33900    140.37268   -1305.2844    133087.55   -33995.622    2651.1364   -36646.758    97.877395    248.71402 
   33950    138.07841    -1110.022    133096.77   -33994.836    2607.8058   -36602.642     97.62847    244.64899 
[...]
   92000    143.53224   -1323.8127    132784.85   -33898.043    2710.8092   -36608.852    270.98792    254.31216 
   92050    139.86801   -1396.4984    132754.62   -33951.658     2641.605   -36593.263    271.56674    247.81984 
   92100    141.86318   -1306.1961    132719.74   -33961.743    2679.2865    -36641.03    271.40891    251.35489 
   92150    142.72155   -1163.7307    132753.91   -33952.715     2695.498   -36648.213     271.5993    252.87576 
   92200    140.77693   -1063.5353    132817.79   -33986.336    2658.7712   -36645.107    271.72162    249.43027 
   92250    137.00342   -989.47921    132846.87   -34063.252     2587.503   -36650.755    271.90708    242.74431 
   92300    140.16688   -1186.5928    132905.31   -34060.994    2647.2496   -36708.243    271.61029    248.34938 
   92350    137.87214   -1029.4951    132874.78   -34071.477    2603.9102   -36675.387    271.91797    244.28353 
   92400    138.69585   -1284.4612    132873.89   -34102.712     2619.467   -36722.179    271.87913    245.74298 
   92450    140.74089   -1379.2526    132808.78   -34084.182    2658.0906   -36742.273    272.11514    249.36642 
   92500    141.85497   -1388.1174    132791.99   -34087.024    2679.1314   -36766.155    272.04027    251.34035 
   92550    137.83932   -1182.4214    132812.54   -34073.214    2603.2902   -36676.504    272.14042    244.22537 
   92600    141.32242   -1123.1497    132812.36   -34025.966    2669.0734    -36695.04    272.16567    250.39676 
   92650    138.60194   -1204.3684    132855.72   -34026.544    2617.6935   -36644.238    272.43704     245.5766 
   92700    138.24422   -1156.6552    132933.76   -33996.114    2610.9374   -36607.051    272.72993    244.94278 
   92750    140.70453   -1211.4891    133021.82   -34017.352    2657.4039   -36674.756    273.20654    249.30199 
   92800    138.13847   -1245.3316    133036.67   -33989.443    2608.9402   -36598.383     273.3132    244.75541 
   92850    143.79913   -869.40166    133037.44   -33954.444    2715.8497   -36670.294    273.43462    254.78503 
   92900    141.20019   -1141.0034    133109.96   -33982.721    2666.7649   -36649.486    273.64697    250.18019 
   92950    143.14184   -1109.9561    133107.99   -33990.985    2703.4358   -36694.421    273.98223    253.62044 
   93000    142.25046    -1347.822     133043.3   -34005.261    2686.6009   -36691.862    274.47701    252.04109 
   93050    137.41006   -959.97478    132972.28   -34017.083     2595.183   -36612.266    274.29391     243.4648 
   93100    136.84253   -1242.1088    132917.43    -34030.52    2584.4645   -36614.984    274.59853    242.45925 
   93150    140.16191   -1409.3142    132791.47   -33998.688    2647.1557   -36645.843    274.48639    248.34057 
   93200     139.8104   -1046.3313    132817.85   -34022.269    2640.5169   -36662.786    274.59074    247.71776 
   93250    141.95895   -1208.2422    132765.91   -34021.754    2681.0953   -36702.849    274.90687    251.52459 
   93300     138.5687   -1056.7444    132713.83   -34055.577    2617.0656   -36672.642    275.29784    245.51769 
   93350    136.41951   -1116.2689    132648.11    -34073.25    2576.4752   -36649.725    275.75816    241.70974 
   93400    138.86589   -1194.9629    132550.83   -34017.734    2622.6786   -36640.412    275.70707    246.04427 
   93450    140.91843   -1275.0616    132494.58   -34022.732    2661.4437   -36684.176    276.09208    249.68098 
   93500    139.21431   -1161.6627    132519.87   -34081.465    2629.2589   -36710.724    276.46274     246.6616 
   93550    135.25763   -1254.0796    132510.49     -34094.6    2554.5314   -36649.131    276.59058     239.6511 
   93600    135.39095   -1130.5239    132492.79   -34050.947    2557.0493   -36607.996    276.53652    239.88731 
   93650    138.19973   -1144.7931    132560.41   -34058.891    2610.0971   -36668.988    276.58807    244.86395 
   93700    143.85124   -1368.0461     132529.7   -34041.221    2716.8339   -36758.055    276.74703    254.87737 
   93750    139.19792   -942.18074    132503.12   -34118.715    2628.9493   -36747.664    276.95069    246.63255 
   93800    136.58736   -1162.8119    132616.42    -34100.46    2579.6453   -36680.105    277.32769    242.00714 
   93850    139.67014   -1307.4908    132604.79   -34075.702    2637.8679    -36713.57     277.6872    247.46924 
   93900    141.10843   -1137.9471       132607   -34056.172     2665.032   -36721.204    277.53294    250.01762 
   93950    140.80241   -1195.3761    132521.69   -34085.423    2659.2523   -36744.675    277.62651    249.47541 
   94000    141.23528   -1260.6311    132516.39   -34100.349    2667.4278   -36767.777    277.01851    250.24238 
   94050    139.18914   -1334.3741    132470.85   -34104.933    2628.7835   -36733.716    276.98671      246.617 
   94100    138.18685   -1051.5448    132492.72    -34093.69    2609.8538   -36703.544    277.86843    244.84113 
   94150    137.56985   -1251.7375    132556.55   -34126.767    2598.2009   -36724.968     277.9761    243.74792 
   94200    138.41806   -912.39834    132561.74   -34108.285    2614.2205   -36722.505    277.46964    245.25078 
   94250    137.85827   -1298.7004    132599.43   -34145.635    2603.6481   -36749.284    277.49863    244.25895 
   94300    139.49352   -1362.5931    132562.24    -34127.88    2634.5321   -36762.412    277.65939     247.1563 
   94350    138.72038   -1177.3467    132559.08   -34050.765    2619.9303   -36670.696    277.79237    245.78645 
   94400    136.51734   -1218.3798    132553.94   -34056.116    2578.3228   -36634.439    278.30833    241.88307 
   94450    141.43339   -1083.7808    132561.45   -34055.369    2671.1693   -36726.538    278.31387    250.59339 
   94500    140.56993   -1136.2311    132572.61   -34052.251    2654.8617   -36707.112    278.40983     249.0635 
   94550    137.31183   -1074.6368    132596.75   -34051.275    2593.3279   -36644.603    279.05415    243.29076 
   94600    139.49599   -912.94581     132551.2   -34024.115    2634.5787   -36658.693    279.23432    247.16067 
   94650    137.94653   -1156.6012    132510.93   -33993.841    2605.3151   -36599.156     279.8416    244.41533 
   94700    142.00767   -1166.4512    132548.85   -34013.444    2682.0155   -36695.459    280.00451    251.61091 
   94750     135.9087   -1020.0574    132524.21   -34035.772    2566.8278     -36602.6    280.24064    240.80468 
   94800    137.88447    -1174.627    132515.04   -34052.585    2604.1429   -36656.728    280.91488    244.30536 
   94850    141.30239   -1189.3239    132494.56   -34026.795    2668.6952    -36695.49    281.19505    250.36128 
   94900    139.94702   -1078.8567    132517.89   -34032.003    2643.0971     -36675.1    281.36097    247.95982 
   94950     140.4282   -1244.8318    132584.27   -34019.689    2652.1849   -36671.874    281.11573    248.81238 
   95000    138.94194   -1288.5713    132522.69   -34021.452    2624.1148   -36645.567    281.53424    246.17901 
   95050    137.34494   -1279.8514    132518.12   -34085.836    2593.9532   -36679.789    281.54122    243.34942 
   95100    139.42982   -1213.9459    132538.03    -34063.68    2633.3291    -36697.01    281.75843    247.04344 
   95150    139.70622   -1430.9981    132498.87   -34014.596    2638.5494   -36653.146     281.7875    247.53318 
   95200    142.22972   -1441.3151    132425.41   -34012.621    2686.2091    -36698.83     281.7621    252.00433 
   95250    139.37726    -1187.043    132328.68   -34026.404    2632.3364   -36658.741    281.88564    246.95031 
   95300    141.01881   -1247.9814    132412.56   -33988.142    2663.3394   -36651.481    282.44736    249.85883 
   95350    137.94786   -1107.1973    132438.77   -33966.406    2605.3401   -36571.746    282.21839    244.41768 
   95400    140.73584   -1333.7069    132332.08   -33963.685    2657.9952    -36621.68    282.21154    249.35747 
   95450    142.68491   -1042.6143    132296.64   -33921.456    2694.8061   -36616.262    282.00811    252.81085 
   95500    140.49675   -1159.3197    132384.16   -33898.143    2653.4796   -36551.623      282.266    248.93384 
   95550    140.87859   -1378.1846    132408.39    -33869.22    2660.6912   -36529.912    282.33938    249.61039 
   95600    144.16049   -1313.4318     132309.8   -33812.376    2722.6745   -36535.051    282.15982     255.4253 
   95650    141.18614   -1178.2916    132327.93   -33818.603    2666.4996   -36485.103    282.48402     250.1553 
   95700    141.28394    -1202.818    132382.28   -33779.409    2668.3468   -36447.756    282.53723    250.32859 
   95750    141.22993   -1263.8134    132321.22   -33792.573    2667.3267     -36459.9    282.69502    250.23289 
   95800    141.92576   -1247.1003    132268.72   -33840.202    2680.4684   -36520.671    282.87499    251.46577 
   95850    140.03794   -970.30295    132286.56     -33881.7    2644.8144   -36526.514     283.0177    248.12092 
   95900    138.41848   -1261.1414    132224.44   -33902.986    2614.2285   -36517.214    282.52042    245.25153 
   95950    138.34092   -1102.9216    132249.99    -33917.69    2612.7637   -36530.454    282.59688    245.11411 
   96000    140.11213   -1183.0842    132251.54   -33938.014    2646.2155    -36584.23    282.65407    248.25236 
   96050    141.34823   -1036.8922    132296.28   -33909.309    2669.5611   -36578.871    282.63294    250.44251 
   96100    140.51012   -1283.4327     132278.5    -33914.27    2653.7321   -36568.002    282.62384    248.95753 
   96150    140.68239   -1306.1133    132237.84   -33945.287    2656.9857   -36602.272     282.7743    249.26276 
   96200    138.50701   -1247.5954    132255.12   -33952.269    2615.9005   -36568.169    282.81488    245.40839 
   96250    140.26994   -1184.4869     132291.3   -33930.371    2649.1959   -36579.566    283.02793    248.53197 
   96300    140.07228   -1344.3231    132286.16   -33910.107    2645.4628    -36555.57    282.98907    248.18175 
   96350    142.09401   -1396.6444    132248.48   -33949.139    2683.6461   -36632.785    283.00507    251.76389 
   96400    139.45132   -902.38645    132237.99   -33985.157    2633.7352   -36618.892    282.46405    247.08154 
   96450    137.74229   -1335.1423    132250.39   -33974.916    2601.4576   -36576.374    282.72349    244.05344 
   96500    139.78944   -992.62091    132247.52    -33961.66     2640.121   -36601.781    282.69541    247.68062 
   96550    137.34154   -1194.3597     132354.1   -33978.461    2593.8891    -36572.35     283.1621    243.34341 
   96600    138.00698   -1033.9542    132463.02   -33952.887    2606.4567   -36559.344    283.47503    244.52243 
   96650    140.87069   -1263.0553    132534.21   -33902.598    2660.5419    -36563.14    283.80091    249.59639 
   96700    141.24528   -1316.7788    132612.01   -33894.741    2667.6167   -36562.358    283.63032     250.2601 
   96750    138.36645     -1288.67    132536.13   -33944.106    2613.2459   -36557.351     283.5608    245.15935 
   96800    140.77976   -1178.7414    132433.93   -33938.946    2658.8245    -36597.77    283.78708    249.43527 
   96850    139.45135   -1298.7872    132357.63   -33947.241    2633.7358   -36580.976    283.57869    247.08159 
   96900    139.44274   -1206.9261    132336.01   -33930.732    2633.5732   -36564.305    283.53759    247.06634 
   96950    139.87496   -1069.1971    132399.89   -33941.508    2641.7362   -36583.244    284.06274    247.83215 
   97000    136.95157   -1204.0585    132395.61   -33954.363    2586.5238   -36540.887     284.4316    242.65244 
   97050    141.04838    -1482.451    132386.77   -33902.914    2663.8979   -36566.812    284.83575    249.91122 
   97100      140.705   -1115.6119    132395.84   -33946.831    2657.4126   -36604.244    284.90223    249.30282 
   97150    140.66642   -1265.2931    132436.18   -33940.396     2656.684    -36597.08    285.04268    249.23446 
   97200     140.2119   -1183.4465    132567.69     -33982.2    2648.0998   -36630.299    285.10447    248.42914 
   97250    139.85288   -1297.8442    132593.31   -33918.348    2641.3192   -36559.667    285.49257    247.79302 
   97300    140.12664   -1135.8487       132583   -33934.121    2646.4895    -36580.61    285.58459    248.27807 
   97350     142.5098   -1286.5662    132645.13   -33948.024     2691.499   -36639.523    285.91023    252.50059 
   97400    137.11901   -987.92342    132636.93   -33981.361    2589.6862   -36571.047    285.87583    242.94912 
   97450    137.74173   -1045.6014    132651.56   -33988.955    2601.4472   -36590.403    285.76782    244.05247 
   97500    137.97664   -1192.2286    132658.53   -33968.759    2605.8837   -36574.643    285.99815    244.46868 
   97550    135.18498   -1133.4036    132628.82   -34010.756    2553.1593   -36563.915    286.07649    239.52238 
   97600    139.22843   -1043.4253     132653.4   -34000.376    2629.5256   -36629.902    286.21226    246.68662 
   97650    136.70545   -1467.6517    132582.68   -34019.239    2581.8755   -36601.114    285.89934    242.21637 
   97700    135.99207   -1391.5806    132522.66   -34023.193    2568.4024   -36591.596    286.05678     240.9524 
   97750    138.15635   -1077.2348    132413.22   -34036.558    2609.2778   -36645.835    285.95422    244.78709 
   97800    140.22834   -1100.9536    132558.59   -34048.269    2648.4103   -36696.679    286.10689    248.45827 
   97850    138.52071   -1326.7809    132559.11    -34005.79    2616.1592    -36621.95    286.05478    245.43266 
   97900    137.59744   -1327.7381    132582.35   -33992.567     2598.722   -36591.289    286.14945    243.79681 
   97950    139.29521   -1441.0697     132540.8   -33943.102    2630.7869   -36573.889    286.05131    246.80494 
   98000    139.58167   -1462.2578    132537.06   -33947.655    2636.1969   -36583.852     286.5949    247.31248 
   98050    142.41048   -1215.8754    132542.22   -33886.544     2689.623   -36576.167    286.84446     252.3246 
   98100    137.53204   -1423.3459    132431.72   -33914.825    2597.4869   -36512.312    287.13079    243.68094 
   98150    138.07644   -1331.4231    132325.77   -33937.683    2607.7687   -36545.452    287.39153    244.64551 
   98200    137.42908   -1003.7046     132304.8   -33989.693    2595.5423   -36585.235    288.04635    243.49851 
   98250    137.32644    -1301.545    132325.15   -33997.543    2593.6039   -36591.147    288.50685    243.31665 
   98300    140.24787   -1225.1119     132332.4   -34020.655    2648.7792   -36669.435    288.64278    248.49288 
   98350    139.17164   -1135.5421    132279.02   -33996.795     2628.453   -36625.248    288.54708    246.58599 
   98400     138.8675   -1304.9288    132267.94   -34015.736    2622.7089   -36638.445    289.02592    246.04712 
   98450    142.04752   -1142.1545    132247.35   -33984.276     2682.768   -36667.044    288.87673    251.68151 
   98500    139.98196    -1067.141     132301.4   -33985.045     2643.757   -36628.802    289.33582    248.02172 
   98550    136.09892   -1269.0368    132355.47   -34052.448    2570.4203   -36622.868    289.52043    241.14171 
   98600    136.89554   -1338.4086    132312.79   -34035.908    2585.4656   -36621.373    289.70523    242.55317 
   98650    137.44084   -1412.0525    132305.94   -34004.302    2595.7644   -36600.066    289.68441    243.51934 
   98700    139.65529    -1378.357    132247.11   -33969.009    2637.5874   -36606.597    289.37515    247.44293 
   98750    138.07601    -1635.298    132066.82   -34016.809    2607.7605   -36624.569    289.49465    244.64474 
   98800    138.43829    -1175.012    132095.03   -34042.364    2614.6026   -36656.966    289.55281    245.28663 
   98850    136.79735   -1074.2467    132155.35   -34033.078    2583.6113   -36616.689    289.72885    242.37921 
   98900    136.33486   -1278.3858    132197.41   -34023.817    2574.8764   -36598.693     289.8658    241.55975 
   98950    137.38574   -1015.2282    132252.17   -34010.457    2594.7238    -36605.18    290.41788    243.42171 
   99000    139.81221    -1231.923    132386.95   -34005.216     2640.551   -36645.767     290.6717    247.72096 
   99050    135.96157    -1357.226    132432.63   -34044.468    2567.8264   -36612.295    290.65305    240.89836 
   99100    136.56441   -1458.4423    132366.57   -34006.488    2579.2118     -36585.7    290.69211    241.96647 
   99150    136.29727    -1230.516    132305.61   -34055.845    2574.1665   -36630.012    290.74149    241.49316 
   99200    138.80129   -1234.8058    132349.04   -34034.835    2621.4584   -36656.293      291.078     245.9298 
   99250    137.86221   -1236.3364    132325.73   -34044.368    2603.7226    -36648.09    291.59516    244.26593 
   99300    138.15075   -1340.4606    132260.94   -34022.403    2609.1721   -36631.575    291.56342    244.77717 
   99350    138.80396   -1131.2062    132306.76   -33977.303    2621.5088   -36598.812    291.50411    245.93453 
   99400    142.34806    -1484.035    132250.61   -33923.408    2688.4442   -36611.852    292.05685    252.21401 
   99450    139.93912   -1277.7187    132246.51   -33877.314     2642.948   -36520.262    292.30051    247.94583 
   99500    141.91897   -1145.0757    132315.46   -33919.489    2680.3402   -36599.829     292.3284    251.45374 
   99550    139.05564   -1064.2824    132291.96   -33917.606    2626.2621   -36543.868    292.41655    246.38046 
   99600    140.32154   -1354.1452    132257.84   -33965.984    2650.1704   -36616.154    292.86375    248.62339 
   99650    139.94005   -1485.4155    132162.75   -33985.249    2642.9656   -36628.214    292.55887    247.94748 
   99700    141.92794   -1190.1111    132150.24    -33962.84    2680.5096    -36643.35    292.79316    251.46964 
   99750    138.78114   -1514.5233    132110.48   -34018.869    2621.0779   -36639.947    292.91032    245.89411 
   99800    140.23558   -1244.6766    132041.39   -34021.439     2648.547   -36669.986    293.02703     248.4711 
   99850    141.75348   -982.36855    132170.37   -33940.298    2677.2146   -36617.513    293.24976    251.16052 
   99900     138.1561   -1215.5922    132264.25   -33992.389    2609.2731   -36601.662    293.68023    244.78665 
   99950     137.3036   -1132.1108    132261.49   -34001.992    2593.1724   -36595.164    293.72265    243.27618 
  100000    136.70229   -948.61492    132326.97   -34025.807    2581.8158   -36607.622    293.78996    242.21076 
Loop time of 54.9926 on 90 procs for 100000 steps with 6337 atoms

Performance: 785.560 ns/day, 0.031 hours/ns, 1818.426 timesteps/s
97.1% CPU use with 90 MPI tasks x no OpenMP threads

MPI task timing breakdown:
Section |  min time  |  avg time  |  max time  |%varavg| %total
---------------------------------------------------------------
Pair    | 6.8308     | 17.016     | 38.237     | 306.2 | 30.94
Neigh   | 0.57006    | 1.3101     | 3.3536     |  84.0 |  2.38
Comm    | 5.0357     | 19.1       | 41.39      | 309.0 | 34.73
Output  | 0.14702    | 0.14976    | 0.15809    |   0.5 |  0.27
Modify  | 3.3556     | 16.621     | 39.348     | 375.5 | 30.22
Other   |            | 0.7966     |            |       |  1.45

Nlocal:    70.4111 ave 155 max 41 min
Histogram: 60 0 0 5 10 0 0 0 1 14
Nghost:    709.244 ave 1044 max 436 min
Histogram: 30 0 0 18 12 0 0 0 15 15
Neighs:    0 ave 0 max 0 min
Histogram: 90 0 0 0 0 0 0 0 0 0
FullNghs:  5682.89 ave 18780 max 1556 min
Histogram: 60 0 0 0 15 0 0 0 0 15

Total # of neighbors = 511460
Ave neighs/atom = 80.7101
Neighbor list builds = 6120
Dangerous builds = 0

write_data		${DIR}/data.eq-${NAME}-${TEMP}
write_data		run_9/data.eq-${NAME}-${TEMP}
write_data		run_9/data.eq-het_freeze_9-${TEMP}
write_data		run_9/data.eq-het_freeze_9-248
undump          1

reset_timestep  0

unfix           2
unfix           3
unfix           4


################################################
#######         Run Simulation         #########
################################################

log				${DIR}/log.run_${NAME}
log				run_9/log.run_${NAME}
log				run_9/log.run_het_freeze_9
