LAMMPS data file via write_data, version 16 Mar 2018, timestep = 8000000

4560 atoms
2 atom types

0.0000000000000000e+00 4.9219999999999999e+01 xlo xhi
0.0000000000000000e+00 4.9019635930410494e+01 ylo yhi
7.7188332246027969e-01 3.3168116677540013e+01 zlo zhi

Masses

1 18.015
2 12.01

Atoms # atomic

147 2 0.0000000000000000e+00 2.8417180249513345e+00 2.9194138737833639e+00 0 0 0
149 2 0.0000000000000000e+00 0.0000000000000000e+00 2.9194138737833639e+00 0 0 0
151 2 1.2305000000000001e+00 7.1042950623783474e-01 2.9194138737833639e+00 0 0 0
158 2 1.2305000000000001e+00 2.1312885187134998e+00 2.9194138737833639e+00 0 0 0
160 2 2.4610000000000003e+00 2.8417180249513345e+00 2.9194138737833639e+00 0 0 0
162 2 2.4610000000000003e+00 0.0000000000000000e+00 2.9194138737833639e+00 0 0 0
164 2 3.6915000000000004e+00 7.1042950623783474e-01 2.9194138737833639e+00 0 0 0
179 2 3.6914999999999996e+00 2.1312885187134998e+00 2.9194138737833639e+00 0 0 0
181 2 4.9220000000000006e+00 2.8417180249513332e+00 2.9194138737833639e+00 0 0 0
183 2 4.9220000000000006e+00 0.0000000000000000e+00 2.9194138737833639e+00 0 0 0
185 2 6.1524999999999999e+00 7.1042950623783407e-01 2.9194138737833639e+00 0 0 0
208 2 6.1524999999999999e+00 2.1312885187134989e+00 2.9194138737833639e+00 0 0 0
210 2 7.3829999999999991e+00 2.8417180249513345e+00 2.9194138737833639e+00 0 0 0
212 2 7.3829999999999991e+00 0.0000000000000000e+00 2.9194138737833639e+00 0 0 0
214 2 8.6134999999999984e+00 7.1042950623783407e-01 2.9194138737833639e+00 0 0 0
245 2 8.6134999999999984e+00 2.1312885187135002e+00 2.9194138737833639e+00 0 0 0
247 2 9.8440000000000012e+00 2.8417180249513332e+00 2.9194138737833639e+00 0 0 0
249 2 9.8440000000000012e+00 0.0000000000000000e+00 2.9194138737833639e+00 0 0 0
251 2 1.1074500000000002e+01 7.1042950623783330e-01 2.9194138737833639e+00 0 0 0
290 2 1.1074500000000002e+01 2.1312885187135002e+00 2.9194138737833639e+00 0 0 0
154 2 0.0000000000000000e+00 4.2625770374269996e+00 2.9194138737833639e+00 0 0 0
156 2 1.2305000000000001e+00 4.9730065436648339e+00 2.9194138737833639e+00 0 0 0
171 2 1.2305000000000001e+00 6.3938655561404980e+00 2.9194138737833639e+00 0 0 0
175 2 2.4610000000000003e+00 4.2625770374269996e+00 2.9194138737833639e+00 0 0 0
177 2 3.6914999999999996e+00 4.9730065436648339e+00 2.9194138737833639e+00 0 0 0
200 2 3.6914999999999996e+00 6.3938655561404980e+00 2.9194138737833639e+00 0 0 0
152 2 0.0000000000000000e+00 7.1042950623783341e+00 2.9194138737833639e+00 0 0 0
173 2 2.4610000000000003e+00 7.1042950623783341e+00 2.9194138737833639e+00 0 0 0
204 2 4.9220000000000006e+00 4.2625770374269978e+00 2.9194138737833639e+00 0 0 0
206 2 6.1524999999999999e+00 4.9730065436648339e+00 2.9194138737833639e+00 0 0 0
237 2 6.1524999999999999e+00 6.3938655561404980e+00 2.9194138737833639e+00 0 0 0
241 2 7.3829999999999991e+00 4.2625770374269996e+00 2.9194138737833639e+00 0 0 0
202 2 4.9220000000000006e+00 7.1042950623783341e+00 2.9194138737833639e+00 0 0 0
239 2 7.3830000000000009e+00 7.1042950623783341e+00 2.9194138737833639e+00 0 0 0
243 2 8.6135000000000002e+00 4.9730065436648339e+00 2.9194138737833639e+00 0 0 0
282 2 8.6135000000000002e+00 6.3938655561404980e+00 2.9194138737833639e+00 0 0 0
286 2 9.8440000000000012e+00 4.2625770374270004e+00 2.9194138737833639e+00 0 0 0
288 2 1.1074500000000002e+01 4.9730065436648339e+00 2.9194138737833639e+00 0 0 0
329 2 1.1074500000000002e+01 6.3938655561404980e+00 2.9194138737833639e+00 0 0 0
284 2 9.8440000000000012e+00 7.1042950623783341e+00 2.9194138737833639e+00 0 0 0
167 2 0.0000000000000000e+00 8.5251540748539991e+00 2.9194138737833639e+00 0 0 0
169 2 1.2305000000000001e+00 9.2355835810918343e+00 2.9194138737833639e+00 0 0 0
196 2 2.4610000000000003e+00 8.5251540748539991e+00 2.9194138737833639e+00 0 0 0
198 2 3.6915000000000004e+00 9.2355835810918343e+00 2.9194138737833639e+00 0 0 0
165 2 0.0000000000000000e+00 1.1366872099805333e+01 2.9194138737833639e+00 0 0 0
192 2 1.2305000000000001e+00 1.0656442593567498e+01 2.9194138737833639e+00 0 0 0
194 2 2.4610000000000003e+00 1.1366872099805333e+01 2.9194138737833639e+00 0 0 0
229 2 3.6914999999999996e+00 1.0656442593567499e+01 2.9194138737833639e+00 0 0 0
233 2 4.9220000000000006e+00 8.5251540748539991e+00 2.9194138737833639e+00 0 0 0
235 2 6.1524999999999999e+00 9.2355835810918343e+00 2.9194138737833639e+00 0 0 0
278 2 7.3830000000000009e+00 8.5251540748539991e+00 2.9194138737833639e+00 0 0 0
231 2 4.9220000000000006e+00 1.1366872099805333e+01 2.9194138737833639e+00 0 0 0
274 2 6.1524999999999999e+00 1.0656442593567499e+01 2.9194138737833639e+00 0 0 0
276 2 7.3829999999999991e+00 1.1366872099805333e+01 2.9194138737833639e+00 0 0 0
280 2 8.6134999999999984e+00 9.2355835810918343e+00 2.9194138737833639e+00 0 0 0
325 2 9.8440000000000012e+00 8.5251540748539956e+00 2.9194138737833639e+00 0 0 0
327 2 1.1074500000000002e+01 9.2355835810918343e+00 2.9194138737833639e+00 0 0 0
321 2 8.6134999999999984e+00 1.0656442593567498e+01 2.9194138737833639e+00 0 0 0
323 2 9.8440000000000012e+00 1.1366872099805333e+01 2.9194138737833639e+00 0 0 0
368 2 1.1074500000000002e+01 1.0656442593567498e+01 2.9194138737833639e+00 0 0 0
370 2 1.2304999999999998e+01 1.1366872099805333e+01 2.9194138737833639e+00 0 0 0
148 2 0.0000000000000000e+00 1.4208590124756650e+00 6.0009325991704632e+00 0 0 0
150 2 0.0000000000000000e+00 0.0000000000000000e+00 6.0009325991704632e+00 0 0 0
159 2 1.2305000000000001e+00 2.1312885187134998e+00 6.0009325991704632e+00 0 0 0
161 2 2.4610000000000003e+00 1.4208590124756650e+00 6.0009325991704632e+00 0 0 0
163 2 2.4610000000000003e+00 0.0000000000000000e+00 6.0009325991704632e+00 0 0 0
180 2 3.6914999999999996e+00 2.1312885187134998e+00 6.0009325991704632e+00 0 0 0
157 2 1.2305000000000001e+00 3.5521475311891644e+00 6.0009325991704632e+00 0 0 0
178 2 3.6914999999999996e+00 3.5521475311891644e+00 6.0009325991704632e+00 0 0 0
182 2 4.9220000000000006e+00 1.4208590124756650e+00 6.0009325991704632e+00 0 0 0
184 2 4.9220000000000006e+00 0.0000000000000000e+00 6.0009325991704632e+00 0 0 0
209 2 6.1524999999999999e+00 2.1312885187134989e+00 6.0009325991704632e+00 0 0 0
211 2 7.3829999999999991e+00 1.4208590124756659e+00 6.0009325991704632e+00 0 0 0
213 2 7.3829999999999991e+00 0.0000000000000000e+00 6.0009325991704632e+00 0 0 0
207 2 6.1524999999999999e+00 3.5521475311891644e+00 6.0009325991704632e+00 0 0 0
246 2 8.6134999999999984e+00 2.1312885187135002e+00 6.0009325991704632e+00 0 0 0
248 2 9.8440000000000012e+00 1.4208590124756659e+00 6.0009325991704632e+00 0 0 0
250 2 9.8440000000000012e+00 0.0000000000000000e+00 6.0009325991704632e+00 0 0 0
291 2 1.1074500000000002e+01 2.1312885187135002e+00 6.0009325991704632e+00 0 0 0
244 2 8.6134999999999984e+00 3.5521475311891657e+00 6.0009325991704632e+00 0 0 0
289 2 1.1074500000000002e+01 3.5521475311891644e+00 6.0009325991704632e+00 0 0 0
153 2 0.0000000000000000e+00 5.6834360499026637e+00 6.0009325991704632e+00 0 0 0
155 2 0.0000000000000000e+00 4.2625770374269996e+00 6.0009325991704632e+00 0 0 0
172 2 1.2305000000000001e+00 6.3938655561404980e+00 6.0009325991704632e+00 0 0 0
174 2 2.4610000000000003e+00 5.6834360499026637e+00 6.0009325991704632e+00 0 0 0
176 2 2.4610000000000003e+00 4.2625770374269996e+00 6.0009325991704632e+00 0 0 0
201 2 3.6914999999999996e+00 6.3938655561404980e+00 6.0009325991704632e+00 0 0 0
170 2 1.2305000000000001e+00 7.8147245686161639e+00 6.0009325991704632e+00 0 0 0
199 2 3.6914999999999996e+00 7.8147245686161639e+00 6.0009325991704632e+00 0 0 0
203 2 4.9220000000000006e+00 5.6834360499026637e+00 6.0009325991704632e+00 0 0 0
205 2 4.9220000000000006e+00 4.2625770374269978e+00 6.0009325991704632e+00 0 0 0
238 2 6.1524999999999999e+00 6.3938655561404980e+00 6.0009325991704632e+00 0 0 0
240 2 7.3829999999999991e+00 5.6834360499026637e+00 6.0009325991704632e+00 0 0 0
242 2 7.3829999999999991e+00 4.2625770374269996e+00 6.0009325991704632e+00 0 0 0
236 2 6.1524999999999999e+00 7.8147245686161639e+00 6.0009325991704632e+00 0 0 0
283 2 8.6135000000000002e+00 6.3938655561404980e+00 6.0009325991704632e+00 0 0 0
285 2 9.8440000000000012e+00 5.6834360499026637e+00 6.0009325991704632e+00 0 0 0
287 2 9.8440000000000012e+00 4.2625770374270004e+00 6.0009325991704632e+00 0 0 0
330 2 1.1074500000000002e+01 6.3938655561404980e+00 6.0009325991704632e+00 0 0 0
281 2 8.6135000000000002e+00 7.8147245686161639e+00 6.0009325991704632e+00 0 0 0
328 2 1.1074500000000002e+01 7.8147245686161639e+00 6.0009325991704632e+00 0 0 0
166 2 0.0000000000000000e+00 9.9460130873296642e+00 6.0009325991704632e+00 0 0 0
168 2 0.0000000000000000e+00 8.5251540748539991e+00 6.0009325991704632e+00 0 0 0
195 2 2.4610000000000003e+00 9.9460130873296642e+00 6.0009325991704632e+00 0 0 0
197 2 2.4610000000000003e+00 8.5251540748539991e+00 6.0009325991704632e+00 0 0 0
191 2 1.2305000000000001e+00 1.2077301606043163e+01 6.0009325991704632e+00 0 0 0
193 2 1.2305000000000001e+00 1.0656442593567498e+01 6.0009325991704632e+00 0 0 0
228 2 3.6914999999999996e+00 1.2077301606043163e+01 6.0009325991704632e+00 0 0 0
230 2 3.6914999999999996e+00 1.0656442593567499e+01 6.0009325991704632e+00 0 0 0
232 2 4.9220000000000006e+00 9.9460130873296642e+00 6.0009325991704632e+00 0 0 0
234 2 4.9220000000000006e+00 8.5251540748539991e+00 6.0009325991704632e+00 0 0 0
277 2 7.3830000000000009e+00 9.9460130873296642e+00 6.0009325991704632e+00 0 0 0
279 2 7.3830000000000009e+00 8.5251540748539991e+00 6.0009325991704632e+00 0 0 0
273 2 6.1524999999999999e+00 1.2077301606043163e+01 6.0009325991704632e+00 0 0 0
275 2 6.1524999999999999e+00 1.0656442593567499e+01 6.0009325991704632e+00 0 0 0
322 2 8.6134999999999984e+00 1.0656442593567498e+01 6.0009325991704632e+00 0 0 0
367 2 1.1074500000000002e+01 1.2077301606043163e+01 6.0009325991704632e+00 0 0 0
369 2 1.1074500000000002e+01 1.0656442593567498e+01 6.0009325991704632e+00 0 0 0
324 2 9.8440000000000012e+00 9.9460130873296642e+00 6.0009325991704632e+00 0 0 0
326 2 9.8440000000000012e+00 8.5251540748539956e+00 6.0009325991704632e+00 0 0 0
320 2 8.6135000000000002e+00 1.2077301606043163e+01 6.0009325991704632e+00 0 0 0
476 2 0.0000000000000000e+00 2.8417180249513345e+00 9.0824513245555227e+00 0 0 0
477 2 0.0000000000000000e+00 0.0000000000000000e+00 9.0824513245555227e+00 0 0 0
478 2 1.2305000000000001e+00 7.1042950623783474e-01 9.0824513245555227e+00 0 0 0
482 2 1.2305000000000001e+00 2.1312885187134998e+00 9.0824513245555227e+00 0 0 0
483 2 2.4610000000000003e+00 2.8417180249513345e+00 9.0824513245555227e+00 0 0 0
484 2 2.4610000000000003e+00 0.0000000000000000e+00 9.0824513245555227e+00 0 0 0
485 2 3.6915000000000004e+00 7.1042950623783474e-01 9.0824513245555227e+00 0 0 0
493 2 3.6914999999999996e+00 2.1312885187134998e+00 9.0824513245555227e+00 0 0 0
4342 1 1.3996259531220963e+00 4.0945659540262724e+00 1.1857617641094535e+01 -1 1 0
5 1 2.0989601670607487e+00 1.5290322315983818e+00 1.1726722615053706e+01 0 0 -1
494 2 4.9220000000000006e+00 2.8417180249513332e+00 9.0824513245555227e+00 0 0 0
495 2 4.9220000000000006e+00 0.0000000000000000e+00 9.0824513245555227e+00 0 0 0
496 2 6.1524999999999999e+00 7.1042950623783407e-01 9.0824513245555227e+00 0 0 0
508 2 6.1524999999999999e+00 2.1312885187134989e+00 9.0824513245555227e+00 0 0 0
509 2 7.3829999999999991e+00 2.8417180249513345e+00 9.0824513245555227e+00 0 0 0
510 2 7.3829999999999991e+00 0.0000000000000000e+00 9.0824513245555227e+00 0 0 0
1189 1 6.2313951503637774e+00 3.1069514827913101e+00 1.2222102131360572e+01 -3 3 0
2233 1 2.0725518996642447e-01 6.7297906921288728e+00 1.5830056718339437e+01 -2 2 0
511 2 8.6134999999999984e+00 7.1042950623783407e-01 9.0824513245555227e+00 0 0 0
527 2 8.6134999999999984e+00 2.1312885187135002e+00 9.0824513245555227e+00 0 0 0
528 2 9.8440000000000012e+00 2.8417180249513332e+00 9.0824513245555227e+00 0 0 0
529 2 9.8440000000000012e+00 0.0000000000000000e+00 9.0824513245555227e+00 0 0 0
530 2 1.1074500000000002e+01 7.1042950623783330e-01 9.0824513245555227e+00 0 0 0
550 2 1.1074500000000002e+01 2.1312885187135002e+00 9.0824513245555227e+00 0 0 0
4530 1 8.8713692674013149e+00 2.8812280360650084e+00 1.1495382623584486e+01 -1 0 0
480 2 0.0000000000000000e+00 4.2625770374269996e+00 9.0824513245555227e+00 0 0 0
481 2 1.2305000000000001e+00 4.9730065436648339e+00 9.0824513245555227e+00 0 0 0
489 2 1.2305000000000001e+00 6.3938655561404980e+00 9.0824513245555227e+00 0 0 0
491 2 2.4610000000000003e+00 4.2625770374269996e+00 9.0824513245555227e+00 0 0 0
492 2 3.6914999999999996e+00 4.9730065436648339e+00 9.0824513245555227e+00 0 0 0
504 2 3.6914999999999996e+00 6.3938655561404980e+00 9.0824513245555227e+00 0 0 0
479 2 0.0000000000000000e+00 7.1042950623783341e+00 9.0824513245555227e+00 0 0 0
490 2 2.4610000000000003e+00 7.1042950623783341e+00 9.0824513245555227e+00 0 0 0
3332 1 3.0315264455170761e+00 6.3819229569558571e+00 1.1987525777457348e+01 3 0 0
3468 1 5.5056962614724387e+00 5.2871754225132142e+00 1.1161730865782152e+01 2 1 0
506 2 4.9220000000000006e+00 4.2625770374269978e+00 9.0824513245555227e+00 0 0 0
507 2 6.1524999999999999e+00 4.9730065436648339e+00 9.0824513245555227e+00 0 0 0
523 2 6.1524999999999999e+00 6.3938655561404980e+00 9.0824513245555227e+00 0 0 0
525 2 7.3829999999999991e+00 4.2625770374269996e+00 9.0824513245555227e+00 0 0 0
505 2 4.9220000000000006e+00 7.1042950623783341e+00 9.0824513245555227e+00 0 0 0
524 2 7.3830000000000009e+00 7.1042950623783341e+00 9.0824513245555227e+00 0 0 0
3235 1 7.0090966868929003e+00 7.3880634560269005e+00 1.1982824012737689e+01 3 3 0
2146 1 1.0896836584793707e+01 4.6574298690593308e+00 1.1859397779153021e+01 2 0 -1
3371 1 9.7890870421574245e+00 7.0960819881795008e+00 1.1612531725938604e+01 0 4 0
526 2 8.6135000000000002e+00 4.9730065436648339e+00 9.0824513245555227e+00 0 0 0
546 2 8.6135000000000002e+00 6.3938655561404980e+00 9.0824513245555227e+00 0 0 0
548 2 9.8440000000000012e+00 4.2625770374270004e+00 9.0824513245555227e+00 0 0 0
549 2 1.1074500000000002e+01 4.9730065436648339e+00 9.0824513245555227e+00 0 0 0
570 2 1.1074500000000002e+01 6.3938655561404980e+00 9.0824513245555227e+00 0 0 0
547 2 9.8440000000000012e+00 7.1042950623783341e+00 9.0824513245555227e+00 0 0 0
2048 1 1.8474402464868298e+00 8.9605760800553043e+00 1.1545122003719472e+01 1 1 -1
487 2 0.0000000000000000e+00 8.5251540748539991e+00 9.0824513245555227e+00 0 0 0
488 2 1.2305000000000001e+00 9.2355835810918343e+00 9.0824513245555227e+00 0 0 0
502 2 2.4610000000000003e+00 8.5251540748539991e+00 9.0824513245555227e+00 0 0 0
503 2 3.6915000000000004e+00 9.2355835810918343e+00 9.0824513245555227e+00 0 0 0
486 2 0.0000000000000000e+00 1.1366872099805333e+01 9.0824513245555227e+00 0 0 0
500 2 1.2305000000000001e+00 1.0656442593567498e+01 9.0824513245555227e+00 0 0 0
501 2 2.4610000000000003e+00 1.1366872099805333e+01 9.0824513245555227e+00 0 0 0
519 2 3.6914999999999996e+00 1.0656442593567499e+01 9.0824513245555227e+00 0 0 0
3213 1 3.5568471091512532e+00 1.0921011277767636e+01 1.2130779475917562e+01 1 -1 -1
521 2 4.9220000000000006e+00 8.5251540748539991e+00 9.0824513245555227e+00 0 0 0
522 2 6.1524999999999999e+00 9.2355835810918343e+00 9.0824513245555227e+00 0 0 0
544 2 7.3830000000000009e+00 8.5251540748539991e+00 9.0824513245555227e+00 0 0 0
520 2 4.9220000000000006e+00 1.1366872099805333e+01 9.0824513245555227e+00 0 0 0
542 2 6.1524999999999999e+00 1.0656442593567499e+01 9.0824513245555227e+00 0 0 0
543 2 7.3829999999999991e+00 1.1366872099805333e+01 9.0824513245555227e+00 0 0 0
4465 1 6.0817714295785024e+00 9.9130766463557869e+00 1.1696569222774015e+01 -2 -3 0
3192 1 1.1251156864702223e+01 9.3536803503177666e+00 1.1782675301957918e+01 -1 -1 -1
545 2 8.6134999999999984e+00 9.2355835810918343e+00 9.0824513245555227e+00 0 0 0
568 2 9.8440000000000012e+00 8.5251540748539956e+00 9.0824513245555227e+00 0 0 0
569 2 1.1074500000000002e+01 9.2355835810918343e+00 9.0824513245555227e+00 0 0 0
566 2 8.6134999999999984e+00 1.0656442593567498e+01 9.0824513245555227e+00 0 0 0
567 2 9.8440000000000012e+00 1.1366872099805333e+01 9.0824513245555227e+00 0 0 0
590 2 1.1074500000000002e+01 1.0656442593567498e+01 9.0824513245555227e+00 0 0 0
591 2 1.2304999999999998e+01 1.1366872099805333e+01 9.0824513245555227e+00 0 0 0
27 1 4.6197213987951438e+00 8.9206658011920381e-01 1.1639582475167146e+01 0 0 0
45 1 1.9070710067624166e+00 2.3543697340827476e+00 1.4659059801873839e+01 3 2 0
2082 1 8.5908288951021738e+00 9.8766326797883295e+00 1.5459553929598014e+01 1 2 0
2066 1 7.3017069370065757e+00 1.0583287957468444e+00 1.5584668326103506e+01 -1 -2 1
2299 1 6.0775561453192743e+00 3.3678926933229012e+00 1.4991255458927368e+01 1 -3 0
1080 1 1.1740555705868569e+01 2.5301526746962741e+00 1.5533211653866850e+01 -1 1 0
2087 1 9.8801587507599695e+00 6.4613072203636390e-01 1.4906775077197613e+01 1 -3 0
3294 1 1.1270296363915298e+01 9.4955597537602632e+00 1.4618558029642214e+01 -1 -2 0
2239 1 3.6850657463860341e+00 4.1910427403719446e+00 1.5335318797940419e+01 0 3 -1
3126 1 2.8808197633583377e+00 6.5592113390068798e+00 1.4685252913283009e+01 0 -1 0
3327 1 6.7764499584047337e+00 7.6194398950246267e+00 1.4806024535498310e+01 -1 2 -1
3570 1 8.0319808978821374e+00 5.4492031260915548e+00 1.5628301501812237e+01 1 2 0
2305 1 1.0583517008881639e+01 4.8721765878448542e+00 1.4741798366956656e+01 0 8 0
3480 1 3.1825673680757620e+00 1.0884540913719364e+01 1.4800128559673634e+01 0 3 0
1161 1 4.7503940936895672e-01 1.1132687382066276e+01 1.5869369757567684e+01 -2 0 0
4521 1 4.2796236262238132e+00 8.5842660010750667e+00 1.5710647124755813e+01 -3 -1 0
999 1 7.9978183741007784e+00 1.1952176402932023e+01 1.1740537340632176e+01 -1 -1 0
1136 1 3.0732517329651738e+00 4.2491292343078253e-02 1.5362481011830885e+01 2 2 0
1028 1 9.8924594169301585e+00 3.6923030061341222e-01 1.2188676941450170e+01 0 -2 0
2312 1 1.0463049640867021e+01 1.2213420939070311e+01 1.1112798925540924e+01 -2 1 0
2339 1 1.9770472129449796e+00 2.4269714702846761e+00 1.9253178065032689e+01 1 -2 0
3477 1 3.8904006952080477e+00 4.2096368919915541e+00 1.8327288020933896e+01 2 0 0
2026 1 7.2602641862422548e+00 9.0449125948963049e-01 1.8293135545979304e+01 2 1 0
3251 1 6.3360126597601329e+00 3.3770347901249567e+00 1.9120055215947325e+01 1 0 0
1964 1 1.1608873303211441e+01 2.5090205981180480e+00 1.8066419881690809e+01 -3 -1 0
2399 1 9.9434244911075549e+00 4.8934550412822186e-01 1.9129141351533743e+01 1 -1 0
4335 1 2.5828188658375146e+00 6.3614325162550731e+00 1.9537265651981887e+01 0 -1 0
3398 1 1.1677946970735034e+01 9.4539874253248524e+00 2.1809044535906388e+01 -1 -3 -1
1109 1 8.0836674208105439e+00 5.3281322450654827e+00 1.8321030848896591e+01 2 2 -1
4338 1 6.9513675226033644e+00 7.7498071419717869e+00 1.9445255808800958e+01 -2 -1 0
85 1 1.0624501368406525e+01 4.7519406239785349e+00 1.9377796960355539e+01 5 1 0
4308 1 3.5106903533031550e+00 1.0857614408140165e+01 1.9367618822573714e+01 3 3 0
2005 1 7.7426880069249737e-01 1.1291973450422601e+01 1.8610823310041884e+01 2 2 0
962 1 4.3100014869787913e+00 8.3385218586668852e+00 1.8438591757051537e+01 1 1 0
2149 1 8.5040680475954780e+00 9.4833133840053474e+00 1.8135236328641618e+01 -2 -1 0
1208 1 1.1194557916071501e+01 8.9781154613715675e+00 1.9213472480254197e+01 -2 0 0
1060 1 2.1645579265514732e+00 2.1005121481239115e+00 2.1999686695546352e+01 2 0 0
4376 1 7.5745135752640733e+00 1.0661876683107117e+00 2.3044798867076207e+01 -2 -1 0
4531 1 6.5272768386518507e+00 3.4251226459585569e+00 2.2080896204865670e+01 4 -2 0
993 1 1.0037896253063362e+01 6.7566902845144050e-01 2.1884296988575521e+01 -3 -2 -1
2055 1 1.1726684916763531e+01 2.5243410004621016e+00 2.2781880064046877e+01 -1 3 0
2391 1 4.1417984121825118e+00 3.8354612510862616e+00 2.3166701663088990e+01 1 -1 -1
1231 1 2.8257522504454426e+00 6.0492132459521279e+00 2.2128862979387975e+01 -1 -2 0
1991 1 9.1397360363281717e+00 9.7182568077642362e+00 2.3093693225913061e+01 -3 2 -1
919 1 4.5336895515537901e+00 8.3011306840631498e+00 2.2752169268358912e+01 1 1 -1
60 1 7.2770327565736661e+00 7.9284027201927874e+00 2.2385075870271987e+01 -2 2 0
3190 1 8.3519455258093096e+00 5.1537288493746694e+00 2.2870823502094897e+01 4 0 0
2320 1 1.0905591246418039e+01 4.9171201257827253e+00 2.2024449454287659e+01 3 2 0
4467 1 3.4580673034287410e+00 1.0628703565424725e+01 2.2195123395962767e+01 0 -3 0
4251 1 8.7334113142845093e-01 1.1022453183761714e+01 2.2937425480837671e+01 2 1 0
141 1 5.8139000015573553e-02 6.7995755207825255e+00 1.8453001736711499e+01 0 1 0
4267 1 2.5388242005996692e-01 6.6404500550116712e+00 2.2901273051881631e+01 0 0 0
3513 1 1.2261435408803171e+01 6.6931209252126864e+00 1.8158297068519367e+01 -1 3 0
3320 1 8.1202751541120648e+00 1.2041412941896008e+01 1.9401319850489408e+01 0 0 0
3420 1 7.9178427537091274e+00 1.2155495048941237e+01 2.2416671933912923e+01 2 1 -1
2321 1 3.0263374193228914e+00 4.7129478727342189e-02 1.8128842247558925e+01 1 1 0
1997 1 1.9370973259638546e+00 2.3485071785578611e+00 2.6901047721560904e+01 1 -1 0
3210 1 4.1208381237852558e+00 3.9154561280669369e+00 2.5919935741771575e+01 0 -1 0
2009 1 1.1781129986987587e+01 9.2046018567069119e+00 2.9181156244840860e+01 0 -1 0
3576 1 6.6601634373330745e+00 3.0566288646285398e+00 2.6789058938038139e+01 1 0 0
4457 1 7.7518455577175445e+00 7.1344774167965863e-01 2.5849999952132038e+01 1 0 0
4238 1 1.1860901838069438e+01 2.3914448986977312e+00 2.5603994487162570e+01 1 2 0
925 1 1.0173242774181674e+01 7.8618387954952174e-01 2.7040523483302739e+01 -1 -2 0
10 1 2.7294090569515466e+00 6.3199478048789359e+00 2.6572464216121617e+01 4 0 0
2136 1 5.1369617888346211e+00 3.8253309889476761e-01 3.2641330448377389e+01 1 1 -1
1232 1 8.3207282150486535e+00 5.2030991829541478e+00 2.5597428861120346e+01 -1 0 1
2121 1 7.0592615948092652e+00 7.5328933427633959e+00 2.6524878790447573e+01 -1 0 0
4310 1 1.0985084540730833e+01 4.9410816762183245e+00 2.6240147827354367e+01 0 -1 -1
858 1 1.1504350847595486e+00 1.1314426480335626e+01 2.5510597277493240e+01 0 4 0
4299 1 3.4599785575527489e+00 1.0543677773718519e+01 2.6622555853968862e+01 1 1 -1
4382 1 4.4347382216141282e+00 8.2691835151867323e+00 2.5447863971637997e+01 -2 5 0
67 1 7.3713964997151500e+00 7.3615679935004357e+00 3.2730016676790740e+01 -2 0 0
88 1 8.8946400744250891e+00 9.5363460191095673e+00 2.5651857246582363e+01 -2 0 0
1070 1 1.1559926113871546e+01 9.2610129430480832e+00 2.6558722424556915e+01 1 3 -1
3478 1 2.3954007495430560e+00 7.0666728458020012e-01 2.9510773017991966e+01 -1 0 0
89 1 2.3921376840351121e+00 8.0304729575962042e-01 3.2446111246563888e+01 2 0 1
2220 1 1.5077637159937813e+00 3.7802941216269699e+00 2.9476390464658255e+01 2 -1 0
1092 1 1.7034333926868530e+00 3.6998105519823099e+00 3.2443060540974244e+01 -2 2 0
1983 1 6.6180345571277428e+00 2.7740670813367823e+00 2.9883181853580279e+01 3 -2 0
4303 1 6.9658354069907160e+00 2.4457775015710426e+00 3.2956247608596712e+01 -2 1 -1
2222 1 1.0652494231748262e+01 1.1630184575758703e+01 3.0087408710892205e+01 -1 1 -1
1005 1 1.1226316043820042e+01 4.5678899649385860e+00 2.9208449019198952e+01 -1 -1 0
40 1 9.5075281280303283e+00 2.2526701854802962e+00 2.9507790137681468e+01 -1 2 0
4500 1 9.5403789590568522e+00 1.8701963949108444e+00 3.2548773564046769e+01 1 0 -1
893 1 1.1267157675359597e+01 8.9778326992020627e+00 3.2257951623314725e+01 2 -2 0
107 1 2.9014540010136138e+00 6.1910212211675351e+00 2.9497517111493881e+01 2 -2 0
3364 1 2.9885701872354544e+00 6.0061943993817648e+00 3.2688933839171796e+01 1 0 0
2260 1 1.0794276008950094e+01 4.1575115180270448e+00 3.2465310636787414e+01 0 3 -1
3502 1 7.3162931660301407e+00 7.5835240826784558e+00 2.9085047103560068e+01 1 2 1
1990 1 5.6748717348699680e+00 4.9869643801789927e+00 3.2828360528342273e+01 0 0 0
917 1 5.5520496308970637e+00 5.4438571020818598e+00 2.9836870452350766e+01 0 2 0
1222 1 5.2138318736800322e+00 1.9712354378800981e-01 2.9400778256182946e+01 -2 -2 0
2229 1 9.9937312409995407e+00 6.8568171372442759e+00 2.9944730941099859e+01 0 2 0
4470 1 3.6961373330807175e+00 1.0781678790487669e+01 3.2605533100622651e+01 2 -1 0
840 1 1.8704365757976413e+00 8.5343882356842684e+00 3.2588807831528868e+01 -1 2 0
4264 1 4.1051878228647878e+00 1.0857487472352373e+01 2.9424285246902251e+01 0 1 0
1230 1 2.0374855920393178e+00 8.8679886582476364e+00 2.9909767984422643e+01 2 1 0
1090 1 6.3802203363602983e+00 9.8408503761416188e+00 3.2687209949799239e+01 1 3 -1
4554 1 6.6553702998864921e+00 9.9507253675266867e+00 3.0065581816883423e+01 -2 -2 0
4336 1 9.9573314903552763e+00 6.6994357480492761e+00 3.2937619781132483e+01 0 -2 -1
3124 1 8.0661482862598479e+00 1.1873306476142579e+01 2.6764215432932730e+01 0 -1 0
2025 1 3.3141789282317119e-01 6.7951983692003353e+00 2.5681567636804470e+01 -1 -2 0
4404 1 7.8400789830250002e+00 1.2159594555963585e+01 3.2746687896676448e+01 2 1 0
1308 1 8.0677672070617810e+00 1.2141627217995335e+01 2.9604866506242956e+01 1 -2 1
2006 1 2.9274520738324359e+00 6.0442251033463401e-02 2.5585799387326883e+01 0 -2 1
3582 1 1.0661006692208987e+01 1.1677046187409459e+01 3.3117278893786434e+01 0 -1 0
188 2 0.0000000000000000e+00 1.2787731112280996e+01 2.9194138737833639e+00 0 0 0
190 2 1.2305000000000001e+00 1.3498160618518829e+01 2.9194138737833639e+00 0 0 0
225 2 2.4610000000000003e+00 1.2787731112280996e+01 2.9194138737833639e+00 0 0 0
227 2 3.6915000000000004e+00 1.3498160618518829e+01 2.9194138737833639e+00 0 0 0
186 2 0.0000000000000000e+00 1.5629449137232333e+01 2.9194138737833639e+00 0 0 0
221 2 1.2305000000000001e+00 1.4919019630994494e+01 2.9194138737833639e+00 0 0 0
223 2 2.4610000000000003e+00 1.5629449137232328e+01 2.9194138737833639e+00 0 0 0
266 2 3.6915000000000004e+00 1.4919019630994494e+01 2.9194138737833639e+00 0 0 0
270 2 4.9220000000000006e+00 1.2787731112280996e+01 2.9194138737833639e+00 0 0 0
272 2 6.1524999999999990e+00 1.3498160618518829e+01 2.9194138737833639e+00 0 0 0
317 2 7.3829999999999991e+00 1.2787731112280996e+01 2.9194138737833639e+00 0 0 0
268 2 4.9220000000000006e+00 1.5629449137232333e+01 2.9194138737833639e+00 0 0 0
313 2 6.1524999999999990e+00 1.4919019630994494e+01 2.9194138737833639e+00 0 0 0
315 2 7.3829999999999991e+00 1.5629449137232333e+01 2.9194138737833639e+00 0 0 0
319 2 8.6135000000000002e+00 1.3498160618518835e+01 2.9194138737833639e+00 0 0 0
364 2 9.8440000000000012e+00 1.2787731112280996e+01 2.9194138737833639e+00 0 0 0
366 2 1.1074500000000002e+01 1.3498160618518829e+01 2.9194138737833639e+00 0 0 0
360 2 8.6135000000000002e+00 1.4919019630994494e+01 2.9194138737833639e+00 0 0 0
362 2 9.8440000000000012e+00 1.5629449137232328e+01 2.9194138737833639e+00 0 0 0
402 2 1.1074500000000002e+01 1.4919019630994494e+01 2.9194138737833639e+00 0 0 0
217 2 0.0000000000000000e+00 1.7050308149707998e+01 2.9194138737833639e+00 0 0 0
262 2 2.4610000000000003e+00 1.7050308149707998e+01 2.9194138737833639e+00 0 0 0
215 2 0.0000000000000000e+00 1.9892026174659328e+01 2.9194138737833639e+00 0 0 0
219 2 1.2305000000000001e+00 1.7760737655945832e+01 2.9194138737833639e+00 0 0 0
258 2 1.2305000000000001e+00 1.9181596668421495e+01 2.9194138737833639e+00 0 0 0
260 2 2.4610000000000003e+00 1.9892026174659328e+01 2.9194138737833639e+00 0 0 0
264 2 3.6914999999999996e+00 1.7760737655945832e+01 2.9194138737833639e+00 0 0 0
305 2 3.6914999999999996e+00 1.9181596668421495e+01 2.9194138737833639e+00 0 0 0
309 2 4.9220000000000006e+00 1.7050308149707998e+01 2.9194138737833639e+00 0 0 0
356 2 7.3830000000000009e+00 1.7050308149707998e+01 2.9194138737833639e+00 0 0 0
307 2 4.9220000000000006e+00 1.9892026174659328e+01 2.9194138737833639e+00 0 0 0
311 2 6.1524999999999999e+00 1.7760737655945832e+01 2.9194138737833639e+00 0 0 0
352 2 6.1524999999999999e+00 1.9181596668421495e+01 2.9194138737833639e+00 0 0 0
354 2 7.3829999999999991e+00 1.9892026174659328e+01 2.9194138737833639e+00 0 0 0
398 2 9.8440000000000012e+00 1.7050308149707998e+01 2.9194138737833639e+00 0 0 0
432 2 1.2304999999999998e+01 1.7050308149707998e+01 2.9194138737833639e+00 0 0 0
358 2 8.6134999999999984e+00 1.7760737655945832e+01 2.9194138737833639e+00 0 0 0
394 2 8.6135000000000002e+00 1.9181596668421495e+01 2.9194138737833639e+00 0 0 0
396 2 9.8440000000000012e+00 1.9892026174659335e+01 2.9194138737833639e+00 0 0 0
400 2 1.1074500000000002e+01 1.7760737655945835e+01 2.9194138737833639e+00 0 0 0
428 2 1.1074500000000002e+01 1.9181596668421495e+01 2.9194138737833639e+00 0 0 0
252 2 0.0000000000000000e+00 2.4154603212086325e+01 2.9194138737833639e+00 0 0 0
254 2 0.0000000000000000e+00 2.1312885187134999e+01 2.9194138737833639e+00 0 0 0
256 2 1.2304999999999993e+00 2.2023314693372832e+01 2.9194138737833639e+00 0 0 0
297 2 1.2304999999999993e+00 2.3444173705848499e+01 2.9194138737833639e+00 0 0 0
299 2 2.4610000000000003e+00 2.4154603212086325e+01 2.9194138737833639e+00 0 0 0
301 2 2.4610000000000003e+00 2.1312885187134995e+01 2.9194138737833639e+00 0 0 0
303 2 3.6914999999999996e+00 2.2023314693372832e+01 2.9194138737833639e+00 0 0 0
344 2 3.6915000000000004e+00 2.3444173705848499e+01 2.9194138737833639e+00 0 0 0
346 2 4.9220000000000006e+00 2.4154603212086325e+01 2.9194138737833639e+00 0 0 0
348 2 4.9220000000000006e+00 2.1312885187134995e+01 2.9194138737833639e+00 0 0 0
350 2 6.1524999999999990e+00 2.2023314693372832e+01 2.9194138737833639e+00 0 0 0
386 2 6.1524999999999999e+00 2.3444173705848499e+01 2.9194138737833639e+00 0 0 0
388 2 7.3830000000000009e+00 2.4154603212086336e+01 2.9194138737833639e+00 0 0 0
390 2 7.3829999999999991e+00 2.1312885187134999e+01 2.9194138737833639e+00 0 0 0
392 2 8.6135000000000002e+00 2.2023314693372832e+01 2.9194138737833639e+00 0 0 0
420 2 8.6134999999999984e+00 2.3444173705848499e+01 2.9194138737833639e+00 0 0 0
422 2 9.8440000000000012e+00 2.4154603212086336e+01 2.9194138737833639e+00 0 0 0
424 2 9.8440000000000012e+00 2.1312885187134999e+01 2.9194138737833639e+00 0 0 0
426 2 1.1074500000000002e+01 2.2023314693372832e+01 2.9194138737833639e+00 0 0 0
446 2 1.1074500000000002e+01 2.3444173705848499e+01 2.9194138737833639e+00 0 0 0
189 2 0.0000000000000000e+00 1.2787731112280996e+01 6.0009325991704632e+00 0 0 0