
# Create simulation box and atoms

read_data data.ML_graphite_m1000atm_250K
  orthogonal box = (0 0 1.24595) to (49.22 49.0196 32.694)
  4 by 4 by 4 MPI processor grid
  reading atoms ...
  4560 atoms
  reading velocities ...
  4560 velocities
group water type 1
1800 atoms in group water
group graphite type 2
2760 atoms in group graphite

# Define potential

pair_style sw
pair_coeff * * MLC_e.sw mW C


# Fix graphite atoms in place

fix 5 graphite setforce 0.0 0.0 0.0
velocity graphite set 0.0 0.0 0.0


# Equilibration of molecular water

# Add velocity/set timestep

velocity	    water create ${TEMP} ${SEED} rot yes dist gaussian
velocity	    water create 250 ${SEED} rot yes dist gaussian
velocity	    water create 250 15011 rot yes dist gaussian
timestep	    5.0

# Define output

compute			1 water msd
compute			3 water temp
thermo	    	50
thermo_style	custom step temp press vol etotal ke pe c_1[4] c_3

# Neighbor lists

neigh_modify    delay 0 every 1 check yes

# Set fixes

fix             1 water momentum 10 linear 1 1 1 rescale
fix             2 water nve
fix             3 water temp/csvr ${TEMP} ${TEMP} 500.0 ${SEED}
fix             3 water temp/csvr 250 ${TEMP} 500.0 ${SEED}
fix             3 water temp/csvr 250 250 500.0 ${SEED}
fix             3 water temp/csvr 250 250 500.0 15011
fix             4 water press/berendsen z ${PRES} ${PRES} 1000.0 modulus 20000
fix             4 water press/berendsen z -1000 ${PRES} 1000.0 modulus 20000
fix             4 water press/berendsen z -1000 -1000 1000.0 modulus 20000

# Run 0.5 ns equilibration

dump		    1 all atom 2000 ${DIR}/eq.${NAME}-${TEMP}.dump
dump		    1 all atom 2000 run_5/eq.${NAME}-${TEMP}.dump
dump		    1 all atom 2000 run_5/eq.het_freeze_5-${TEMP}.dump
dump		    1 all atom 2000 run_5/eq.het_freeze_5-250.dump

reset_timestep  0

run	            100000
Neighbor list info ...
  update every 1 steps, delay 0 steps, check yes
  max neighbors/atom: 2000, page size: 100000
  master list distance cutoff = 6.67472
  ghost atom cutoff = 6.67472
  binsize = 3.33736, bins = 15 15 10
  1 neighbor lists, perpetual/occasional/extra = 1 0 0
  (1) pair sw, perpetual
      attributes: full, newton on
      pair build: full/bin/atomonly
      stencil: full/bin/3d
      bin: standard
Per MPI rank memory allocation (min/avg/max) = 4.068 | 4.29 | 4.492 Mbytes
Step Temp Press Volume TotEng KinEng PotEng c_1[4] c_3 
       0     98.65102   -1309.4651    75876.271   -17199.746    1340.6193   -18540.366            0          250 
      50    96.952565   -1209.2729    75833.063   -17241.048    1317.5381   -18558.586   0.52599452     245.6958 
     100    99.255189   -1439.1566    75829.733    -17235.36    1348.8297   -18584.189   0.91431631    251.53108 
     150    100.57167    -1489.982    75818.092   -17218.385      1366.72   -18585.105     1.143517    254.86728 
     200    100.16749   -1786.2292    75764.828    -17220.56    1361.2274   -18581.787    1.4069088    253.84301 
     250    98.784844   -1579.0248    75705.186   -17243.601    1342.4379   -18586.039    1.6389176    250.33913 
     300    99.287906   -1103.5716    75722.611   -17225.646    1349.2743   -18574.921    1.8066569    251.61399 
     350    100.34517   -1354.6298    75765.482   -17187.895    1363.6421   -18551.537    2.0442007     254.2933 
     400    100.48465   -1588.2725    75691.033    -17193.54    1365.5375   -18559.078    2.2490932    254.64677 
     450    101.80006   -1395.9605     75633.25   -17198.438    1383.4132   -18581.851    2.4639421    257.98024 
     500    100.57383   -1688.1036    75638.417   -17190.619    1366.7494   -18557.369    2.7319323    254.87276 
     550    99.043284   -1160.6776     75636.16    -17242.13      1345.95    -18588.08    2.8955974    250.99407 
     600    101.32265   -1403.6346    75680.988    -17224.95    1376.9254   -18601.875    3.0916259     256.7704 
     650    101.13333   -1603.1303    75664.717   -17240.938    1374.3527   -18615.291    3.2266663    256.29063 
     700    94.302578   -1661.2718    75673.148   -17270.988    1281.5261   -18552.514    3.4044587    238.98024 
     750     97.70617   -1449.7628    75673.503   -17275.342    1327.7793   -18603.121     3.588117    247.60558 
     800    99.504422   -1046.0244    75633.257   -17285.037    1352.2166   -18637.254    3.7210507    252.16268 
     850    102.38342   -1416.4413    75650.493   -17252.206    1391.3408   -18643.547    3.8531615    259.45859 
     900    99.811255   -1229.6276    75605.235   -17245.201    1356.3863   -18601.587    4.0730764    252.94025 
     950    96.397341   -1095.1861    75701.453   -17250.155    1309.9929   -18560.148    4.1985762    244.28876 
    1000    99.391016   -1474.3281     75706.07   -17213.131    1350.6755   -18563.807    4.3429985    251.87529 
    1050    98.067793   -1562.7062    75771.793   -17230.574    1332.6935   -18563.267    4.5454287    248.52199 
    1100    96.199529   -1511.3266    75773.739   -17276.189    1307.3048   -18583.493    4.7787891    243.78747 
    1150    96.298516    -1369.877    75679.772   -17273.774    1308.6499   -18582.424    4.9898444    244.03832 
    1200    99.789638   -1202.6247    75697.831   -17269.636    1356.0926   -18625.729    5.2245605    252.88547 
    1250    96.765682   -1459.5436    75741.119   -17302.957    1314.9985   -18617.955    5.3998963     245.2222 
    1300    95.424263    -1209.075    75758.821   -17277.388    1296.7693   -18574.157    5.5847292     241.8228 
    1350    97.583512   -1373.7245    75770.423   -17270.394    1326.1124   -18596.507     5.856606    247.29474 
    1400    97.450015   -1185.9087    75831.115   -17287.639    1324.2983   -18611.937    5.9926137    246.95643 
    1450    95.433974   -1437.9944    75855.438   -17274.018    1296.9012   -18570.919    6.0943289    241.84741 
    1500    97.160715   -1374.2593     75817.01   -17327.547    1320.3668   -18647.914    6.2104553    246.22329 
    1550    95.066637   -1704.4459    75728.515   -17328.907    1291.9093   -18620.816    6.3439314    240.91651 
    1600    94.442798   -1513.2359    75703.871   -17308.961    1283.4316   -18592.392     6.441433    239.33559 
    1650    99.136188   -1547.6595    75601.717   -17308.033    1347.2125   -18655.246    6.6070034    251.22951 
    1700    97.959771    -1339.972    75520.119   -17282.662    1331.2256   -18613.888    6.8317981    248.24825 
    1750    98.481394   -1407.7427    75495.727   -17300.841    1338.3142   -18639.155    7.0078027    249.57014 
    1800    96.905513   -1431.5417    75500.007   -17287.461    1316.8987    -18604.36    7.2377696    245.57656 
    1850    96.788955     -1426.69    75545.095   -17324.201    1315.3148   -18639.516    7.4463286    245.28118 
    1900    96.881245   -1298.1016    75564.649   -17290.587    1316.5689   -18607.156     7.604553    245.51506 
    1950    98.325091   -1388.5788    75647.241   -17310.924    1336.1901   -18647.115    7.7240041    249.17404 
    2000    99.272497   -1327.3361    75680.676   -17285.294    1349.0649   -18634.359    7.9151789    251.57494 
    2050    98.266297   -1357.2293    75667.142   -17316.564    1335.3911   -18651.955    8.1422092    249.02504 
    2100    93.826353   -1350.5278    75626.356   -17366.846    1275.0544   -18641.901    8.3932162     237.7734 
    2150    97.910401   -1307.3488    75618.023   -17304.742    1330.5547   -18635.296    8.6094328    248.12313 
    2200    96.005835   -1382.0512    75659.152   -17300.401    1304.6726   -18605.074     8.857372    243.29661 
    2250    100.05504   -1317.6405    75679.067    -17259.96    1359.6992   -18619.659    8.9056877    253.55804 
    2300    97.650142   -1509.3955    75633.915   -17290.017    1327.0179   -18617.035    9.1444071    247.46359 
    2350    100.93045   -897.29853    75660.115    -17303.83    1371.5957   -18675.425    9.3880838     255.7765 
    2400    98.610075   -1187.3952    75668.473   -17308.549    1340.0629   -18648.612    9.5381418    249.89624 
    2450    99.600201   -1302.1159    75622.083   -17292.515    1353.5182   -18646.033     9.775914     252.4054 
    2500    102.09273   -1344.6893    75647.991   -17290.397    1387.3905   -18677.788    9.9108519    258.72194 
    2550    103.73686   -1373.8171    75678.936   -17241.747    1409.7334    -18651.48    9.9652583    262.88845 
    2600    99.398169   -1461.8741    75690.562   -17231.132    1350.7727   -18581.905    10.069853    251.89341 
    2650    99.833754   -1227.1056     75709.22    -17222.76    1356.6921   -18579.452    10.182739    252.99727 
    2700    99.223072   -1387.6932    75721.489   -17234.551    1348.3932   -18582.944     10.32733    251.44969 
    2750     103.5377   -1269.5946     75754.08    -17204.41    1407.0269   -18611.437    10.445434    262.38374 
    2800    101.59315   -1270.8181    75799.221    -17199.83    1380.6014   -18580.431    10.634245     257.4559 
    2850    102.58137   -1153.2074    75799.399   -17190.564    1394.0308   -18584.595    10.864562    259.96023 
    2900    100.57082   -1209.9104    75797.266   -17270.714    1366.7084   -18637.422    11.124945    254.86513 
    2950    100.17953   -1226.9427    75782.175   -17280.611     1361.391   -18642.003    11.249601    253.87353 
    3000    99.580199   -1034.4465    75836.781   -17327.918    1353.2464   -18681.165    11.433782    252.35471 
    3050    101.04025   -1268.5851    75866.338   -17277.151    1373.0878   -18650.239    11.743394    256.05475 
    3100    99.022354   -1193.5331    75875.397   -17265.622    1345.6656   -18611.288    12.030655    250.94103 
    3150    97.588987   -1219.5525    75812.565   -17260.704    1326.1868   -18586.891    12.278207    247.30861 
    3200    98.675458    -1353.854    75802.897   -17269.664    1340.9514   -18610.616    12.558971    250.06193 
    3250    98.201596   -1264.3299    75725.593   -17286.729    1334.5119   -18621.241    12.575613    248.86108 
    3300    95.669273    -1431.136    75739.433   -17265.998    1300.0988   -18566.096    12.664094     242.4437 
    3350    97.888132   -1038.7555    75722.859   -17258.893     1330.252   -18589.145    12.770818     248.0667 
    3400    102.30223   -1179.8659    75687.808   -17271.169    1390.2375   -18661.406    13.025886    259.25284 
    3450    98.361585   -1473.3463    75688.147   -17274.822     1336.686   -18611.508    13.274765    249.26652 
    3500    98.296296   -1292.1996    75656.644   -17262.647    1335.7988   -18598.446    13.272767    249.10106 
    3550     98.45634    -1156.132    75670.237   -17261.313    1337.9737   -18599.287    13.400955    249.50665 
    3600    100.81708   -1175.2424    75647.139   -17247.533    1370.0551   -18617.588    13.584213    255.48921 
    3650    98.548466   -1433.2745     75682.79   -17245.568    1339.2257   -18584.794    13.788972    249.74011 
    3700    98.542521   -1165.5042    75696.477   -17250.193    1339.1449   -18589.337    13.855333    249.72504 
    3750    99.497532   -1169.0322    75732.282   -17237.831     1352.123   -18589.954    14.153475    252.14522 
    3800     98.92283   -1216.6294    75725.838   -17240.533    1344.3131   -18584.846    14.320045    250.68882 
    3850      99.5658   -1337.0607    75747.621    -17259.01    1353.0507    -18612.06    14.407511    252.31822 
    3900    99.862229   -1197.1725    75790.582   -17271.475    1357.0791   -18628.554     14.40148    253.06943 
    3950    98.884807   -1281.8411    75863.511   -17255.833    1343.7964    -18599.63    14.546099    250.59246 
    4000    101.91373   -1472.1664    75898.437   -17260.006    1384.9579   -18644.964    14.634225     258.2683 
    4050    98.745409   -1324.9495    75883.798   -17266.281     1341.902   -18608.183    14.796166     250.2392 
    4100    96.510617   -1739.4038    75800.651   -17314.594    1311.5323   -18626.126    14.924988    244.57582 
    4150    97.674697   -1604.6299    75753.268   -17284.443    1327.3516   -18611.795    15.072991    247.52582 
    4200    98.660394   -1543.7832     75707.07   -17268.935    1340.7467   -18609.682    15.213023    250.02376 
    4250    98.573249    -1369.789    75747.307   -17277.734    1339.5625   -18617.296    15.300391    249.80291 
    4300    96.534204    -1186.938     75786.97   -17315.052    1311.8528   -18626.905    15.410029    244.63559 
    4350    100.68312    -1354.269    75816.767   -17296.525    1368.2345   -18664.759    15.613744    255.14971 
    4400    99.225638    -1234.952    75821.713   -17301.856    1348.4281   -18650.285    15.740712    251.45619 
    4450     96.40175   -1219.2701    75855.586   -17333.054    1310.0528   -18643.106    16.130363    244.29993 
    4500    99.069589   -1250.4445     75915.04   -17310.049    1346.3075   -18656.357     16.52797    251.06073 
    4550    100.12035   -1290.4973    75977.382    -17293.95    1360.5867   -18654.536    16.488807    253.72355 
    4600    102.20685    -1232.873    75973.684   -17284.303    1388.9414   -18673.244    16.509974    259.01114 
    4650    101.62666    -1338.522    75990.803   -17269.176    1381.0568   -18650.232     16.55806    257.54082 
    4700    101.00405   -1510.5371    76006.969   -17296.321    1372.5959   -18668.916    16.622562    255.96302 
    4750    100.36972   -1550.4844    75957.036   -17314.639    1363.9756   -18678.614    16.821544     254.3555 
    4800    96.865893   -1676.7077    75928.359    -17295.89    1316.3603    -18612.25    16.927657    245.47616 
    4850    98.940945   -1628.1223    75934.809   -17303.618    1344.5593   -18648.177    16.846956    250.73472 
    4900    101.11639   -1445.4499    75899.829   -17303.344    1374.1225   -18677.467    16.960612    256.24771 
    4950    98.998736   -1370.4428     75870.16    -17329.17    1345.3446   -18674.514    17.218619    250.88118 
    5000    99.460079   -1130.8927    75823.339   -17346.437     1351.614   -18698.051    17.444489    252.05031 
    5050     97.31591   -1764.9069    75788.528   -17338.925    1322.4758   -18661.401    17.764038    246.61658 
    5100    100.63197   -1673.0899    75654.374   -17331.863    1367.5394   -18699.402      17.8467    255.02008 
    5150    99.650059   -1271.4041    75623.539   -17327.135    1354.1958    -18681.33    18.042672    252.53175 
    5200    100.67321   -1333.8386    75647.111   -17304.772    1368.0999   -18672.872    18.150159     255.1246 
    5250    97.412774   -1419.9774    75687.396   -17332.643    1323.7922   -18656.435    18.310155    246.86205 
    5300    100.98618   -1420.8932    75761.179   -17333.044    1372.3531   -18705.397    18.419069    255.91774 
    5350    94.890655   -1473.5685    75719.684   -17355.827    1289.5178   -18645.345     18.60578    240.47054 
    5400    96.537975   -1547.5642    75706.834   -17337.083    1311.9041   -18648.987    18.535427    244.64515 
    5450    99.826359   -1292.3691    75636.182   -17332.039    1356.5916    -18688.63    18.355901    252.97853 
    5500    97.949871      -1413.1    75615.339   -17337.373     1331.091   -18668.464    18.500451    248.22316 
    5550    101.66488   -1291.8437    75664.547   -17291.219    1381.5762   -18672.795    18.655702    257.63768 
    5600    101.77244   -1366.9385    75647.763   -17283.758     1383.038   -18666.796    18.786856    257.91027 
    5650    98.781477   -1339.5502    75661.158   -17255.893    1342.3922   -18598.285    18.789985     250.3306 
    5700    98.817259   -1407.7381    75672.241   -17270.527    1342.8784   -18613.405    18.835361    250.42128 
    5750    96.874805   -1491.0615    75699.967   -17281.498    1316.4814    -18597.98    18.943446    245.49874 
    5800    98.562665   -1430.8381    75757.538   -17268.177    1339.4186   -18607.596    19.345236    249.77609 
    5850    99.551486   -1145.3434    75796.652   -17284.174    1352.8562    -18637.03    19.682215    252.28195 
    5900    99.339141   -1313.0279    75847.889   -17306.382    1349.9706   -18656.353    19.784957    251.74383 
    5950    100.14673   -1252.5003    75886.065   -17265.086    1360.9453   -18626.032    20.047917     253.7904 
    6000    98.346517    -1349.044    75878.479   -17294.148    1336.4813   -18630.629    20.117361    249.22833 
    6050    98.597804   -1197.2999    75960.526    -17328.89    1339.8961   -18668.786    20.251481    249.86514 
    6100    99.606941   -1174.2396    76058.198   -17295.164    1353.6098   -18648.774    20.513253    252.42248 
    6150    96.611487   -1109.5106    76169.686   -17285.741    1312.9031   -18598.644    20.644002    244.83145 
    6200    96.134752   -1361.3706    76194.187   -17297.326    1306.4245    -18603.75    20.767271    243.62331 
    6250    98.075124    -1561.994     76196.76   -17291.417    1332.7932    -18624.21    20.776613    248.54057 
    6300    100.07145   -1578.9606    76189.514   -17271.506    1359.9222   -18631.428    20.985048    253.59962 
    6350    101.47866   -1638.0391    76154.201    -17250.12    1379.0456   -18629.166    21.346662    257.16578 
    6400    99.535606   -1550.6587     76075.95   -17265.761    1352.6404   -18618.402    21.605629     252.2417 
    6450      96.5477   -1473.2166    75941.684   -17330.398    1312.0362   -18642.434    21.903586     244.6698 
    6500     96.71937   -1005.1851    75990.109   -17336.899    1314.3691   -18651.268    21.790847    245.10484 
    6550    96.963183   -1706.5081    75953.019   -17311.994    1317.6824   -18629.677    21.976263    245.72271 
    6600    96.753893   -1402.1896    75942.003    -17305.43    1314.8383   -18620.268    22.044796    245.19233 
    6650    97.850574   -1087.6334    75952.091    -17302.54    1329.7417   -18632.282    22.126269    247.97152 
    6700    98.039203   -1767.9174    75926.054    -17284.08     1332.305   -18616.385    22.353882    248.44954 
    6750    99.864424   -1273.2331     75925.14   -17283.276    1357.1089   -18640.385    22.695837    253.07499 
    6800    100.46024   -1503.7025    75891.332   -17279.563    1365.2057   -18644.769    22.854044     254.5849 
    6850    97.206477   -1650.2498    75898.716   -17310.584    1320.9887   -18631.573    23.167826    246.33926 
    6900     99.50648   -1353.0256    75848.119   -17318.574    1352.2446   -18670.818    23.112596     252.1679 
    6950    97.945325   -1573.3085    75818.205   -17361.173    1331.0293   -18692.202    23.310374    248.21164 
    7000    94.377943   -1125.6339    75839.406   -17382.067    1282.5503   -18664.617    23.640444    239.17123 
    7050    99.554137   -1543.0292     75819.37   -17352.694    1352.8922   -18705.586    23.648453    252.28867 
    7100    99.123677   -1136.0995     75827.14   -17335.594    1347.0425   -18682.636    23.661531     251.1978 
    7150    95.629144   -1000.5268    75833.873    -17336.24    1299.5535   -18635.793    23.733221    242.34201 
    7200    96.152439   -1107.1169    75835.633   -17363.297    1306.6648   -18669.962    24.051222    243.66813 
    7250     95.65714   -1366.1235    75826.367   -17353.462     1299.934   -18653.396    24.104142    242.41295 
    7300    95.909475   -1454.0294    75847.316   -17335.315    1303.3631   -18638.678    24.147331    243.05242 
    7350    100.22879   -1701.4998     75806.68   -17318.979    1362.0604    -18681.04    24.210569    253.99835 
    7400    97.693232   -1416.8208    75757.902   -17331.208    1327.6035   -18658.812    24.419195    247.57279 
    7450    98.814132   -1413.8613     75755.12   -17317.982    1342.8359   -18660.818    24.470258    250.41336 
    7500    100.00637   -1261.2606    75747.657   -17314.332    1359.0379    -18673.37     24.71835    253.43472 
    7550     100.2946   -1105.2749     75819.83   -17297.435    1362.9547    -18660.39     24.82885    254.16512 
    7600    98.652628   -1534.9803    75810.242   -17329.095    1340.6412   -18669.736    24.989111    250.00407 
    7650    98.953594   -1357.1903    75800.395   -17323.108    1344.7312   -18667.839    25.194831    250.76678 
    7700    99.316808   -1047.9938    75766.193   -17311.795    1349.6671   -18661.462    25.466175    251.68723 
    7750    98.455974   -1283.8705    75791.338   -17325.384    1337.9687   -18663.353    25.672762    249.50572 
    7800    97.388978   -871.68293    75840.731   -17339.694    1323.4688   -18663.163    25.795797    246.80175 
    7850    95.240871   -1214.7412    75857.358    -17370.03    1294.2771   -18664.307    25.702945    241.35805 
    7900    94.384976    -1259.863    75819.621   -17366.714    1282.6459    -18649.36    25.969659    239.18905 
    7950    97.079953    -926.9232    75846.747   -17348.089    1319.2693   -18667.358    26.161521    246.01863 
    8000    96.154655   -1226.0371    75902.162   -17372.832    1306.6949   -18679.527    26.454637    243.67375 
    8050     96.74869    -1107.968    75924.197   -17341.329    1314.7676   -18656.097     26.32369    245.17914 
    8100    98.356416   -1109.9998    75966.401   -17335.353    1336.6158   -18671.969    26.581813    249.25342 
    8150    102.82509   -995.75791    75936.115   -17319.072    1397.3429   -18716.415    26.780766    260.57787 
    8200    99.576244   -1130.2371    75995.345   -17297.373    1353.1927   -18650.566     26.87242    252.34469 
    8250    98.942274   -1228.9512    75961.893   -17314.607    1344.5773   -18659.185    27.083435    250.73809 
    8300    99.796595   -1119.1148    76052.767   -17308.812    1356.1871   -18664.999    27.351129     252.9031 
    8350    96.183384   -1158.5798     76071.82   -17306.841    1307.0854   -18613.926    27.227807    243.74655 
    8400    98.127133    -1089.988    76178.698   -17283.428    1333.4999   -18616.928    27.713151    248.67237 
    8450    103.53168   -1546.5204    76235.738   -17280.436    1406.9451   -18687.381    27.796073     262.3685 
    8500    98.553099   -1022.1562    76302.635   -17298.064    1339.2886   -18637.353    28.044153    249.75185 
    8550    98.750614   -1274.8527    76339.805   -17289.781    1341.9728   -18631.754    28.217284    250.25239 
    8600    98.416732    -1730.366    76288.617   -17318.228    1337.4355   -18655.664    28.286445    249.40627 
    8650    96.926183   -1485.5514     76316.47   -17300.502    1317.1796   -18617.682    28.469734    245.62894 
    8700    97.454342   -1519.0573    76274.427   -17312.719     1324.357   -18637.076    28.815842    246.96739 
    8750    101.66692   -1350.1559    76217.051   -17273.286    1381.6039    -18654.89    29.293104    257.64284 
    8800    99.143585   -1284.4504    76239.422   -17256.598     1347.313   -18603.911    29.341517    251.24825 
    8850    96.292067    -1633.815    76256.969   -17294.905    1308.5623   -18603.467     29.41315    244.02198 
    8900    99.171917   -1105.7822     76306.83   -17258.623    1347.6981   -18606.321     29.44033    251.32005 
    8950    97.259423   -1359.7566    76350.579   -17298.158    1321.7082   -18619.866    29.805562    246.47343 
    9000    99.425396   -1355.3128    76391.807   -17323.313    1351.1427   -18674.456    29.858051    251.96241 
    9050    98.688533   -1749.0322    76365.116   -17330.578    1341.1291   -18671.707    29.951109    250.09507 
    9100    98.882164    -1376.254    76354.131    -17340.86    1343.7605   -18684.621    30.126468    250.58576 
    9150    95.301943   -1340.4078    76373.513   -17382.677     1295.107   -18677.784    30.520876    241.51282 
    9200    98.668868   -1370.9949    76373.917   -17349.129    1340.8619   -18689.991    30.520444    250.04523 
    9250    96.422603   -1498.4944    76396.277   -17398.437    1310.3362   -18708.773    30.574924    244.35278 
    9300    95.987892   -1553.1377    76368.003   -17426.525    1304.4287   -18730.954    30.722051    243.25114 
    9350    95.070257   -1136.9235    76339.008   -17394.815    1291.9585   -18686.774    30.852493    240.92568 
    9400    101.64018   -1005.9207    76353.339   -17390.194    1381.2405   -18771.435    30.773867    257.57508 
    9450    95.890652   -1246.3806    76349.961   -17388.897    1303.1073   -18692.004    30.868927    243.00472 
    9500    97.426687   -1012.4921    76429.826   -17379.302    1323.9812   -18703.284    30.951777    246.89731 
    9550    97.157354   -1560.5388    76422.191   -17371.102    1320.3211   -18691.423    30.997135    246.21477 
    9600    96.776563   -1165.1453    76382.938   -17378.292    1315.1464   -18693.438     30.99857    245.24978 
    9650    98.763443    -1288.135    76403.166   -17359.521    1342.1471   -18701.668    31.473741     250.2849 
    9700    98.581068   -1227.5558    76373.022   -17362.938    1339.6687   -18702.607    31.283235    249.82273 
    9750    98.090827   -1261.9584    76309.609   -17368.424    1333.0066    -18701.43    31.530903    248.58037 
    9800    97.869452   -1206.6997    76259.318   -17329.648    1329.9982   -18659.646    31.761604    248.01936 
    9850    99.140957   -1534.4522    76270.835   -17377.754    1347.2773   -18725.032    31.935032    251.24159 
    9900    99.859639   -1750.2248    76273.898   -17346.466    1357.0439    -18703.51    32.068107    253.06287 
    9950    97.574363   -1411.2727    76200.419   -17331.848    1325.9881   -18657.836    32.240456    247.27155 
   10000    96.999361   -1778.5662    76111.239   -17334.269    1318.1741   -18652.443    32.185075    245.81439 
   10050    96.742383   -1299.0964    76094.631   -17357.418    1314.6819   -18672.099    32.203501    245.16316 
   10100    96.377037   -1357.0232    76137.964   -17390.222     1309.717   -18699.939    32.265833    244.23731 
   10150    99.288444   -1451.9459     76157.34   -17393.807    1349.2816   -18743.088    32.463179    251.61535 
   10200     93.68728   -1283.6902    76146.906   -17405.328    1273.1645   -18678.492    32.779739    237.42096 
   10250    95.857117   -1271.8305    76137.347   -17363.436    1302.6515   -18666.087    32.751705    242.91973 
   10300    97.808722   -1242.6188    76160.889   -17369.763    1329.1729   -18698.935    32.958572    247.86546 
   10350    100.29418   -1151.7227    76220.079   -17342.902    1362.9491   -18705.851    33.236177    254.16408 
   10400    97.459955   -1449.2949     76270.12   -17384.788    1324.4333   -18709.221    33.542058    246.98162 
   10450    96.532136   -1411.8111    76259.171   -17384.885    1311.8247    -18696.71    33.517797    244.63035 
   10500    97.695159   -1401.2887    76271.683   -17420.095    1327.6296   -18747.725    33.766639    247.57767 
   10550    97.442917   -1425.9237    76238.844   -17446.373    1324.2018   -18770.575     33.80081    246.93844 
   10600     97.54683   -1181.9172    76182.703   -17438.627    1325.6139   -18764.241    34.151878    247.20178 
   10650    95.565115   -1223.2323    76194.712   -17438.824    1298.6834   -18737.508    34.439402    242.17974 
   10700    95.639423   -1496.6737    76216.696   -17444.769    1299.6932   -18744.462    34.512911    242.36806 
   10750     100.4524   -1360.7417    76142.742   -17425.998    1365.0992   -18791.097    34.460486    254.56503 
   10800    97.104365   -1306.4506     76121.35   -17384.857     1319.601   -18704.458    34.466702    246.08049 
   10850    97.478817   -1669.6989    76071.961   -17372.783    1324.6896   -18697.472    34.550894    247.02942 
   10900    99.872121   -1486.9127    76027.724   -17352.847    1357.2135    -18710.06    34.942313     253.0945 
   10950    97.841911   -1364.0606    76073.684   -17335.582    1329.6239   -18665.205    34.839581    247.94957 
   11000     98.61784   -1581.9913    76038.243   -17328.525    1340.1684   -18668.693    35.090367    249.91592 
   11050     96.15217   -1128.6343    76073.899   -17356.448    1306.6612   -18663.109    35.150685    243.66745 
   11100    98.670709   -1571.2082    76093.778   -17352.133    1340.8869    -18693.02    35.350259     250.0499 
   11150    98.218401   -1303.5027    76119.165   -17341.224    1334.7402   -18675.965    35.324865    248.90366 
   11200    102.23287   -1544.8582    76182.846   -17329.253    1389.2949   -18718.548    35.388787    259.07708 
   11250    98.826482   -1383.1668    76141.551   -17320.685    1343.0038   -18663.689    35.534608    250.44465 
   11300    97.151358   -1138.4193    76165.547   -17314.955    1320.2396   -18635.195    35.866938    246.19958 
   11350    100.33676   -1132.9148    76216.109   -17312.768    1363.5277   -18676.295    36.246508    254.27197 
   11400    100.23023     -1255.99    76195.766   -17294.305      1362.08   -18656.385    36.386994    254.00202 
   11450    97.585959   -1626.9196    76182.704   -17316.712    1326.1457   -18642.858    36.430067    247.30094 
   11500     99.15387   -1392.1048    76143.091   -17325.664    1347.4528   -18673.117    36.428775    251.27432 
   11550    99.993015   -1182.0876    76097.623    -17351.39    1358.8564   -18710.246    36.662784    253.40086 
   11600     98.69138   -1531.4497    76050.015   -17347.996    1341.1678   -18689.164    36.539238    250.10228 
   11650    98.112221   -1417.5814    76019.199    -17339.06    1333.2973   -18672.357    36.543203    248.63458 
   11700    99.052149   -1284.4512    75987.187   -17364.291    1346.0705   -18710.362    36.723586    251.01654 
   11750    95.067889   -1609.4355    75888.791   -17394.125    1291.9263   -18686.052    36.944329    240.91968 
   11800    93.725421   -1486.9216    75872.327   -17419.306    1273.6828   -18692.989    37.069891    237.51762 
   11850    97.615527   -1005.2217    75916.468   -17428.874    1326.5475   -18755.422    37.360843    247.37587 
   11900    96.390352   -1006.2157    75941.713   -17390.325    1309.8979   -18700.223     37.47459    244.27105 
   11950    97.221183   -915.58664    75970.807   -17377.884    1321.1885   -18699.072    37.671062    246.37653 
   12000    95.711257   -1502.6559    75958.604   -17405.472    1300.6694   -18706.141    37.871753    242.55009 
   12050    97.124157   -1254.5345    75993.343   -17405.346      1319.87   -18725.216    38.352994    246.13065 
   12100    97.508957   -1526.7764    75982.892   -17417.665    1325.0992   -18742.764    38.619652     247.1058 
   12150    97.784841   -1377.7052    75995.955   -17432.323    1328.8484   -18761.171    38.811488    247.80494 
   12200    95.538221   -1604.2618    76039.402   -17432.948    1298.3179   -18731.266    39.194336    242.11159 
   12250    95.731486   -1165.4485    76058.465   -17430.221    1300.9443   -18731.165    39.583806    242.60136 
   12300    94.181505     -1053.83    76118.422   -17379.478    1279.8808   -18659.359    39.887932    238.67342 
   12350    99.560829   -1047.7797     76189.07    -17378.45    1352.9832   -18731.434     40.11574    252.30562 
   12400    95.555328   -1181.8979    76237.706   -17389.384    1298.5504   -18687.934    40.122546    242.15494 
   12450    98.646226   -1483.0932    76263.662   -17399.224    1340.5542   -18739.778    39.923655    249.98785 
   12500    97.278541   -1094.0865    76294.064   -17365.317     1321.968   -18687.285    39.855606    246.52188 
   12550    97.141811   -1096.2688    76299.415   -17376.264    1320.1099   -18696.374    39.946843    246.17539 
   12600    98.487928   -1031.8369    76332.671   -17364.856     1338.403   -18703.259     40.19403    249.58669 
   12650     97.57708   -1291.1102    76333.916   -17355.785     1326.025    -18681.81    40.195829    247.27844 
   12700    96.808719   -1386.2038    76326.111   -17374.483    1315.5833   -18690.066    40.414407    245.33127 
   12750    96.156988   -1351.4857     76331.92    -17363.42    1306.7266   -18670.146     40.69816    243.67966 
   12800    94.703315   -1736.3112    76347.521   -17407.021    1286.9719   -18693.993     40.78113    239.99578 
   12850    97.151456    -1503.582    76339.187   -17420.768     1320.241   -18741.009    40.766629    246.19983 
   12900    95.180983   -1314.6565    76322.611   -17416.204    1293.4632   -18709.667    40.709403    241.20628 
   12950    95.064489   -1787.8748    76305.548     -17417.9    1291.8801    -18709.78    40.684392    240.91107 
   13000    96.567909   -1664.0468    76301.654    -17403.33    1312.3109    -18715.64    40.761053    244.72101 
   13050    95.402848   -1300.3527    76275.267   -17406.797    1296.4782   -18703.275     41.17015    241.76853 
   13100     97.79454   -1409.5582    76261.521    -17394.84    1328.9802    -18723.82    41.416629    247.82952 
   13150    96.422871   -1638.0537    76256.281   -17415.447    1310.3399   -18725.787    41.706346    244.35346 
   13200    96.745439   -1219.5348    76341.153   -17407.109    1314.7234   -18721.832    42.073716     245.1709 
   13250    98.381769   -1664.5306    76380.366   -17440.631    1336.9603   -18777.592     42.22259    249.31767 
   13300    98.352344   -1541.5396    76370.544   -17461.329    1336.5605   -18797.889     42.07503     249.2431 
   13350     96.93021   -1542.3418    76330.354   -17402.707    1317.2344   -18719.942    42.085457    245.63915 
   13400    95.227329    -1454.596     76356.93   -17415.937     1294.093    -18710.03    42.475062    241.32373 
   13450    100.49041    -1260.325    76408.742   -17354.482    1365.6157   -18720.098    42.653255    254.66134 
   13500     98.05431   -1610.8529    76395.727   -17359.008    1332.5103   -18691.518    42.792508    248.48783 
   13550    94.922334   -1347.0418    76368.684   -17393.454    1289.9483   -18683.402    43.156177    240.55082 
   13600    96.422207   -1756.3832    76342.038   -17398.008    1310.3308   -18708.339    42.921435    244.35177 
   13650    95.489327   -1130.5964    76367.865    -17392.53    1297.6535   -18690.184      42.7831    241.98768 
   13700    97.483577   -1138.2362    76455.331   -17379.985    1324.7543   -18704.739    42.980378    247.04148 
   13750    97.330647   -1594.3929     76529.22    -17389.17    1322.6761   -18711.846    42.997821    246.65393 
   13800    100.26598    -1403.175    76553.039   -17346.403    1362.5659   -18708.969    43.152881    254.09261 
   13850    97.131364   -1332.3522    76609.173   -17377.059    1319.9679   -18697.027     43.33162    246.14891 
   13900     99.46138   -1685.9047    76611.258   -17367.247    1351.6317   -18718.879    43.779297     252.0536 
   13950    96.969688   -1329.7877    76601.849   -17351.629    1317.7708     -18669.4    43.903154    245.73919 
   14000    100.44909   -1287.5201    76650.612   -17336.259    1365.0542   -18701.314    44.160811    254.55665 
   14050    100.66445   -1692.5336    76626.576   -17354.986    1367.9808   -18722.967    44.280917     255.1024 
   14100    100.47719   -1261.1288    76635.256    -17373.37     1365.436   -18738.806    44.260604    254.62785 
   14150    103.54118   -1405.5157    76648.571   -17358.884    1407.0742   -18765.958    44.401042    262.39256 
   14200    99.307356   -1277.9985    76720.445   -17390.921    1349.5386   -18740.459    44.561469    251.66328 
   14250    98.895831   -1707.4295    76732.623   -17364.709    1343.9462   -18708.655    45.030529     250.6204 
   14300    98.318966    -1391.447    76709.888    -17354.77    1336.1069   -18690.877    45.213855    249.15851 
   14350     98.36642   -1415.8637    76685.888   -17350.271    1336.7517   -18687.023    45.292934    249.27877 
   14400    98.690441   -1594.3078    76655.284   -17387.342     1341.155   -18728.497    45.113769     250.0999 
   14450    97.472969   -1590.0147    76669.268   -17379.774    1324.6102   -18704.384    45.231809     247.0146 
   14500      94.1909    -1416.297    76707.557   -17413.763    1280.0085   -18693.771    45.560082    238.69723 
   14550    98.516169   -1465.5338    76708.468   -17373.959    1338.7868   -18712.746    45.478902    249.65826 
   14600     97.18798    -1275.515    76689.992   -17369.054    1320.7373   -18689.792    45.673606    246.29238 
   14650    99.259004   -1492.1603    76664.086   -17342.871    1348.8815   -18691.752    45.836435    251.54075 
   14700    99.628071   -1433.2336    76629.309   -17397.837     1353.897   -18751.734    45.861584    252.47603 
   14750    96.573527    -1497.884    76667.675   -17402.347    1312.3872   -18714.735    45.915334    244.73525 
   14800     98.38057   -1105.4277    76708.315   -17380.962     1336.944   -18717.906    46.027598    249.31463 
   14850    95.837064   -1673.9151    76756.371   -17378.185     1302.379   -18680.564    46.154917    242.86891 
   14900    97.188893   -1385.4982    76730.007   -17375.938    1320.7497   -18696.687    46.291175     246.2947 
   14950     94.58159   -1386.3659    76710.538   -17432.471    1285.3177   -18717.788    46.157882    239.68731 
   15000    95.221055   -1631.8908    76715.058   -17424.317    1294.0078   -18718.324    46.509634    241.30783 
   15050     95.57315   -1392.1003     76734.57    -17377.17    1298.7926   -18675.963    46.668883    242.20011 
   15100    96.087728   -1689.3966    76733.954   -17396.572    1305.7854   -18702.358    46.473781    243.50414 
   15150    96.160097   -1344.4389    76738.684   -17397.514    1306.7689   -18704.282    46.654533    243.68754 
   15200    95.817624   -1841.1125    76640.223   -17386.359    1302.1148   -18688.474    46.816971    242.81965 
   15250    97.969061   -1599.5944    76607.151   -17427.748    1331.3518     -18759.1    46.823818    248.27179 
   15300    96.834285   -1770.1598    76590.141   -17382.731    1315.9308   -18698.662    47.222983    245.39606 
   15350    97.220236   -1440.7786    76597.315   -17374.329    1321.1757   -18695.505    47.574039    246.37413 
   15400    99.630892   -1483.7743    76620.697   -17336.147    1353.9353   -18690.083    47.672767    252.48318 
   15450    95.228293   -1111.3515    76590.272   -17317.081    1294.1061   -18611.187    47.611756    241.32617 
   15500    97.789417   -1302.3043    76649.344   -17320.565    1328.9105   -18649.475    47.935598    247.81654 
   15550    97.506391   -1352.9498    76597.847    -17325.38    1325.0644   -18650.444    47.975137     247.0993 
   15600    96.764522   -1362.7822    76580.924   -17311.604    1314.9827   -18626.587    48.031459    245.21926 
   15650    99.191118   -1352.1865    76539.106   -17332.356     1347.959   -18680.315    48.437786    251.36871 
   15700    98.859698    -1657.767     76482.83    -17318.39    1343.4551   -18661.845     48.74331    250.52883 
   15750    101.33946   -1498.1622    76386.127   -17308.884    1377.1538   -18686.038    48.759794    256.81299 
   15800    99.729377   -1499.0547    76430.057   -17317.023    1355.2737   -18672.296     48.71579    252.73276 
   15850    99.766126   -1311.5352    76444.243   -17300.799    1355.7731   -18656.572    48.948038    252.82589 
   15900    98.051713   -1494.9395    76410.719   -17354.433     1332.475   -18686.908    48.993129    248.48125 
   15950    96.433754   -1525.9463    76381.477    -17332.78    1310.4878   -18643.267    49.254234    244.38104 
   16000    100.02335   -1497.4833    76342.938   -17335.289    1359.2686   -18694.557    49.531316    253.47773 
   16050    100.01297   -1499.5115    76261.476   -17352.978    1359.1275   -18712.105    49.592634    253.45143 
   16100     98.13147   -1228.9403    76300.536   -17343.006    1333.5589   -18676.565    49.552095    248.68336 
   16150    99.766676   -1408.7439    76286.702    -17376.85    1355.7805    -18732.63    49.752974    252.82728 
   16200    96.398879   -1659.7763    76296.701   -17364.881    1310.0138   -18674.895    49.889748    244.29266 
   16250    97.614996   -1680.4484    76246.504   -17319.353    1326.5403   -18645.893    49.723869    247.37452 
   16300    99.583582    -1352.664    76215.946   -17331.994    1353.2924   -18685.287    49.810249    252.36329 
   16350    98.700602   -1486.2054    76235.087   -17314.705    1341.2931   -18655.998    50.054739    250.12565 
   16400    97.964648   -1247.5843    76156.469   -17301.902    1331.2919   -18633.194    50.057311    248.26061 
   16450    98.203878   -1481.4677    76172.943   -17306.602    1334.5429   -18641.145     50.15867    248.86686 
   16500    96.183885   -1039.1492    76186.745   -17322.466    1307.0922   -18629.558    50.144301    243.74782 
   16550    99.356947   -1228.9543    76226.778   -17333.882    1350.2125   -18684.095     50.26358    251.78895 
   16600    98.909431    -1510.469    76251.667   -17326.946     1344.131   -18671.077    50.690378    250.65486 
   16650    101.64464   -1139.0208    76248.278   -17308.088    1381.3012   -18689.389    51.023529    257.58639 
   16700    98.643361   -1179.3105    76182.047   -17293.502    1340.5152   -18634.018    51.421865    249.98059 
   16750    99.291997   -1545.0191    76106.462   -17324.555    1349.3299   -18673.885    51.614419    251.62435 
   16800    97.884963   -1557.2787    76002.528   -17336.988     1330.209   -18667.197    51.445802    248.05867 
   16850    100.39607   -1463.3791    76015.588   -17323.389    1364.3337   -18687.723    51.477674    254.42228 
   16900    99.598501   -1479.3008    76021.712   -17339.252    1353.4951   -18692.748    51.658429    252.40109 
   16950    98.810163   -1329.2473    76017.471    -17337.69     1342.782   -18680.472    51.711947     250.4033 
   17000    98.786213   -1607.1368    75993.731   -17383.669    1342.4565   -18726.125    51.750336     250.3426 
   17050    95.436852   -1401.8186    76002.494   -17350.106    1296.9403   -18647.046    52.187895     241.8547 
   17100    97.660277   -1458.3366    76011.768   -17336.904    1327.1556    -18664.06    52.255889    247.48927 
   17150    98.572161   -1570.6417     75940.44    -17298.37    1339.5477   -18637.918    52.526831    249.80016 
   17200    98.008778   -1396.9394    75958.078   -17310.384    1331.8916   -18642.275    53.078408    248.37244 
   17250    99.420673   -1245.8403    75986.317   -17334.745    1351.0785   -18685.824    53.464095    251.95044 
   17300    99.729562   -1195.0166     76093.38   -17344.258    1355.2762   -18699.534    53.514796    252.73323 
   17350    101.52151   -1004.1799    76170.932   -17339.988    1379.6278   -18719.616    53.604651    257.27435 
   17400    99.314121   -1115.2446    76250.923   -17321.887    1349.6305   -18671.518    53.710466    251.68042 
   17450    99.236981   -1231.7978     76273.13   -17332.743    1348.5822   -18681.325     54.06376    251.48493 
   17500    97.809173   -1370.5243    76235.801   -17369.579     1329.179   -18698.758    54.170162     247.8666 
   17550    97.279679   -1388.1457    76224.645   -17338.684    1321.9835   -18660.668      54.2302    246.52477 
   17600    97.853762   -1189.1564    76254.374   -17330.449     1329.785   -18660.234    54.198387     247.9796 
   17650    98.687802   -979.47394    76297.236   -17319.042    1341.1192   -18660.161    54.191111    250.09321 
   17700    98.403451   -1211.0806    76327.502   -17333.876     1337.255   -18671.131    54.613981    249.37261 
   17750    94.551458   -1256.2033    76312.248   -17373.628    1284.9083   -18658.537    54.711727    239.61095 
   17800    97.643263   -1562.9524    76325.685   -17350.772    1326.9244   -18677.696     54.74073    247.44616 
   17850     93.73237   -1583.4366    76285.098   -17348.646    1273.7773   -18622.423    54.579898    237.53523 
   17900    99.396485   -1360.0009    76274.074   -17327.963    1350.7498   -18678.712    54.631258    251.88915 
   17950    99.399856   -1411.9607    76317.244   -17330.784    1350.7956    -18681.58    54.717975    251.89769 
   18000    97.680108   -1697.4745     76297.48   -17373.505    1327.4251    -18700.93    54.590778    247.53953 
   18050    99.468624    -1546.681     76296.38   -17371.125    1351.7302   -18722.855    54.352634    252.07196 
   18100    100.26264   -1943.1962    76326.062   -17364.338    1362.5205   -18726.859    54.099454    254.08416 
   18150    96.407577   -1445.4825    76320.559   -17360.108     1310.132    -18670.24    54.208339     244.3147 
   18200    100.26595   -1521.7328    76328.522   -17336.669    1362.5654   -18699.234    54.324974    254.09252 
   18250    97.758922   -1178.6377    76317.529   -17314.219    1328.4961   -18642.715    54.428979    247.73926 
   18300    98.856548   -995.54842    76375.386   -17325.717    1343.4123    -18669.13    54.395759    250.52085 
   18350    96.923124   -1627.9814    76407.778   -17314.065    1317.1381   -18631.203    54.597902    245.62119 
   18400    99.525406   -1340.3657    76462.686   -17320.363    1352.5018   -18672.865    54.814556    252.21586 
   18450    99.931489   -1562.0031    76497.401   -17323.922    1358.0203   -18681.942    54.872545    253.24495 
   18500    98.016989   -1329.5858    76447.981   -17326.507    1332.0031    -18658.51    54.873579    248.39325 
   18550    98.546139   -1201.6188    76467.573   -17330.198     1339.194   -18669.392    55.407156    249.73421 
   18600    101.35141   -1236.1504    76534.339   -17306.495    1377.3163   -18683.812    55.719313    256.84328 
   18650     96.07276   -1250.0586    76546.259   -17301.082     1305.582   -18606.664    55.972213    243.46621 
   18700    99.292835   -1249.0046     76547.01   -17289.721    1349.3413   -18639.063    55.968243    251.62648 
   18750    100.52092   -1488.7899    76598.991   -17272.284    1366.0304   -18638.314    56.077878    254.73868 
   18800    96.307948    -1366.149    76532.484   -17308.275    1308.7781   -18617.053    55.979555    244.06222 
   18850    98.896793     -1373.61    76533.995    -17322.76    1343.9593   -18666.719    56.080733    250.62283 
   18900    96.983363   -1471.5585    76515.284   -17357.943    1317.9567     -18675.9    55.774336    245.77385 
   18950    96.004361   -1617.5696    76472.696   -17389.713    1304.6525   -18694.365    55.768566    243.29288 
   19000    95.598736   -1661.5595      76410.6   -17337.459    1299.1403   -18636.599    56.100894    242.26495 
   19050    101.55919   -1445.1874    76350.005   -17332.603    1380.1399   -18712.743    56.350405    257.36984 
   19100    101.99154   -1764.9823     76325.29   -17324.607    1386.0154   -18710.622    56.552846    258.46551 
   19150    95.997739   -1460.0474    76296.025   -17320.779    1304.5625   -18625.341    56.607963    243.27609 
   19200    99.998336   -1450.9309     76260.97   -17325.695    1358.9287   -18684.624    56.636321    253.41435 
   19250     98.48205   -1353.9011    76263.643   -17317.027    1338.3231    -18655.35    56.708101     249.5718 
   19300    98.756471   -1151.1154    76232.249   -17326.492    1342.0524   -18668.544    57.162295    250.26723 
   19350    98.124753   -1518.3565    76213.794   -17335.571    1333.4676   -18669.038    57.211167    248.66634 
   19400    97.587773   -1688.9448    76182.125   -17331.192    1326.1703   -18657.363    57.262639    247.30553 
   19450    98.330428   -1251.3095    76134.616   -17363.663    1336.2626   -18699.925    57.582173    249.18756 
   19500    96.304135   -1348.5674    76086.584   -17339.706    1308.7263   -18648.433      57.4208    244.05256 
   19550    95.751108   -1299.7181    76052.473   -17342.597    1301.2109   -18643.808    57.770762    242.65108 
   19600    98.980411   -1514.5367    76038.667   -17320.047    1345.0956   -18665.143    57.796806    250.83474 
   19650     97.10188   -1353.0939    76061.702   -17322.496    1319.5673   -18642.063    57.961963    246.07419 
   19700    95.974444   -1569.2204    76065.744    -17311.61     1304.246   -18615.856    57.899534    243.21706 
   19750    99.462058   -1405.9314    76002.231   -17318.048    1351.6409   -18669.689    58.114556    252.05532 
   19800    98.326752   -1031.9089    75959.559   -17330.835    1336.2127   -18667.048    58.387415    249.17824 
   19850    101.98288   -1047.6937    75967.723    -17304.64    1385.8977   -18690.538    58.397144    258.44355 
   19900    98.944227   -1531.0159     76042.77   -17335.965    1344.6039   -18680.568    58.732179    250.74304 
   19950    96.900199   -1568.2867    76042.354   -17316.521    1316.8265   -18633.347    58.713483    245.56309 
   20000    99.738891   -1516.4262    76031.138    -17343.88     1355.403   -18699.282    58.738611    252.75687 
   20050    94.578985   -1675.8521    76000.288   -17356.757    1285.2823    -18642.04    58.670109    239.68071 
   20100     98.97356    -1237.222     75953.72   -17346.972    1345.0025   -18691.974    58.915127    250.81738 
   20150    100.17466   -1198.2529    75991.373   -17357.561    1361.3248   -18718.885    59.275981    253.86118 
   20200    97.846473    -1183.425    76038.575   -17349.408    1329.6859   -18679.094    59.258615    247.96113 
   20250    98.601641   -1224.6036    76063.135   -17342.653    1339.9483   -18682.601     59.12048    249.87486 
   20300    99.688615   -1146.8626    76145.484   -17319.611    1354.7197   -18674.331    59.218595    252.62946 
   20350    99.427238   -1480.2834    76196.507   -17285.627    1351.1677   -18636.794    59.543638    251.96708 
   20400    100.37606   -1577.0847    76215.573   -17248.601    1364.0618   -18612.662    59.879959    254.37158 
   20450    98.061592   -1552.7122    76163.172   -17251.285    1332.6093   -18583.894    60.223585    248.50628 
   20500    101.77353   -1321.1421    76161.382   -17240.964    1383.0527   -18624.017    60.244143    257.91301 
   20550    101.51083   -1423.5834    76100.217   -17256.548    1379.4828   -18636.031     60.23063    257.24729 
   20600    101.99189   -1318.6214    76110.838   -17241.605    1386.0201   -18627.625    60.271129    258.46639 
   20650    101.48081     -1337.31    76149.221   -17240.373    1379.0748   -18619.448    60.653622    257.17121 
   20700     100.6123   -1466.5695    76206.569   -17266.975    1367.2721   -18634.247    60.895145    254.97024 
   20750    98.729291   -1299.5632    76207.362   -17287.915     1341.683   -18629.598    60.922557    250.19835 
   20800    98.652918   -1323.8651    76188.242   -17317.397    1340.6451   -18658.042    61.084095    250.00481 
   20850    98.217655   -1092.8474      76208.5   -17297.446    1334.7301   -18632.176    61.250901    248.90177 
   20900     99.85138   -1257.7479    76193.734   -17274.634    1356.9316   -18631.566    61.466039    253.04194 
   20950    100.11018   -999.89469    76169.365   -17275.484    1360.4486   -18635.933    61.508616    253.69778 
   21000    100.24906   -1799.3608    76202.456   -17290.213     1362.336   -18652.549     61.56976    254.04974 
   21050    98.259353   -1426.8614    76199.224   -17298.999    1335.2968   -18634.296    61.818075    249.00744 
   21100    99.674939   -1619.4547    76171.715   -17289.081    1354.5339   -18643.615     61.72223     252.5948 
   21150    103.70276   -1254.0858    76187.125   -17272.301      1409.27   -18681.571    61.614915    262.80204 
   21200    100.17914   -1534.1356    76232.396   -17297.424    1361.3857    -18658.81     61.76251    253.87254 
   21250    101.59116   -1396.8693    76154.017   -17258.315    1380.5744    -18638.89    61.728785    257.45087 
   21300    99.923418   -1275.1686    76070.832    -17273.81    1357.9106    -18631.72      62.0979    253.22449 
   21350    99.052976   -1503.7198    76023.607   -17302.585    1346.0817   -18648.667    62.121099    251.01863 
   21400    98.574104   -1287.4122    76043.543   -17310.607    1339.5741   -18650.181    61.960065    249.80508 
   21450    100.33612    -1455.869    75996.277   -17312.133    1363.5191   -18675.652    62.236202    254.27037 
   21500    99.353064   -1477.7878     75950.75   -17310.446    1350.1598   -18660.606     62.19317    251.77911 
   21550    97.512014   -1782.5368    75869.371   -17339.407    1325.1408   -18664.548    62.200633    247.11355 
   21600    98.926691   -1024.1636    75871.092   -17341.034    1344.3656     -18685.4    62.436783     250.6986 
   21650    98.895342   -1494.0204    75809.388    -17346.12    1343.9395    -18690.06    62.723436    250.61916 
   21700    99.801182   -1184.3472    75729.149   -17299.845    1356.2495   -18656.094    62.828644    252.91472 
   21750    99.476648   -1380.5075    75720.033   -17309.459    1351.8392   -18661.298    62.659475     252.0923 
   21800    98.682513   -1584.9072    75680.649   -17296.545    1341.0473   -18637.592    62.890433    250.07981 
   21850    101.51085    -1520.045    75706.985   -17267.076     1379.483   -18646.559    62.889947    257.24734 
   21900    103.17811   -1195.7432    75721.911   -17245.575    1402.1403   -18647.715    63.464793    261.47249 
   21950    103.08487   -1551.3764    75823.964   -17268.438    1400.8732   -18669.311    63.600168     261.2362 
   22000    101.81743   -1235.5762    75850.144   -17250.374    1383.6493   -18634.023    63.298345    258.02428 
   22050    98.244076   -1248.6258    75847.465    -17259.04    1335.0892   -18594.129    63.349471    248.96873 
   22100    99.656943   -1707.3725    75828.181   -17286.133    1354.2893   -18640.422    63.697297     252.5492 
   22150    94.374501   -1350.6572    75824.848   -17292.548    1282.5035   -18575.052    63.856848    239.16251 
   22200    99.016104   -1171.8331    75838.549   -17237.436    1345.5806   -18583.017    64.087329    250.92519 
   22250    98.849699   -1423.6136    75847.772   -17236.934    1343.3193   -18580.253    64.445204    250.50349 
   22300    100.41917   -1340.0614    75861.263   -17224.449    1364.6476   -18589.097    64.657331    254.48082 
   22350    99.486576   -1412.3994    75885.736   -17220.103    1351.9741   -18572.077    64.860263    252.11745 
   22400    98.742135   -1530.5086    75890.954   -17247.009    1341.8575   -18588.867    65.091059     250.2309 
   22450     98.78279   -1192.2232    75835.091   -17268.429      1342.41   -18610.839    65.203127    250.33393 
   22500     95.86228   -1421.5417    75832.756   -17304.151    1302.7217   -18606.873    65.579917    242.93282 
   22550    94.290925   -1515.0242    75821.825   -17312.637    1281.3678   -18594.005    65.715159    238.95071 
   22600    96.445636   -1514.5499     75792.05   -17310.477    1310.6492   -18621.126    65.671827    244.41115 
   22650    95.459973    -1287.392    75767.752   -17328.104    1297.2545   -18625.359    65.654493    241.91329 
   22700    98.895041   -1575.5028    75739.485   -17356.055    1343.9355   -18699.991    65.644576     250.6184 
   22750     96.52202    -1504.732    75742.981    -17355.48    1311.6873   -18667.167    65.717678    244.60472 
   22800     97.31113   -1577.3706    75726.268   -17332.016    1322.4109   -18654.427    66.239725    246.60447 
   22850    97.697359   -1591.4192    75720.275   -17367.112    1327.6595   -18694.772    66.632553    247.58325 
   22900    96.323946   -1158.4927    75787.106   -17352.152    1308.9955   -18661.148    67.054556    244.10276 
   22950    97.663259   -1531.7337     75800.21   -17383.829    1327.1961   -18711.025    67.476291    247.49683 
   23000    95.267121   -1294.0729    75827.567   -17418.631    1294.6338   -18713.265     67.98345    241.42457 
   23050    96.068759    -1277.411    75829.513   -17376.897    1305.5276   -18682.424    67.936362    243.45607 
   23100    96.988311   -943.09608    75935.344   -17394.868    1318.0239   -18712.892    68.081747    245.78639 
   23150    92.959631   -1549.7224    75911.394   -17417.861    1263.2761   -18681.137    68.259303    235.57696 
   23200    96.399549   -1617.1896    75814.029   -17403.615    1310.0229   -18713.638    68.385026    244.29435 
   23250    98.367203   -1546.8521    75833.233   -17411.273    1336.7624   -18748.035     68.47595    249.28075 
   23300    96.008201   -1544.9317    75789.722   -17413.616    1304.7047   -18718.321    68.711136    243.30261 
   23350    94.915955   -1190.7312    75766.191   -17395.057    1289.8616   -18684.918    68.534933    240.53465 
   23400    97.444184   -1163.4572    75834.944   -17354.178     1324.219   -18678.397    68.786451    246.94165 
   23450    94.496242      -1353.2    75841.489   -17404.743    1284.1579     -18688.9    68.982339    239.47102 
   23500    96.056072   -1337.2797    75855.752   -17392.063    1305.3552   -18697.418     69.08496    243.42392 
   23550    97.046011   -1221.7938    75877.449   -17395.181     1318.808   -18713.989    69.381225    245.93261 
   23600    97.986462   -1255.5383    75937.669   -17395.981    1331.5883   -18727.569    69.700589    248.31589 
   23650    98.764049   -1087.0242    75978.668   -17358.847    1342.1553   -18701.002    69.905668    250.28644 
   23700    99.916991    -1307.787    76093.828   -17386.175    1357.8232   -18743.998    70.168168    253.20821 
   23750     99.52533   -1007.8107    76153.155   -17373.195    1352.5008   -18725.696    70.478105    252.21566 
   23800    98.219965   -1244.0817    76214.128   -17348.082    1334.7615   -18682.843    70.912984    248.90763 
   23850    99.821863   -1515.6429    76223.919   -17352.276    1356.5305   -18708.806    70.823247    252.96713 
   23900    99.901947   -1220.8359    76204.881   -17351.542    1357.6188    -18709.16    70.806813    253.17008 
   23950    100.09724   -1685.1205    76192.603   -17322.413    1360.2728   -18682.685    70.795718    253.66499 
   24000    101.39381   -1286.2502    76142.666   -17321.856    1377.8924   -18699.748    70.475764    256.95073 
   24050    99.892471   -1474.1638    76140.928    -17332.38      1357.49    -18689.87     70.83834    253.14607 
   24100    94.863698   -1332.6958    76206.852   -17369.773    1289.1515   -18658.924    70.921871    240.40222 
   24150    97.425482   -1588.2005    76236.019   -17398.832    1323.9649   -18722.797    71.123549    246.89426 
   24200    95.836094   -1441.8577    76202.705   -17372.073    1302.3658   -18674.439    71.274786    242.86646 
   24250    96.392905   -1492.7124    76224.652   -17405.299    1309.9326   -18715.231    71.346422    244.27752 
   24300    92.310619   -1405.5423    76206.294   -17416.367    1254.4564   -18670.823    71.528504    233.93225 
   24350    96.914739   -1751.1997    76186.602   -17405.689    1317.0241   -18722.713    72.024517    245.59994 
   24400    97.079776   -1323.4328    76125.751   -17342.671    1319.2669   -18661.938    72.143614    246.01818 
   24450    99.968092   -1463.4074    76118.912   -17373.305    1358.5177   -18731.823    72.387279     253.3377 
   24500    96.320772   -1572.8003    76064.875   -17374.169    1308.9524   -18683.121    72.824919    244.09472 
   24550    98.660677   -1660.6601     76018.55   -17365.004    1340.7506   -18705.754    72.994302    250.02447 
   24600    96.258735   -1467.4827    76019.716   -17382.996    1308.1093   -18691.105    73.220974    243.93751 
   24650    99.477954    -1336.106    76047.796   -17339.072     1351.857   -18690.929     73.64627     252.0956 
   24700    98.170627   -1523.5406    76066.278    -17330.29     1334.091   -18664.381    73.650207     248.7826 
   24750    96.685968   -1567.2994    76093.443   -17352.304    1313.9152   -18666.219    73.744208    245.02019 
   24800    97.093278   -1461.3256    76054.027   -17354.249    1319.4504     -18673.7    73.954033    246.05239 
   24850    96.025621   -1261.5397    76092.503   -17386.667    1304.9414   -18691.608    74.433059    243.34675 
   24900    98.774616   -1128.9541    76131.735   -17333.233    1342.2989   -18675.532    74.678677    250.31322 
   24950    97.848981   -1493.5601    76155.816    -17337.59      1329.72    -18667.31    75.012899    247.96748 
   25000    100.14537   -1316.3603    76156.599   -17282.136    1360.9268   -18643.063    75.129415    253.78696 
   25050    99.702413   -1378.5824    76167.819    -17269.81    1354.9072   -18624.718    75.402369    252.66442 
   25100     100.2606   -1194.5147    76233.417   -17232.225    1362.4927   -18594.718     75.47788    254.07897 
   25150    101.67672   -1445.7911    76218.403   -17277.821    1381.7371   -18659.559    75.797422    257.66768 
   25200    100.52995   -1419.5162    76232.768   -17257.932     1366.153   -18624.085    75.619586    254.76155 
   25250    98.884157   -1199.7315    76250.803   -17292.489    1343.7875   -18636.276    75.943047    250.59081 
   25300    99.343607   -1648.4325     76200.76   -17285.996    1350.0312   -18636.027    75.884316    251.75514 
   25350    101.28298   -1159.1037    76167.303   -17316.728    1376.3863   -18693.115    76.018551    256.66987 
   25400     99.16983   -1204.9072    76214.224   -17312.517    1347.6697   -18660.186    76.304262    251.31476 
   25450     99.59271   -1565.0282    76208.263   -17310.508    1353.4164   -18663.924    76.659368    252.38642 
   25500    96.216127   -1637.7686    76146.153   -17305.274    1307.5303   -18612.805    76.694512    243.82953 
   25550    101.31989    -1342.805    76078.145   -17291.918     1376.888   -18668.806    76.649397    256.76342 
   25600    99.507305   -1375.5908    76100.412   -17238.492    1352.2558   -18590.748     76.74112    252.16999 
   25650    100.15458   -1113.8415     76084.15   -17224.253     1361.052   -18585.305    77.176521     253.8103 
   25700    99.091006   -1388.4267    76097.406   -17229.229    1346.5985   -18575.827    77.416063    251.11501 
   25750    97.538189   -1473.3203    76026.923   -17275.642    1325.4965   -18601.139      77.6152    247.17988 
   25800    103.21177   -1641.8371    75989.772   -17260.716    1402.5976   -18663.313    77.688575    261.55778 
   25850    97.656598   -1415.3316    76025.945   -17266.693    1327.1056   -18593.799    77.804879    247.47995 
   25900     101.4548   -1425.0458    75982.421   -17284.661    1378.7214   -18663.382    77.824909    257.10531 
   25950    97.578849    -1444.347    75991.184    -17285.97     1326.049   -18612.019    77.886698    247.28292 
   26000    97.524148   -1187.4935    76000.624   -17291.149    1325.3057   -18616.455    77.957835     247.1443 
   26050    98.417702   -1393.3728    76018.363   -17323.777    1337.4486   -18661.226    78.145695    249.40873 
   26100    97.114826   -1577.4156    76042.889   -17329.305    1319.7432   -18649.048    78.518243      246.107 
   26150    97.410131   -1382.1288    76047.094   -17276.654    1323.7562    -18600.41    78.560901    246.85536 
   26200    96.720033   -1260.9057    76050.089   -17308.615    1314.3782   -18622.993    78.846688    245.10652 
   26250    99.396768   -984.06231    76119.646   -17289.051    1350.7537   -18639.804    78.884917    251.88987 
   26300    99.026223   -1292.8797    76177.629    -17269.36    1345.7181   -18615.078    79.113761    250.95083 
   26350    99.303601   -1182.0836    76245.482   -17222.509    1349.4876   -18571.996    79.032815    251.65376 
   26400    100.76983   -1223.5823    76273.844   -17220.825    1369.4129   -18590.238    78.987906    255.36946 
   26450    98.243816   -1340.7167    76306.711   -17230.154    1335.0856   -18565.239    78.968422    248.96807 
   26500    99.341555   -1486.5529    76328.857   -17260.766    1350.0034   -18610.769    79.164402    251.74995 
   26550     100.6905   -866.82261    76305.107   -17250.727    1368.3349   -18619.061     79.40224    255.16842 
   26600    101.78485   -1258.1397    76300.072   -17243.876    1383.2066   -18627.083    79.285649    257.94172 
   26650    100.88346   -1080.9773    76261.293   -17225.099    1370.9571   -18596.056    79.453432    255.65741 
   26700    101.25535   -1367.4325    76302.572   -17275.297    1376.0109   -18651.308    79.858394    256.59985 
   26750    99.842673   -1428.7138    76316.463   -17295.445    1356.8133   -18652.258    80.075955    253.01987 
   26800    99.052719    -1645.839    76285.385   -17287.709    1346.0782   -18633.787    80.241593    251.01798 
   26850    96.886766   -1136.7563    76274.127   -17314.878     1316.644   -18631.522      80.3121    245.52905 
   26900    99.684057   -1687.9594    76307.782   -17326.231    1354.6578   -18680.889    80.384437    252.61791 
   26950    99.614694   -1481.5053    76325.898   -17299.568    1353.7152   -18653.283    80.376565    252.44213 
   27000    99.275654   -1480.1403    76330.248   -17292.077    1349.1078   -18641.185    80.241946    251.58294 
   27050    99.848938   -1633.6503    76231.411   -17327.548    1356.8984   -18684.446    80.413376    253.03575 
   27100     97.44051   -1198.2726    76194.767   -17324.084    1324.1691   -18648.253    80.871317    246.93234 
   27150    95.997415    -1200.867    76211.607   -17331.013    1304.5581   -18635.571    81.248922    243.27527 
   27200    97.150244   -1357.8425    76165.105   -17348.631    1320.2245   -18668.856    81.252763    246.19675 
   27250    97.394671   -1247.8895    76145.426   -17368.841    1323.5461   -18692.387    81.322177    246.81618 
   27300    96.248673   -1268.0856    76106.753   -17350.702    1307.9726   -18658.675    81.547556    243.91201 
   27350    99.457478   -968.87201    76157.684   -17318.478    1351.5787   -18670.057    81.837167    252.04371 
   27400    93.827529   -1253.8293    76069.742   -17321.805    1275.0704   -18596.875    81.937169    237.77638 
   27450    96.232611   -1186.4665    76063.596   -17343.039    1307.7543   -18650.793    81.686927     243.8713 
   27500    92.318158   -1188.7024    76042.012   -17401.995    1254.5588   -18656.554    81.907509    233.95135 
   27550    97.463321   -1124.6805    76039.481    -17321.57    1324.4791   -18646.049    81.826108    246.99015 
   27600    98.054523   -1464.5331    76051.536   -17291.086    1332.5132   -18623.599    82.197062    248.48837 
   27650    95.674028   -1600.6056    76017.111   -17292.365    1300.1635   -18592.529    82.702013    242.45575 
   27700     98.55497   -1561.2906    75915.418    -17290.65     1339.314   -18629.964    83.176799    249.75659 
   27750    98.245956   -1427.4839     75845.81   -17264.677    1335.1147   -18599.792    83.462319    248.97349 
   27800    97.468229   -1093.9859    75807.747   -17260.695    1324.5458   -18585.241    83.747361    247.00259 
   27850    96.390877   -1200.1675    75858.182   -17252.624    1309.9051   -18562.529    83.998249    244.27238 
   27900    100.18683   -1281.5798    75912.753   -17277.809    1361.4902     -18639.3    84.238739    253.89202 
   27950    101.37524   -1419.3651    75925.755   -17281.175    1377.6402   -18658.815      83.8966    256.90368 
   28000    98.474909   -1407.3037    75848.386   -17244.685    1338.2261   -18582.911      83.9876     249.5537 
   28050    100.29916   -1124.5245    75816.908   -17245.728    1363.0168   -18608.744    84.141572     254.1767 
   28100    98.170977   -1178.4274    75845.041   -17227.327    1334.0958   -18561.423    84.108452    248.78348 
   28150    97.740735   -1477.0545    75802.361   -17253.039     1328.249   -18581.288    84.232944    247.69317 
   28200    100.84518   -1337.5799     75789.32   -17272.527    1370.4368   -18642.964    84.262642     255.5604 
   28250    97.350543   -1695.2352    75754.381   -17252.149    1322.9465   -18575.096    84.413179    246.70435 
   28300    97.335526   -1545.1519    75694.529   -17267.978    1322.7424    -18590.72    84.555743    246.66629 
   28350     99.98218   -1386.4327    75636.863   -17276.498    1358.7091   -18635.207    84.716935    253.37341 
   28400     100.5613   -1580.9402     75666.84   -17257.622    1366.5791   -18624.201    85.235488      254.841 
   28450    101.48588   -1585.8563    75696.857   -17214.348    1379.1437   -18593.492    85.699944    257.18407 
   28500     102.8513   -1362.9023    75672.799   -17203.017    1397.6991   -18600.716    85.690244     260.6443 
   28550    101.02212   -1557.3052    75664.898   -17223.143    1372.8415   -18595.984    85.907074    256.00882 
   28600    98.631398   -1672.5046    75680.677   -17240.235    1340.3527   -18580.588    86.217809    249.95027 
   28650    97.407547    -1497.333    75643.606   -17245.588    1323.7211   -18569.309    86.325706    246.84881 
   28700    98.936552   -1742.0625    75662.959   -17219.888    1344.4996   -18564.388    86.217384    250.72359 
   28750    98.641669   -1513.5247    75590.577   -17246.323    1340.4922   -18586.816    86.027137     249.9763 
   28800    98.707032   -1606.8641     75497.56   -17270.622    1341.3805   -18612.003    85.995841    250.14194 
   28850    98.870196   -1463.8093    75509.471   -17322.237    1343.5978   -18665.835    85.800966    250.55543 
   28900    99.202659   -1451.0306    75509.472   -17327.312    1348.1158   -18675.428    85.843355    251.39796 
   28950    99.393681    -1375.262    75529.407   -17305.351    1350.7117   -18656.063     85.69828    251.88204 
   29000    96.605441   -1372.2147    75582.776   -17304.593    1312.8209   -18617.414    85.672941    244.81612 
   29050    97.416258   -1348.8064    75571.458   -17275.551    1323.8395    -18599.39    85.910672    246.87088 
   29100    101.70279   -1296.7373    75554.903   -17236.746    1382.0914   -18618.837    85.896144    257.73376 
   29150    99.287041   -1391.6664    75567.893   -17215.956    1349.2625   -18565.219    86.056056     251.6118 
   29200     100.6129   -1138.4926    75555.846   -17232.774    1367.2803   -18600.054    86.535053    254.97176 
   29250    98.675475   -1565.1815    75496.758     -17290.1    1340.9516   -18631.052    86.773638    250.06197 
   29300    101.08985   -1225.7778    75511.008   -17257.267    1373.7618   -18631.029    86.588062    256.18045 
   29350    96.594637   -1152.5079    75534.947   -17247.495    1312.6741    -18560.17       86.992    244.78874 
   29400    99.389015   -1503.9088    75593.031   -17222.797    1350.6483   -18573.446    87.039234    251.87022 
   29450    99.809769   -1266.7131    75571.272   -17186.538    1356.3662   -18542.904    87.127471    252.93649 
   29500    100.51986   -1253.1735     75599.94   -17184.324     1366.016    -18550.34    87.482348    254.73599 
   29550     103.3638   -1191.0968    75629.915   -17212.163    1404.6638   -18616.827    87.993516    261.94307 
   29600    101.31874    -1400.634    75686.742   -17186.443    1376.8724   -18563.316    88.176319    256.76051 
   29650    104.12674   -1346.9219    75637.299   -17190.518    1415.0317    -18605.55    88.154226    263.87649 
   29700    102.37182   -1465.3282    75684.741   -17189.392    1391.1832   -18580.575     88.20669     259.4292 
   29750    102.46062    -1143.989    75673.443   -17173.336    1392.3899   -18565.726    88.362752    259.65424 
   29800    102.04138   -1326.5692    75741.066   -17197.161    1386.6926   -18583.854    88.597635     258.5918 
   29850    100.53744   -1346.5825    75777.222   -17214.237    1366.2548   -18580.491    88.738225    254.78053 
   29900    102.78697    -1387.528    75790.573   -17197.553    1396.8249   -18594.378    88.775241    260.48127 
   29950    99.892216   -1365.1007    75819.485   -17214.859    1357.4866   -18572.346    89.246347    253.14542 
   30000    103.24548   -1046.4307    75851.648   -17216.527    1403.0558   -18619.582    89.425702    261.64322 
   30050    102.52479   -1411.3602    75879.676   -17232.634     1393.262   -18625.896    89.734236    259.81685 
   30100    98.896662   -1096.0026    75825.826    -17291.48    1343.9575   -18635.438    90.219991     250.6225 
   30150    97.915336   -1654.2533    75840.355   -17325.936    1330.6217   -18656.558    90.240372    248.13564 
   30200    95.349293   -1309.6425    75780.717   -17324.474    1295.7505   -18620.225    90.431269    241.63281 
   30250    98.840747   -1687.4925    75816.752   -17291.527    1343.1976   -18634.724    90.625878     250.4808 
   30300    97.462426   -1509.2063     75738.63    -17314.52    1324.4669   -18638.987    90.734277    246.98788 
   30350    97.617493   -1396.0794    75697.392   -17304.793    1326.5742   -18631.367     90.92837    247.38085 
   30400    99.665614   -1386.6665    75742.518   -17284.685    1354.4072   -18639.092    91.485489    252.57117 
   30450    96.007792   -1333.3541    75801.703   -17281.939    1304.6991   -18586.638    91.648239    243.30157 
   30500     97.67325   -1501.8374    75830.914   -17285.153    1327.3319   -18612.485    91.923674    247.52215 
   30550    96.040225   -1440.3744    75788.836   -17289.283    1305.1399   -18594.423     91.78483    243.38376 
   30600    99.281926   -1431.5971    75773.477   -17287.566     1349.193   -18636.759    92.490278    251.59883 
   30650    98.520579   -1080.8787    75749.718   -17287.014    1338.8467   -18625.861    92.663794    249.66944 
   30700    97.988453   -1222.1476    75818.645   -17246.145    1331.6154    -18577.76    93.420975    248.32093 
   30750     101.4486   -1130.1339    75915.734    -17270.83    1378.6371   -18649.467    93.585395    257.08959 
   30800    98.159499   -1224.9956    75923.209   -17286.315    1333.9398   -18620.255     94.07256    248.75439 
   30850    98.893804   -1433.6769    75941.214   -17300.028    1343.9186   -18643.947    94.032602    250.61526 
   30900    98.603601   -1436.3343    75900.029   -17321.793    1339.9749   -18661.768    94.237717    249.87983 
   30950    97.954203   -1130.9934    75837.993   -17323.683    1331.1499   -18654.833    94.231932    248.23414 
   31000    98.123643   -1376.3946    75789.171   -17333.715    1333.4525   -18667.168    94.325172    248.66353 
   31050    98.361711   -1240.9415    75806.761   -17344.404    1336.6877   -18681.091     94.29779    249.26684 
   31100    98.492015   -1637.0598    75780.158   -17306.875    1338.4585   -18645.334    94.109051    249.59705 
   31150    98.927378   -1735.5623    75706.593   -17269.444    1344.3749   -18613.819    94.099273    250.70034 
   31200    99.835806   -1191.0804    75577.491   -17269.896      1356.72   -18626.616    93.718514    253.00247 
   31250    101.72068   -1362.9106    75567.842   -17265.062    1382.3345   -18647.396     93.86618    257.77908 
   31300    99.449713   -1572.5949    75498.028   -17286.693    1351.4732   -18638.166    94.219528    252.02404 
   31350    97.387644   -1244.6532    75505.613   -17277.118    1323.4507   -18600.569    94.704485    246.79837 
   31400    100.33263   -1336.5153    75506.921   -17275.484    1363.4715   -18638.955    94.986997     254.2615 
   31450    100.92224   -1238.2494     75511.61   -17233.391    1371.4841   -18604.876    95.131363    255.75569 
   31500    98.784603   -1020.1458    75439.489   -17249.122    1342.4346   -18591.556    95.428931    250.33852 
   31550    99.525095     -1113.68    75465.784   -17261.088    1352.4976   -18613.586    95.792847    252.21507 
   31600    99.018492   -1056.3775    75537.055   -17289.438    1345.6131   -18635.052    95.823466    250.93124 
   31650    99.709293   -1291.3688    75617.629   -17305.897    1355.0007   -18660.897    95.970538    252.68186 
   31700    97.264489   -1384.9102     75604.36   -17303.786     1321.777   -18625.563    95.989519    246.48627 
   31750    98.119217   -1628.1558    75594.672   -17331.299    1333.3924   -18664.692      96.3522    248.65231 
   31800    100.83262   -1431.3181    75615.516   -17319.004    1370.2663    -18689.27     96.60338    255.52859 
   31850    98.150976   -1555.9794    75554.622   -17319.074     1333.824   -18652.898    96.939992    248.73279 
   31900    98.808132   -1128.8019    75473.544   -17285.773    1342.7544   -18628.528     97.14761    250.39815 
   31950    103.54781   -1519.2998    75445.862   -17256.053    1407.1644   -18663.217     97.07147    262.40938 
   32000    103.51571   -1186.9649    75371.979   -17236.006    1406.7281   -18642.734    97.265717    262.32802 
   32050    99.918365   -1566.3232    75420.088   -17251.889    1357.8419   -18609.731    97.147229    253.21169 
   32100     99.52661   -1545.9689     75429.56   -17231.843    1352.5182   -18584.361    97.148263    252.21891 
   32150    99.945157    -1496.604     75435.55   -17255.665     1358.206   -18613.871    97.709008    253.27958 
   32200    97.780268   -1124.0954    75441.188   -17264.843    1328.7862    -18593.63    97.966893    247.79335 
   32250    98.155577   -1138.4073    75460.915   -17266.893    1333.8865   -18600.779    97.877128    248.74446 
   32300     98.42072   -1031.3592    75531.686   -17279.994    1337.4897   -18617.484    97.721851    249.41638 
   32350    99.193454   -1142.2556    75613.347   -17278.623    1347.9907   -18626.614    97.709718    251.37463 
   32400    99.971603   -1177.0254    75678.898   -17269.642    1358.5654   -18628.207    97.592553     253.3466 
   32450    99.193919   -952.64721        75726   -17250.836    1347.9971   -18598.833    97.480081    251.37581 
   32500    99.346331   -1178.7318    75825.751   -17255.641    1350.0683   -18605.709    97.814108    251.76205 
   32550    95.258273   -1551.7825    75764.104   -17264.501    1294.5135   -18559.014    97.763755    241.40215 
   32600    100.86595   -850.46405    75810.891   -17252.013    1370.7192   -18622.732    98.338046    255.61305 
   32650    97.997804   -1576.4908     75834.81   -17271.457    1331.7424   -18603.199    98.608535    248.34463 
   32700    97.767099    -1490.567    75826.397   -17299.741    1328.6073   -18628.348    98.704148    247.75998 
   32750    97.122184   -1566.4503     75768.99   -17302.812    1319.8432   -18622.655    98.680316    246.12565 
   32800    96.008375   -1330.7271     75688.48   -17337.546    1304.7071   -18642.254     98.86674    243.30305 
   32850    97.266852   -1494.4739    75697.405   -17367.523    1321.8091   -18689.332    99.022188    246.49226 
   32900    97.496047   -1040.1155    75732.251   -17329.291    1324.9238   -18654.215     98.99064    247.07308 
   32950    94.982099   -1481.6547    75791.487   -17357.458    1290.7605   -18648.219    99.003301    240.70227 
   33000     96.02274   -1489.2345    75781.502   -17370.567    1304.9023   -18675.469    98.939929    243.33945 
   33050    96.463689   -1483.5157    75757.633    -17340.21    1310.8946   -18651.104    99.167556     244.4569 
   33100    96.831261   -1315.0306     75691.54   -17300.964    1315.8897   -18616.854    99.602899    245.38839 
   33150     95.41038   -1572.0467    75663.736   -17306.187    1296.5806   -18602.768    99.885178    241.78762 
   33200    98.674988    -1562.086    75615.809    -17330.11     1340.945   -18671.055    100.15712    250.06074 
   33250    99.107717   -1303.4045    75559.323   -17325.701    1346.8256   -18672.527    100.15344    251.15735 
   33300    100.28722   -1322.8853    75575.042   -17289.997    1362.8544   -18652.851    99.988862    254.14643 
   33350     101.3135   -1460.9098    75550.284   -17302.034    1376.8011   -18678.835     99.72696    256.74722 
   33400    97.527767   -1150.1368    75543.806   -17303.572    1325.3549   -18628.927    99.902692    247.15347 
   33450    97.625842   -754.96284    75630.281   -17295.527    1326.6876   -18622.215    100.18194    247.40201 
   33500    99.736176   -1161.9816    75647.834   -17291.937    1355.3661   -18647.303    100.06971    252.74999 
   33550    100.46747   -1133.8846    75712.198   -17292.284    1365.3039   -18657.588    99.852876    254.60321 
   33600    98.861564   -1212.1975    75689.794   -17331.701    1343.4805   -18675.182    99.639807    250.53356 
   33650    98.268557   -1082.9668    75695.674   -17297.899    1335.4218   -18633.321    99.762084    249.03077 
   33700    97.816685   -1451.9037    75653.152   -17293.894    1329.2811   -18623.175    100.10951    247.88564 
   33750    100.20688   -1082.9294    75711.578   -17285.683    1361.7627   -18647.445    100.52476    253.94283 
   33800    96.301623   -1373.7877    75784.998   -17334.802    1308.6922   -18643.494     101.0578    244.04619 
   33850    95.871901   -1115.4489    75812.928   -17335.393    1302.8524   -18638.246    101.43373     242.9572 
   33900    97.291913   -1307.5426    75830.598   -17318.508    1322.1497   -18640.658    101.87472    246.55577 
   33950    98.073282   -1523.1512    75793.206   -17319.557    1332.7681   -18652.325     102.1847    248.53591 
[...]
   92000     99.00237   -1573.9988    75764.788   -17191.189     1345.394   -18536.583    274.60729    250.89039 
   92050    98.792548   -1560.5736    75704.497   -17219.872    1342.5426   -18562.414    275.43097    250.35866 
   92100    99.751692   -1380.8768     75641.59   -17202.311    1355.5769   -18557.888    275.72495    252.78931 
   92150    102.33163   -1377.1557     75658.01   -17195.519     1390.637   -18586.156     275.5854    259.32735 
   92200    101.37795   -1295.1752    75689.315   -17128.915     1377.677   -18506.592    276.04238    256.91055 
   92250    98.641274    -1233.334    75716.106   -17184.955    1340.4869   -18525.441    275.95252     249.9753 
   92300    99.872291   -1415.8896    75686.623   -17209.064    1357.2158    -18566.28    275.15439    253.09493 
   92350    99.427423   -1322.5761    75696.742   -17207.534    1351.1703   -18558.704    275.83134    251.96755 
   92400    95.697016   -1409.0545    75663.798   -17221.183    1300.4758   -18521.659    276.61943    242.51401 
   92450    98.644281   -1088.6452    75675.956   -17216.892    1340.5277    -18557.42    277.10202    249.98292 
   92500    97.703797   -1305.7961    75657.956   -17228.473     1327.747    -18556.22    277.04241    247.59956 
   92550    99.980666   -1223.0863    75683.397   -17192.477    1358.6886   -18551.165    276.49973    253.36957 
   92600    97.008935   -898.98777    75694.696   -17206.094    1318.3042   -18524.398    276.46414    245.83865 
   92650    99.343642   -1309.7527    75813.844   -17228.756    1350.0317   -18578.787    276.89289    251.75523 
   92700    97.571951   -1377.4823    75836.675       -17264    1325.9553   -18589.955    277.10025    247.26544 
   92750    97.194134   -1149.1461    75822.681   -17270.796    1320.8209   -18591.617    277.46928    246.30798 
   92800    96.786178   -1185.0136    75783.733   -17298.657     1315.277   -18613.935     278.0971    245.27414 
   92850    95.780724   -1268.8844    75778.127   -17296.131    1301.6134   -18597.744    278.29647    242.72614 
   92900    99.100435    -1360.309    75798.235   -17244.194    1346.7266    -18590.92    278.72785     251.1389 
   92950     99.13779    -1270.541    75811.156   -17245.633    1347.2343   -18592.868    279.14885    251.23357 
   93000    98.951127    -1448.385    75841.639   -17227.976    1344.6976   -18572.674    279.35506    250.76053 
   93050    101.90566   -1404.0356    75848.707   -17245.639    1384.8482   -18630.487    279.28767    258.24785 
   93100    97.918954   -1410.1986    75880.588   -17253.441    1330.6709   -18584.112    279.88023    248.14481 
   93150    97.645578   -1175.7363    75861.968   -17238.159    1326.9559   -18565.115    279.78548    247.45202 
   93200    98.049339   -1227.1501    75892.839    -17241.54    1332.4428   -18573.983    280.44711    248.47523 
   93250    101.56013   -1034.1963    75962.741   -17247.365    1380.1527   -18627.517    280.34932    257.37223 
   93300    101.25211   -1726.1539    75937.475   -17234.211    1375.9668   -18610.178    280.91072    256.59164 
   93350    94.714716   -1495.5733    75913.395   -17251.758    1287.1269   -18538.885    281.10419    240.02468 
   93400    100.28387   -1238.8556    75929.543   -17244.903    1362.8089   -18607.712    281.21808    254.13794 
   93450    96.138456   -1139.0583    75909.544   -17263.769    1306.4748   -18570.244    281.29407     243.6327 
   93500    96.757558   -1817.5188    75828.675   -17279.882    1314.8881    -18594.77     280.9703    245.20162 
   93550    96.810209   -1385.1528    75790.311   -17313.701    1315.6036   -18629.305      281.645    245.33504 
   93600    99.295401    -1642.441    75760.072   -17341.232    1349.3761   -18690.608    281.90154    251.63298 
   93650     97.76131   -1219.0781    75710.828   -17347.862    1328.5286   -18676.391    281.66553    247.74531 
   93700    97.313378   -1393.5595    75709.629    -17338.76    1322.4414   -18661.202    282.76846    246.61017 
   93750     96.73636    -1653.649    75721.945   -17308.536       1314.6   -18623.136    283.60503     245.1479 
   93800    100.34055    -1145.168    75714.983   -17315.228    1363.5792   -18678.807    283.44157    254.28157 
   93850    99.036905   -998.46308    75760.564    -17292.23    1345.8633   -18638.093    283.72988    250.97791 
   93900    103.49148   -1269.2978    75780.697    -17266.99    1406.3988   -18673.389    283.47504    262.26661 
   93950    100.07609   -1270.5937    75770.134    -17276.29    1359.9853   -18636.275    283.03972     253.6114 
   94000    99.055864   -1189.5456    75816.289   -17270.269     1346.121    -18616.39    282.76006    251.02595 
   94050    98.492898    -1407.831    75797.448   -17288.395    1338.4705   -18626.866    283.65407    249.59929 
   94100    100.72085   -1073.1937    75816.299   -17279.835    1368.7473   -18648.582    284.41205    255.24534 
   94150     99.98524   -1192.3893    75865.276   -17289.039    1358.7507    -18647.79    284.60688    253.38116 
   94200    101.12608   -1545.5036    75836.487   -17252.865    1374.2542    -18627.12    284.32991    256.27227 
   94250    99.814486   -1462.2863     75911.96   -17261.155    1356.4303   -18617.586    284.22897    252.94844 
   94300    98.991615   -1715.9789    75864.665   -17273.533    1345.2478   -18618.781    283.89443    250.86313 
   94350    96.332837    -1538.816    75807.719   -17274.367    1309.1163   -18583.484    284.45529    244.12529 
   94400     95.53512   -1518.2417    75753.476   -17304.703    1298.2758   -18602.978    284.54726    242.10373 
   94450    97.513381   -1217.9099    75706.762    -17284.61    1325.1594   -18609.769    284.55774    247.11701 
   94500    95.717787   -1333.1345    75642.512   -17276.428    1300.7581   -18577.186    284.70063    242.56664 
   94550    95.358852   -1320.0123    75614.098     -17251.4    1295.8804    -18547.28    285.11745    241.65704 
   94600    94.841681   -1343.2195    75556.068   -17284.022    1288.8523   -18572.874    285.09161    240.34643 
   94650    98.468575   -1412.4659    75575.792   -17286.456      1338.14   -18624.596    285.08042    249.53765 
   94700    97.865971   -1753.0876    75570.172   -17299.205    1329.9509   -18629.156    285.22078    248.01054 
   94750    97.565466   -1340.4709    75581.165   -17318.151    1325.8672   -18644.018     285.4144      247.249 
   94800    97.554472   -1413.6259    75562.754   -17316.482    1325.7178   -18642.199    285.46203    247.22114 
   94850     103.2199   -1714.9568    75594.715   -17286.636    1402.7082   -18689.344    285.59806     261.5784 
   94900    96.253074   -1490.0859    75595.174   -17328.762    1308.0324   -18636.794    285.76954    243.92316 
   94950    97.031611   -1702.1849    75584.541   -17316.403    1318.6123   -18635.015    285.58529    245.89612 
   95000    99.312069   -1225.6711     75538.34   -17271.515    1349.6027   -18621.118    285.45646    251.67522 
   95050    96.873167   -1385.4738    75491.191   -17298.091    1316.4592    -18614.55    285.38535    245.49459 
   95100    96.104684   -1405.7623    75525.828   -17302.233    1306.0159   -18608.249    285.81743    243.54711 
   95150      98.0846   -1074.9609    75546.605   -17306.842    1332.9219   -18639.764    286.26054    248.56459 
   95200    98.535507   -1161.3982    75627.247   -17274.727    1339.0496   -18613.777    286.69604    249.70727 
   95250    99.168035   -1241.3563      75686.2   -17268.866    1347.6453   -18616.511    286.30301    251.31021 
   95300    99.312573    -1197.487    75732.544   -17216.148    1349.6095   -18565.758    286.84296     251.6765 
   95350    102.62293   -1529.7713    75740.549   -17184.467    1394.5956   -18579.063    286.55376    260.06555 
   95400    99.784299   -978.91428    75779.922   -17234.536      1356.02   -18590.556    286.89122    252.87194 
   95450    100.26664   -1243.3146    75811.982   -17241.084    1362.5748   -18603.658    287.65535    254.09428 
   95500    95.486286   -1017.7666    75841.334   -17223.064    1297.6121   -18520.676    287.66272    241.97998 
   95550    98.428306   -1443.1072    75862.686   -17243.264    1337.5927   -18580.856    287.71267     249.4356 
   95600     98.29049   -1389.6787    75809.477   -17271.313    1335.7199   -18607.032    287.75996    249.08635 
   95650    96.993036   -1479.5649    75826.467   -17282.962    1318.0881    -18601.05    288.38676    245.79836 
   95700    97.991576   -1316.7345    75816.116   -17268.741    1331.6578   -18600.398    289.15849    248.32885 
   95750    97.169192   -1446.4593    75755.679   -17254.068     1320.482    -18574.55    288.76052    246.24477 
   95800      96.4427   -1479.6321    75711.211   -17307.838    1310.6093   -18618.447    288.63389    244.40371 
   95850    99.613753   -1525.2689    75680.261   -17262.902    1353.7024   -18616.605     288.5937    252.43974 
   95900    97.556935   -1191.4622    75673.475   -17269.746    1325.7512   -18595.498    288.76836    247.22738 
   95950    97.378241   -763.13173    75679.678   -17291.506    1323.3229   -18614.829    289.42558    246.77454 
   96000    100.50226    -1468.446    75738.682   -17295.823    1365.7768   -18661.599    290.60727    254.69139 
   96050    98.371415   -1157.8372    75725.054   -17295.316    1336.8196   -18632.136     290.0036    249.29143 
   96100    97.476715   -1195.9305    75754.983   -17341.588    1324.6611   -18666.249     289.8877    247.02409 
   96150    97.408794   -1337.0702    75809.384   -17328.149    1323.7381   -18651.887    290.36009    246.85197 
   96200    97.418622   -1397.0186    75829.253   -17309.836    1323.8716   -18633.707    290.45635    246.87688 
   96250    98.288874   -1434.6597    75839.123   -17310.729    1335.6979   -18646.427    291.01814    249.08226 
   96300    97.412947   -1323.2515    75812.576   -17296.037    1323.7945   -18619.832    291.50615    246.86249 
   96350    96.148475   -1400.6536    75784.574   -17306.738    1306.6109   -18613.349    291.80675    243.65809 
   96400     99.18216   -1239.2663    75798.621   -17309.724    1347.8373   -18657.562    291.33879    251.34601 
   96450    101.40707   -1135.7831    75848.037   -17302.555    1378.0727   -18680.627    291.37624    256.98434 
   96500    101.49776   -1119.8612     75938.83   -17302.762    1379.3051   -18682.067    291.53538    257.21417 
   96550    98.023093     -1291.26    75963.208   -17311.241    1332.0861   -18643.327    291.58594    248.40872 
   96600    97.908131   -1224.2292    75931.277   -17336.243    1330.5238   -18666.767    291.57774    248.11738 
   96650    98.497651   -1534.9353    75893.548   -17336.526    1338.5351   -18675.061    291.96658    249.61134 
   96700     97.58587    -1566.452    75856.959   -17331.506    1326.1444   -18657.651     291.5544    247.30071 
   96750    99.416367    -1246.569     75884.36    -17290.61      1351.02    -18641.63    291.18438    251.93953 
   96800    99.338998   -1280.7652    75867.923   -17244.202    1349.9686    -18594.17    291.17077    251.74346 
   96850    98.731779   -1128.4093    75838.849    -17269.75    1341.7168   -18611.467    291.17595    250.20466 
   96900    97.988898   -1486.0393    75786.174   -17274.859    1331.6214    -18606.48    291.46116    248.32206 
   96950    96.994752   -1071.9545    75697.083   -17300.333    1318.1114   -18618.445    291.52139    245.80271 
   97000    96.942353   -1094.6253    75739.625   -17319.946    1317.3994   -18637.346     292.2258    245.66992 
   97050    95.646195   -1209.6334    75786.601   -17343.301    1299.7852   -18643.087    292.22607    242.38521 
   97100    95.336513    -1430.195     75886.48   -17354.754    1295.5768   -18650.331    292.33122    241.60042 
   97150    96.107993   -1457.9875    75912.051   -17373.916    1306.0608   -18679.977    292.09682     243.5555 
   97200    95.925645   -1494.4202    75926.411   -17350.552    1303.5828   -18654.134    292.13093    243.09339 
   97250    95.344682   -1450.4689    75925.694   -17341.303    1295.6878    -18636.99    291.99608    241.62113 
   97300    97.652913   -1337.0187    75986.123   -17354.151    1327.0555   -18681.207    292.33367    247.47061 
   97350    97.430689   -1785.8779    76016.533   -17365.435    1324.0356   -18689.471    293.29265    246.90745 
   97400    98.937189   -1353.7036     75992.81   -17365.054    1344.5082   -18709.562    293.46507    250.72521 
   97450    96.084533   -1435.6208    75967.542   -17353.369     1305.742   -18659.111    293.67344    243.49604 
   97500    99.535093   -1284.1735    75894.626     -17291.6    1352.6334   -18644.233    293.42172     252.2404 
   97550    95.779144   -1310.7178    75912.173   -17327.415    1301.5919   -18629.007    294.45968    242.72213 
   97600    100.43063    -1178.271    75950.213   -17334.351    1364.8033   -18699.155     294.9299    254.50985 
   97650    98.432332   -1328.4134    75923.859   -17363.701    1337.6475   -18701.348    295.13309     249.4458 
   97700    98.268657   -1611.4683    75930.285   -17367.851    1335.4232   -18703.274    295.85551    249.03102 
   97750    96.817401   -1278.8343    75887.102   -17384.461    1315.7013   -18700.162    296.15545    245.35327 
   97800    97.073284   -1512.3108    75918.224    -17386.38    1319.1787   -18705.558    296.20993    246.00172 
   97850    93.117606    -1375.102    75885.399   -17405.664    1265.4229   -18671.087    296.06973     235.9773 
   97900    95.506177   -1395.8429    75855.729   -17393.148    1297.8824    -18691.03    295.69212    242.03038 
   97950    94.927437   -1351.9762    75832.864   -17411.966    1290.0176   -18701.984    295.44952    240.56375 
   98000    94.790624   -1276.2556    75835.351   -17417.655    1288.1584   -18705.814    295.22561    240.21704 
   98050    98.416542   -1401.1916    75844.738   -17382.153    1337.4329   -18719.585    295.27515    249.40579 
   98100    96.937025   -1164.9576     75930.22   -17389.335     1317.327   -18706.662    295.22866    245.65642 
   98150    98.711232   -1211.3832    76031.056   -17382.273    1341.4376   -18723.711    294.92673    250.15259 
   98200    96.313694   -1236.2695     76051.72   -17360.527    1308.8562   -18669.383    295.34314    244.07678 
   98250    96.302816    -1402.979    76132.287   -17339.095    1308.7084   -18647.803     295.3218    244.04921 
   98300     97.61646   -1594.7565     76085.41   -17369.489    1326.5602   -18696.049    295.24302    247.37823 
   98350     100.0556   -1439.7962    76050.433    -17353.61    1359.7069   -18713.317    295.22782    253.55947 
   98400     98.21923   -1466.9072    76066.605   -17337.661    1334.7515   -18672.413    295.29323    248.90577 
   98450    98.331672   -1670.8281    76074.157   -17316.176    1336.2795   -18652.456    295.26793    249.19071 
   98500    96.887667   -1397.2137    76031.677   -17312.195    1316.6562   -18628.851    295.31684    245.53134 
   98550     98.86644   -1203.3813    76052.859   -17328.287    1343.5468   -18671.834    294.93977    250.54591 
   98600    98.138982   -1330.4823    76052.184   -17338.399     1333.661    -18672.06    295.45891     248.7024 
   98650    98.807468   -1216.6738    76050.335    -17300.78    1342.7454   -18643.525    295.78401    250.39647 
   98700    102.18633   -1438.5225    76084.889   -17248.549    1388.6624   -18637.212    296.10007    258.95913 
   98750    102.81787     -1501.34    76073.569    -17246.79    1397.2447   -18644.035    296.44441    260.55956 
   98800    100.00747   -1181.5632     76088.11   -17288.932    1359.0528   -18647.985    296.64166    253.43748 
   98850    97.830127   -1283.1182    76099.426   -17254.969    1329.4638   -18584.433    297.26455    247.91971 
   98900     103.7578   -1305.5202    76018.166   -17201.057     1410.018   -18611.075    297.65298    262.94153 
   98950    96.687222   -1327.5995    76013.299   -17234.657    1313.9323   -18548.589    297.50286    245.02337 
   99000    98.729197   -1066.9714    75968.274   -17263.125    1341.6817   -18604.807    297.28906    250.19812 
   99050    99.483588   -1389.6633    75995.906   -17288.954    1351.9335   -18640.887    298.14333    252.10988 
   99100    97.648727   -1199.1672    76070.018   -17283.709    1326.9987   -18610.708    298.53084       247.46 
   99150    98.188648   -1372.9505    76106.303   -17261.308    1334.3359   -18595.644    297.53587    248.82826 
   99200    98.033826   -1209.7867    76160.233   -17262.763     1332.232   -18594.995    298.31365    248.43592 
   99250    99.582987   -1304.4527     76236.03   -17247.391    1353.2843   -18600.675    299.08654    252.36178 
   99300      99.0497   -1124.5763    76272.194   -17246.165    1346.0372   -18592.203    298.75723    251.01033 
   99350    98.031172   -984.51284    76315.551   -17261.478    1332.1959   -18593.674    299.71198    248.42919 
   99400    97.543127   -1012.0094    76312.388   -17279.677    1325.5636   -18605.241    299.60509    247.19239 
   99450    98.329593   -1345.1208     76335.04   -17280.069    1336.2513   -18616.321    299.45361    249.18544 
   99500    98.748145   -986.26666    76350.617   -17266.117    1341.9392   -18608.056     299.8257    250.24613 
   99550    97.452769   -1035.7713    76446.494   -17235.126    1324.3357   -18559.462    299.41079    246.96341 
   99600    97.683877    -1174.068    76480.496   -17259.698    1327.4763   -18587.174    299.46571    247.54908 
   99650    99.745533   -1586.9576    76460.606   -17263.899    1355.4932   -18619.392    299.24639     252.7737 
   99700     99.47507   -1254.1725    76477.361   -17280.987    1351.8178   -18632.805     299.3232     252.0883 
   99750    100.30206   -1326.7216    76470.339   -17281.722    1363.0561   -18644.778    300.24743    254.18403 
   99800     97.11966   -1211.3964    76537.908   -17292.951    1319.8089   -18612.759    299.84375    246.11925 
   99850    95.509774   -1586.8464    76495.059   -17290.143    1297.9313   -18588.075    300.16286     242.0395 
   99900    101.97928   -1313.6216    76463.488   -17258.947    1385.8488   -18644.796    300.30502    258.43444 
   99950    97.375647   -1357.7794    76469.546   -17268.477    1323.2876   -18591.764    300.13413    246.76797 
  100000    98.973914   -1228.1397    76457.544   -17263.675    1345.0073   -18608.682    300.34658    250.81827 
Loop time of 72.7954 on 64 procs for 100000 steps with 4560 atoms

Performance: 593.444 ns/day, 0.040 hours/ns, 1373.713 timesteps/s
100.0% CPU use with 64 MPI tasks x no OpenMP threads

MPI task timing breakdown:
Section |  min time  |  avg time  |  max time  |%varavg| %total
---------------------------------------------------------------
Pair    | 8.7698     | 29.158     | 51.286     | 318.8 | 40.05
Neigh   | 0.50556    | 1.499      | 2.7857     |  71.2 |  2.06
Comm    | 12.712     | 33.463     | 57.2       | 333.6 | 45.97
Output  | 0.11523    | 0.1175     | 0.12981    |   0.5 |  0.16
Modify  | 4.4458     | 7.8173     | 15.414     | 150.4 | 10.74
Other   |            | 0.7409     |            |       |  1.02

Nlocal:    71.25 ave 122 max 33 min
Histogram: 18 14 0 0 0 2 14 0 7 9
Nghost:    760.453 ave 949 max 383 min
Histogram: 16 0 0 0 0 0 1 15 0 32
Neighs:    0 ave 0 max 0 min
Histogram: 64 0 0 0 0 0 0 0 0 0
FullNghs:  7184.5 ave 16450 max 1238 min
Histogram: 31 1 0 0 2 14 0 0 2 14

Total # of neighbors = 459808
Ave neighs/atom = 100.835
Neighbor list builds = 5825
Dangerous builds = 0

write_data		${DIR}/data.eq-${NAME}-${TEMP}
write_data		run_5/data.eq-${NAME}-${TEMP}
write_data		run_5/data.eq-het_freeze_5-${TEMP}
write_data		run_5/data.eq-het_freeze_5-250
undump          1

reset_timestep  0

unfix           2
unfix           3
unfix           4


################################################
#######         Run Simulation         #########
################################################

log				${DIR}/log.run_${NAME}
log				run_5/log.run_${NAME}
log				run_5/log.run_het_freeze_5
