LAMMPS data file via write_data, version 16 Mar 2018, timestep = 100000

4537 atoms
2 atom types

0.0000000000000000e+00 4.9219999999999999e+01 xlo xhi
0.0000000000000000e+00 4.9019635930410494e+01 ylo yhi
1.6295991004978916e+00 3.2310400899502774e+01 zlo zhi

Masses

1 18.015
2 12.01

Atoms # atomic

96 2 0.0000000000000000e+00 2.8417180249513345e+00 3.2809318871704134e+00 0 0 0
98 2 0.0000000000000000e+00 0.0000000000000000e+00 3.2809318871704134e+00 0 0 0
100 2 1.2305000000000001e+00 7.1042950623783474e-01 3.2809318871704134e+00 0 0 0
107 2 1.2305000000000001e+00 2.1312885187134998e+00 3.2809318871704134e+00 0 0 0
109 2 2.4610000000000003e+00 2.8417180249513345e+00 3.2809318871704134e+00 0 0 0
111 2 2.4610000000000003e+00 0.0000000000000000e+00 3.2809318871704134e+00 0 0 0
113 2 3.6915000000000004e+00 7.1042950623783474e-01 3.2809318871704134e+00 0 0 0
128 2 3.6914999999999996e+00 2.1312885187134998e+00 3.2809318871704134e+00 0 0 0
130 2 4.9220000000000006e+00 2.8417180249513332e+00 3.2809318871704134e+00 0 0 0
132 2 4.9220000000000006e+00 0.0000000000000000e+00 3.2809318871704134e+00 0 0 0
134 2 6.1524999999999999e+00 7.1042950623783407e-01 3.2809318871704134e+00 0 0 0
157 2 6.1524999999999999e+00 2.1312885187134989e+00 3.2809318871704134e+00 0 0 0
159 2 7.3829999999999991e+00 2.8417180249513345e+00 3.2809318871704134e+00 0 0 0
161 2 7.3829999999999991e+00 0.0000000000000000e+00 3.2809318871704134e+00 0 0 0
163 2 8.6134999999999984e+00 7.1042950623783407e-01 3.2809318871704134e+00 0 0 0
194 2 8.6134999999999984e+00 2.1312885187135002e+00 3.2809318871704134e+00 0 0 0
103 2 0.0000000000000000e+00 4.2625770374269996e+00 3.2809318871704134e+00 0 0 0
105 2 1.2305000000000001e+00 4.9730065436648339e+00 3.2809318871704134e+00 0 0 0
120 2 1.2305000000000001e+00 6.3938655561404980e+00 3.2809318871704134e+00 0 0 0
124 2 2.4610000000000003e+00 4.2625770374269996e+00 3.2809318871704134e+00 0 0 0
126 2 3.6914999999999996e+00 4.9730065436648339e+00 3.2809318871704134e+00 0 0 0
149 2 3.6914999999999996e+00 6.3938655561404980e+00 3.2809318871704134e+00 0 0 0
101 2 0.0000000000000000e+00 7.1042950623783341e+00 3.2809318871704134e+00 0 0 0
122 2 2.4610000000000003e+00 7.1042950623783341e+00 3.2809318871704134e+00 0 0 0
153 2 4.9220000000000006e+00 4.2625770374269978e+00 3.2809318871704134e+00 0 0 0
155 2 6.1524999999999999e+00 4.9730065436648339e+00 3.2809318871704134e+00 0 0 0
186 2 6.1524999999999999e+00 6.3938655561404980e+00 3.2809318871704134e+00 0 0 0
190 2 7.3829999999999991e+00 4.2625770374269996e+00 3.2809318871704134e+00 0 0 0
192 2 8.6135000000000002e+00 4.9730065436648339e+00 3.2809318871704134e+00 0 0 0
231 2 8.6135000000000002e+00 6.3938655561404980e+00 3.2809318871704134e+00 0 0 0
151 2 4.9220000000000006e+00 7.1042950623783341e+00 3.2809318871704134e+00 0 0 0
188 2 7.3830000000000009e+00 7.1042950623783341e+00 3.2809318871704134e+00 0 0 0
116 2 0.0000000000000000e+00 8.5251540748539991e+00 3.2809318871704134e+00 0 0 0
118 2 1.2305000000000001e+00 9.2355835810918343e+00 3.2809318871704134e+00 0 0 0
145 2 2.4610000000000003e+00 8.5251540748539991e+00 3.2809318871704134e+00 0 0 0
147 2 3.6915000000000004e+00 9.2355835810918343e+00 3.2809318871704134e+00 0 0 0
114 2 0.0000000000000000e+00 1.1366872099805333e+01 3.2809318871704134e+00 0 0 0
141 2 1.2305000000000001e+00 1.0656442593567498e+01 3.2809318871704134e+00 0 0 0
143 2 2.4610000000000003e+00 1.1366872099805333e+01 3.2809318871704134e+00 0 0 0
178 2 3.6914999999999996e+00 1.0656442593567499e+01 3.2809318871704134e+00 0 0 0
182 2 4.9220000000000006e+00 8.5251540748539991e+00 3.2809318871704134e+00 0 0 0
184 2 6.1524999999999999e+00 9.2355835810918343e+00 3.2809318871704134e+00 0 0 0
227 2 7.3830000000000009e+00 8.5251540748539991e+00 3.2809318871704134e+00 0 0 0
229 2 8.6134999999999984e+00 9.2355835810918343e+00 3.2809318871704134e+00 0 0 0
180 2 4.9220000000000006e+00 1.1366872099805333e+01 3.2809318871704134e+00 0 0 0
223 2 6.1524999999999999e+00 1.0656442593567499e+01 3.2809318871704134e+00 0 0 0
225 2 7.3829999999999991e+00 1.1366872099805333e+01 3.2809318871704134e+00 0 0 0
270 2 8.6134999999999984e+00 1.0656442593567498e+01 3.2809318871704134e+00 0 0 0
97 2 0.0000000000000000e+00 1.4208590124756650e+00 6.2831639181932788e+00 0 0 0
99 2 0.0000000000000000e+00 0.0000000000000000e+00 6.2831639181932788e+00 0 0 0
108 2 1.2305000000000001e+00 2.1312885187134998e+00 6.2831639181932788e+00 0 0 0
110 2 2.4610000000000003e+00 1.4208590124756650e+00 6.2831639181932788e+00 0 0 0
112 2 2.4610000000000003e+00 0.0000000000000000e+00 6.2831639181932788e+00 0 0 0
129 2 3.6914999999999996e+00 2.1312885187134998e+00 6.2831639181932788e+00 0 0 0
106 2 1.2305000000000001e+00 3.5521475311891644e+00 6.2831639181932788e+00 0 0 0
127 2 3.6914999999999996e+00 3.5521475311891644e+00 6.2831639181932788e+00 0 0 0
131 2 4.9220000000000006e+00 1.4208590124756650e+00 6.2831639181932788e+00 0 0 0
133 2 4.9220000000000006e+00 0.0000000000000000e+00 6.2831639181932788e+00 0 0 0
158 2 6.1524999999999999e+00 2.1312885187134989e+00 6.2831639181932788e+00 0 0 0
160 2 7.3829999999999991e+00 1.4208590124756659e+00 6.2831639181932788e+00 0 0 0
162 2 7.3829999999999991e+00 0.0000000000000000e+00 6.2831639181932788e+00 0 0 0
195 2 8.6134999999999984e+00 2.1312885187135002e+00 6.2831639181932788e+00 0 0 0
156 2 6.1524999999999999e+00 3.5521475311891644e+00 6.2831639181932788e+00 0 0 0
193 2 8.6134999999999984e+00 3.5521475311891657e+00 6.2831639181932788e+00 0 0 0
102 2 0.0000000000000000e+00 5.6834360499026637e+00 6.2831639181932788e+00 0 0 0
104 2 0.0000000000000000e+00 4.2625770374269996e+00 6.2831639181932788e+00 0 0 0
121 2 1.2305000000000001e+00 6.3938655561404980e+00 6.2831639181932788e+00 0 0 0
123 2 2.4610000000000003e+00 5.6834360499026637e+00 6.2831639181932788e+00 0 0 0
125 2 2.4610000000000003e+00 4.2625770374269996e+00 6.2831639181932788e+00 0 0 0
150 2 3.6914999999999996e+00 6.3938655561404980e+00 6.2831639181932788e+00 0 0 0
119 2 1.2305000000000001e+00 7.8147245686161639e+00 6.2831639181932788e+00 0 0 0
148 2 3.6914999999999996e+00 7.8147245686161639e+00 6.2831639181932788e+00 0 0 0
152 2 4.9220000000000006e+00 5.6834360499026637e+00 6.2831639181932788e+00 0 0 0
154 2 4.9220000000000006e+00 4.2625770374269978e+00 6.2831639181932788e+00 0 0 0
187 2 6.1524999999999999e+00 6.3938655561404980e+00 6.2831639181932788e+00 0 0 0
189 2 7.3829999999999991e+00 5.6834360499026637e+00 6.2831639181932788e+00 0 0 0
191 2 7.3829999999999991e+00 4.2625770374269996e+00 6.2831639181932788e+00 0 0 0
232 2 8.6135000000000002e+00 6.3938655561404980e+00 6.2831639181932788e+00 0 0 0
185 2 6.1524999999999999e+00 7.8147245686161639e+00 6.2831639181932788e+00 0 0 0
230 2 8.6135000000000002e+00 7.8147245686161639e+00 6.2831639181932788e+00 0 0 0
115 2 0.0000000000000000e+00 9.9460130873296642e+00 6.2831639181932788e+00 0 0 0
117 2 0.0000000000000000e+00 8.5251540748539991e+00 6.2831639181932788e+00 0 0 0
144 2 2.4610000000000003e+00 9.9460130873296642e+00 6.2831639181932788e+00 0 0 0
146 2 2.4610000000000003e+00 8.5251540748539991e+00 6.2831639181932788e+00 0 0 0
140 2 1.2305000000000001e+00 1.2077301606043163e+01 6.2831639181932788e+00 0 0 0
142 2 1.2305000000000001e+00 1.0656442593567498e+01 6.2831639181932788e+00 0 0 0
177 2 3.6914999999999996e+00 1.2077301606043163e+01 6.2831639181932788e+00 0 0 0
179 2 3.6914999999999996e+00 1.0656442593567499e+01 6.2831639181932788e+00 0 0 0
181 2 4.9220000000000006e+00 9.9460130873296642e+00 6.2831639181932788e+00 0 0 0
183 2 4.9220000000000006e+00 8.5251540748539991e+00 6.2831639181932788e+00 0 0 0
226 2 7.3830000000000009e+00 9.9460130873296642e+00 6.2831639181932788e+00 0 0 0
228 2 7.3830000000000009e+00 8.5251540748539991e+00 6.2831639181932788e+00 0 0 0
222 2 6.1524999999999999e+00 1.2077301606043163e+01 6.2831639181932788e+00 0 0 0
224 2 6.1524999999999999e+00 1.0656442593567499e+01 6.2831639181932788e+00 0 0 0
269 2 8.6135000000000002e+00 1.2077301606043163e+01 6.2831639181932788e+00 0 0 0
271 2 8.6134999999999984e+00 1.0656442593567498e+01 6.2831639181932788e+00 0 0 0
425 2 0.0000000000000000e+00 2.8417180249513345e+00 9.2853959492158076e+00 0 0 0
426 2 0.0000000000000000e+00 0.0000000000000000e+00 9.2853959492158076e+00 0 0 0
427 2 1.2305000000000001e+00 7.1042950623783474e-01 9.2853959492158076e+00 0 0 0
431 2 1.2305000000000001e+00 2.1312885187134998e+00 9.2853959492158076e+00 0 0 0
432 2 2.4610000000000003e+00 2.8417180249513345e+00 9.2853959492158076e+00 0 0 0
433 2 2.4610000000000003e+00 0.0000000000000000e+00 9.2853959492158076e+00 0 0 0
434 2 3.6915000000000004e+00 7.1042950623783474e-01 9.2853959492158076e+00 0 0 0
442 2 3.6914999999999996e+00 2.1312885187134998e+00 9.2853959492158076e+00 0 0 0
492 2 7.3829999999999991e+00 1.1366872099805333e+01 9.2853959492158076e+00 0 0 0
443 2 4.9220000000000006e+00 2.8417180249513332e+00 9.2853959492158076e+00 0 0 0
444 2 4.9220000000000006e+00 0.0000000000000000e+00 9.2853959492158076e+00 0 0 0
445 2 6.1524999999999999e+00 7.1042950623783407e-01 9.2853959492158076e+00 0 0 0
457 2 6.1524999999999999e+00 2.1312885187134989e+00 9.2853959492158076e+00 0 0 0
458 2 7.3829999999999991e+00 2.8417180249513345e+00 9.2853959492158076e+00 0 0 0
459 2 7.3829999999999991e+00 0.0000000000000000e+00 9.2853959492158076e+00 0 0 0
460 2 8.6134999999999984e+00 7.1042950623783407e-01 9.2853959492158076e+00 0 0 0
476 2 8.6134999999999984e+00 2.1312885187135002e+00 9.2853959492158076e+00 0 0 0
515 2 8.6134999999999984e+00 1.0656442593567498e+01 9.2853959492158076e+00 0 0 0
429 2 0.0000000000000000e+00 4.2625770374269996e+00 9.2853959492158076e+00 0 0 0
430 2 1.2305000000000001e+00 4.9730065436648339e+00 9.2853959492158076e+00 0 0 0
438 2 1.2305000000000001e+00 6.3938655561404980e+00 9.2853959492158076e+00 0 0 0
440 2 2.4610000000000003e+00 4.2625770374269996e+00 9.2853959492158076e+00 0 0 0
441 2 3.6914999999999996e+00 4.9730065436648339e+00 9.2853959492158076e+00 0 0 0
453 2 3.6914999999999996e+00 6.3938655561404980e+00 9.2853959492158076e+00 0 0 0
428 2 0.0000000000000000e+00 7.1042950623783341e+00 9.2853959492158076e+00 0 0 0
439 2 2.4610000000000003e+00 7.1042950623783341e+00 9.2853959492158076e+00 0 0 0
470 2 4.9220000000000006e+00 8.5251540748539991e+00 9.2853959492158076e+00 0 0 0
455 2 4.9220000000000006e+00 4.2625770374269978e+00 9.2853959492158076e+00 0 0 0
456 2 6.1524999999999999e+00 4.9730065436648339e+00 9.2853959492158076e+00 0 0 0
472 2 6.1524999999999999e+00 6.3938655561404980e+00 9.2853959492158076e+00 0 0 0
474 2 7.3829999999999991e+00 4.2625770374269996e+00 9.2853959492158076e+00 0 0 0
475 2 8.6135000000000002e+00 4.9730065436648339e+00 9.2853959492158076e+00 0 0 0
495 2 8.6135000000000002e+00 6.3938655561404980e+00 9.2853959492158076e+00 0 0 0
454 2 4.9220000000000006e+00 7.1042950623783341e+00 9.2853959492158076e+00 0 0 0
473 2 7.3830000000000009e+00 7.1042950623783341e+00 9.2853959492158076e+00 0 0 0
493 2 7.3830000000000009e+00 8.5251540748539991e+00 9.2853959492158076e+00 0 0 0
436 2 0.0000000000000000e+00 8.5251540748539991e+00 9.2853959492158076e+00 0 0 0
437 2 1.2305000000000001e+00 9.2355835810918343e+00 9.2853959492158076e+00 0 0 0
451 2 2.4610000000000003e+00 8.5251540748539991e+00 9.2853959492158076e+00 0 0 0
452 2 3.6915000000000004e+00 9.2355835810918343e+00 9.2853959492158076e+00 0 0 0
435 2 0.0000000000000000e+00 1.1366872099805333e+01 9.2853959492158076e+00 0 0 0
449 2 1.2305000000000001e+00 1.0656442593567498e+01 9.2853959492158076e+00 0 0 0
450 2 2.4610000000000003e+00 1.1366872099805333e+01 9.2853959492158076e+00 0 0 0
468 2 3.6914999999999996e+00 1.0656442593567499e+01 9.2853959492158076e+00 0 0 0
469 2 4.9220000000000006e+00 1.1366872099805333e+01 9.2853959492158076e+00 0 0 0
491 2 6.1524999999999999e+00 1.0656442593567499e+01 9.2853959492158076e+00 0 0 0
471 2 6.1524999999999999e+00 9.2355835810918343e+00 9.2853959492158076e+00 0 0 0
494 2 8.6134999999999984e+00 9.2355835810918343e+00 9.2853959492158076e+00 0 0 0
3117 1 2.0718895083826681e+00 2.4205818727864887e+00 1.1503578179680799e+01 1 1 0
1484 1 1.6726703562685834e+00 9.9832218797888039e+00 1.1426486084108612e+01 0 1 -1
3672 1 8.6897688434330238e+00 3.5079180951725366e+00 1.1856004037497007e+01 1 1 0
2295 1 6.2573809903524973e+00 4.8104624231559114e+00 1.1777185493097694e+01 0 1 0
1347 1 4.8526154318600492e+00 2.3336339731637654e+00 1.1655731827226326e+01 0 1 0
3129 1 3.2026770861838481e+00 1.9889163319813301e+00 2.0570537279987136e+01 1 0 -1
1511 1 5.8825220921265826e+00 5.6128731153960514e+00 2.0106410315418298e+01 0 1 -1
4446 1 5.2552878383745929e+00 2.4871142673844338e+00 1.4459230112339437e+01 0 1 1
1437 1 7.8306278738874369e+00 1.7300170162908890e+00 1.4441256166984129e+01 1 1 0
3582 1 7.8116038909667420e+00 1.1955801378847353e+01 2.1916513195314391e+01 0 0 0
791 1 2.8436256003902747e+00 7.7390365989404195e+00 1.2723263022947718e+01 2 -1 0
1504 1 1.5803892171171221e+00 5.2228559305622806e+00 1.4849377642033181e+01 -1 1 0
4515 1 9.4616335115587180e+00 5.8521690121339454e+00 1.4818678385867983e+01 1 0 1
1488 1 6.5968331526399249e+00 5.6184367540248479e+00 1.4360874965091428e+01 0 0 0
57 1 3.3087563271840246e+00 1.1677369846113336e+01 1.9052148790057231e+01 -1 0 0
47 1 7.0399949348199131e+00 9.6585806916637722e+00 2.0702021021619935e+01 0 1 0
4448 1 1.0068852552878620e+00 9.9020799594265565e+00 1.7960750417587800e+01 1 0 0
793 1 2.4478961048733474e+00 9.0355436780409679e+00 1.5113895054016902e+01 0 0 0
3845 1 5.5566331350047848e+00 7.9030038670850802e+00 1.2393854770073379e+01 1 1 0
3766 1 6.7366448324465207e+00 8.3761301976962450e+00 1.5213091872818294e+01 0 0 0
1367 1 1.3471800911115774e+00 5.1836862548328115e+00 1.1909994905746153e+01 1 0 1
4473 1 1.6856452312587489e+00 6.9773813632541977e+00 1.8749968488363937e+01 0 -1 0
4482 1 2.7789205548301754e+00 2.4788941698982874e+00 1.7784812671813206e+01 1 1 0
4397 1 1.2471077517540581e+00 4.2698381403302168e+00 2.1812271809621013e+01 0 0 0
3631 1 3.9493575914533139e+00 4.2711310032977208e+00 1.6202387016012139e+01 2 0 0
4331 1 4.4080726429837558e+00 6.5979831496269634e+00 1.7808196619733668e+01 1 0 0
2933 1 7.6246507605089331e+00 1.1383544563675647e+01 1.5898907021087822e+01 1 0 -1
2133 1 9.1892971011764395e+00 8.2211495777908024e+00 1.6596486512623663e+01 0 0 -1
2149 1 8.0154910181299570e+00 6.1709676186013915e+00 1.8449010478444695e+01 -1 0 0
2375 1 9.4103729641832317e+00 3.8347030030919066e-01 1.1943905232479796e+01 1 1 0
2943 1 6.0177088598077670e+00 1.0853072622211394e+01 1.8275130576632318e+01 0 1 -1
32 1 2.4155434075037401e+00 1.1938141104864966e+01 1.4493139630294268e+01 0 1 0
3007 1 4.7417645098524170e+00 8.9620015643872595e+00 1.6682875881760602e+01 1 1 0
718 1 1.8657210060342637e+00 4.8128493575627185e-01 1.6042076736462668e+01 -1 0 -1
1570 1 6.5792467227979257e-01 4.3967459471032644e+00 1.8058243987157248e+01 0 0 0
1620 1 9.1665056898230279e+00 3.6713378351667605e+00 1.8104954694277918e+01 0 1 0
808 1 1.7760994132978327e+00 7.1631104732653865e+00 2.1608585439945756e+01 0 1 0
4424 1 9.0356962169497663e+00 7.8728790510910347e+00 2.0274142424884406e+01 0 0 0
3816 1 5.6706878761031954e+00 2.7681831067844755e+00 1.9985267923700992e+01 1 0 0
674 1 8.0122381219358889e+00 1.4688748162310923e+00 1.8868752373745394e+01 0 0 0
3587 1 7.6377184553552242e+00 1.0449723307176935e+01 1.3164331832984182e+01 -1 1 0
1353 1 9.8329407207044124e+00 3.3929778773480717e+00 1.5531357547117473e+01 0 1 1
3731 1 2.6502272509257350e+00 1.2223572787186567e+01 2.1717928930529720e+01 0 0 -1
1339 1 1.7653512808284479e+00 1.5515758601962364e+00 2.5440867351394644e+01 0 1 0
3795 1 3.7624623551152818e+00 2.0728564399155691e+00 2.3479039311406080e+01 1 0 -1
2244 1 6.9173755737188358e+00 2.7732517348097097e+00 2.3586646593170958e+01 1 0 0
705 1 1.0463916155528075e+00 9.6319998211589208e+00 2.5203320832241790e+01 1 -1 0
3699 1 1.5305016113977041e+00 4.4740149644341685e+00 2.4664059257870221e+01 1 1 0
2887 1 2.6251802068402750e+00 1.1651631928222157e+01 3.1320544549908746e+01 1 -1 -1
2935 1 5.5707765671137455e-01 1.0143008269932567e+01 2.8497093050260798e+01 -1 0 0
2136 1 4.5820546735200711e+00 4.7115773034102055e+00 2.4335378255523558e+01 0 0 0
1527 1 7.3706780809994177e+00 1.1378213637377009e+01 2.4617054530787776e+01 0 0 -1
606 1 3.1196565296996162e+00 1.0327630890096478e+01 2.3483572849294546e+01 0 0 0
3000 1 6.5935960203828508e+00 8.4444213896182863e+00 3.1558349700522911e+01 0 0 0
856 1 9.3545501597643206e+00 7.4865342247362605e+00 2.2876990806320485e+01 0 1 0
4406 1 7.3401963699032553e+00 8.5842221186823693e+00 2.4659742847287749e+01 -1 0 0
775 1 5.2705919187321797e+00 8.9009697995949644e+00 2.2774091155631602e+01 0 0 0
3126 1 1.1800661402796535e+00 3.4170884432641402e+00 2.7955928442235972e+01 1 0 0
2321 1 3.1801078904068567e+00 5.5039394825853467e+00 2.8706283943688362e+01 1 0 0
4504 1 6.6981681889954876e+00 3.6656449361926513e+00 2.6471556073001057e+01 0 1 0
1424 1 4.6304201532490445e+00 1.2093428993545242e+01 2.4884429783465546e+01 1 0 0
1481 1 2.3392482938598738e+00 7.2253942557962398e+00 2.5681318473750004e+01 0 0 0
2199 1 2.9891189422914484e+00 5.2211878517421195e-01 3.1252689836528674e+01 0 0 -1
2111 1 3.2484242442492230e+00 8.6771398368881290e+00 2.8113016893211590e+01 0 0 0
3805 1 7.4218853475625899e+00 1.7522680900259948e+00 2.8604546216309537e+01 0 1 1
2875 1 6.0346049263503891e+00 5.5050095593639101e+00 2.8272814390437421e+01 1 0 -1
2198 1 5.1503282991762989e+00 7.0877959557709174e+00 2.6036237897252860e+01 0 0 0
2399 1 8.4205004601350630e+00 7.2890361537320558e+00 2.7125611709811245e+01 1 1 -1
795 1 3.3496497630207860e+00 1.1259972323750242e+01 2.7228312449298947e+01 -1 -1 0
1638 1 2.7588233957787924e+00 8.9176831492047748e-01 2.7983005460078036e+01 0 2 1
4484 1 5.7031669974218078e+00 1.1428099087566205e+01 2.8627812520829121e+01 0 1 0
4499 1 8.5654301837387337e+00 1.2087886534761315e+01 2.8615855762304200e+01 1 1 -1
2911 1 1.7405402011402005e+00 3.0920984783573773e+00 3.0759178272026535e+01 0 -1 0
848 1 3.3823001233986094e+00 5.4630857678110916e+00 3.1498052951577485e+01 0 1 0
2317 1 7.4473173325912647e+00 2.7966136327179876e+00 3.1484464629289644e+01 1 0 0
625 1 6.2337562333613015e+00 5.2376351294770318e+00 3.1024750723664130e+01 0 0 -1
2958 1 3.5129503859167888e+00 8.4167043017990295e+00 3.0784722636434189e+01 0 -1 0
1602 1 5.2313729408143503e+00 1.0958484231013321e+01 3.1354633298691112e+01 1 0 0
741 1 8.6383811605977119e+00 6.5631348660438427e+00 3.0157643933073331e+01 0 1 0
734 1 9.3732440539152861e+00 4.5309552145017333e+00 2.6026149408225887e+01 1 1 0
2308 1 9.9031796324489518e-01 7.1331890753753378e+00 3.0752967070495227e+01 0 1 0
2388 1 9.4798085997461783e+00 9.2857774533864621e+00 3.1198146578073857e+01 0 0 0
677 1 3.4645647252787859e-01 7.0679888489202813e+00 2.7830120508005038e+01 1 0 -1
1507 1 9.3266573639567465e+00 4.6559413247148180e+00 2.3251030605441528e+01 -1 -1 0
2981 1 4.5856724093548840e+00 6.4568514545188984e+00 2.2188867760348529e+01 1 0 0
3710 1 8.8013940194113758e+00 5.6501472958893140e-01 2.3527050786801755e+01 0 1 0
2864 1 8.8942303267788603e+00 1.2153309203102442e+01 3.1568711356792509e+01 0 1 0
94 1 5.6981820058810371e+00 2.8865838758386292e-01 3.1488105629636674e+01 0 1 0
3755 1 5.3361982682676397e+00 2.0360753349914718e-01 2.7043706607954125e+01 0 1 0
137 2 0.0000000000000000e+00 1.2787731112280996e+01 3.2809318871704134e+00 0 0 0
139 2 1.2305000000000001e+00 1.3498160618518829e+01 3.2809318871704134e+00 0 0 0
174 2 2.4610000000000003e+00 1.2787731112280996e+01 3.2809318871704134e+00 0 0 0
176 2 3.6915000000000004e+00 1.3498160618518829e+01 3.2809318871704134e+00 0 0 0
135 2 0.0000000000000000e+00 1.5629449137232333e+01 3.2809318871704134e+00 0 0 0
170 2 1.2305000000000001e+00 1.4919019630994494e+01 3.2809318871704134e+00 0 0 0
172 2 2.4610000000000003e+00 1.5629449137232328e+01 3.2809318871704134e+00 0 0 0
215 2 3.6915000000000004e+00 1.4919019630994494e+01 3.2809318871704134e+00 0 0 0
219 2 4.9220000000000006e+00 1.2787731112280996e+01 3.2809318871704134e+00 0 0 0
221 2 6.1524999999999990e+00 1.3498160618518829e+01 3.2809318871704134e+00 0 0 0
266 2 7.3829999999999991e+00 1.2787731112280996e+01 3.2809318871704134e+00 0 0 0
268 2 8.6135000000000002e+00 1.3498160618518835e+01 3.2809318871704134e+00 0 0 0
217 2 4.9220000000000006e+00 1.5629449137232333e+01 3.2809318871704134e+00 0 0 0
262 2 6.1524999999999990e+00 1.4919019630994494e+01 3.2809318871704134e+00 0 0 0
264 2 7.3829999999999991e+00 1.5629449137232333e+01 3.2809318871704134e+00 0 0 0
309 2 8.6135000000000002e+00 1.4919019630994494e+01 3.2809318871704134e+00 0 0 0
166 2 0.0000000000000000e+00 1.7050308149707998e+01 3.2809318871704134e+00 0 0 0
211 2 2.4610000000000003e+00 1.7050308149707998e+01 3.2809318871704134e+00 0 0 0
164 2 0.0000000000000000e+00 1.9892026174659328e+01 3.2809318871704134e+00 0 0 0
168 2 1.2305000000000001e+00 1.7760737655945832e+01 3.2809318871704134e+00 0 0 0
207 2 1.2305000000000001e+00 1.9181596668421495e+01 3.2809318871704134e+00 0 0 0
209 2 2.4610000000000003e+00 1.9892026174659328e+01 3.2809318871704134e+00 0 0 0
213 2 3.6914999999999996e+00 1.7760737655945832e+01 3.2809318871704134e+00 0 0 0
254 2 3.6914999999999996e+00 1.9181596668421495e+01 3.2809318871704134e+00 0 0 0
258 2 4.9220000000000006e+00 1.7050308149707998e+01 3.2809318871704134e+00 0 0 0
305 2 7.3830000000000009e+00 1.7050308149707998e+01 3.2809318871704134e+00 0 0 0
256 2 4.9220000000000006e+00 1.9892026174659328e+01 3.2809318871704134e+00 0 0 0
260 2 6.1524999999999999e+00 1.7760737655945832e+01 3.2809318871704134e+00 0 0 0
301 2 6.1524999999999999e+00 1.9181596668421495e+01 3.2809318871704134e+00 0 0 0
303 2 7.3829999999999991e+00 1.9892026174659328e+01 3.2809318871704134e+00 0 0 0
307 2 8.6134999999999984e+00 1.7760737655945832e+01 3.2809318871704134e+00 0 0 0
343 2 8.6135000000000002e+00 1.9181596668421495e+01 3.2809318871704134e+00 0 0 0
201 2 0.0000000000000000e+00 2.4154603212086325e+01 3.2809318871704134e+00 0 0 0
203 2 0.0000000000000000e+00 2.1312885187134999e+01 3.2809318871704134e+00 0 0 0
205 2 1.2304999999999993e+00 2.2023314693372832e+01 3.2809318871704134e+00 0 0 0
246 2 1.2304999999999993e+00 2.3444173705848499e+01 3.2809318871704134e+00 0 0 0
248 2 2.4610000000000003e+00 2.4154603212086325e+01 3.2809318871704134e+00 0 0 0
250 2 2.4610000000000003e+00 2.1312885187134995e+01 3.2809318871704134e+00 0 0 0
252 2 3.6914999999999996e+00 2.2023314693372832e+01 3.2809318871704134e+00 0 0 0
293 2 3.6915000000000004e+00 2.3444173705848499e+01 3.2809318871704134e+00 0 0 0
295 2 4.9220000000000006e+00 2.4154603212086325e+01 3.2809318871704134e+00 0 0 0
297 2 4.9220000000000006e+00 2.1312885187134995e+01 3.2809318871704134e+00 0 0 0
299 2 6.1524999999999990e+00 2.2023314693372832e+01 3.2809318871704134e+00 0 0 0
335 2 6.1524999999999999e+00 2.3444173705848499e+01 3.2809318871704134e+00 0 0 0
337 2 7.3830000000000009e+00 2.4154603212086336e+01 3.2809318871704134e+00 0 0 0
339 2 7.3829999999999991e+00 2.1312885187134999e+01 3.2809318871704134e+00 0 0 0
341 2 8.6135000000000002e+00 2.2023314693372832e+01 3.2809318871704134e+00 0 0 0
369 2 8.6134999999999984e+00 2.3444173705848499e+01 3.2809318871704134e+00 0 0 0
138 2 0.0000000000000000e+00 1.2787731112280996e+01 6.2831639181932788e+00 0 0 0
175 2 2.4610000000000003e+00 1.2787731112280996e+01 6.2831639181932788e+00 0 0 0
136 2 0.0000000000000000e+00 1.4208590124756663e+01 6.2831639181932788e+00 0 0 0
171 2 1.2305000000000001e+00 1.4919019630994494e+01 6.2831639181932788e+00 0 0 0
173 2 2.4610000000000003e+00 1.4208590124756663e+01 6.2831639181932788e+00 0 0 0
216 2 3.6915000000000004e+00 1.4919019630994494e+01 6.2831639181932788e+00 0 0 0
220 2 4.9220000000000006e+00 1.2787731112280996e+01 6.2831639181932788e+00 0 0 0
267 2 7.3829999999999991e+00 1.2787731112280996e+01 6.2831639181932788e+00 0 0 0
218 2 4.9220000000000006e+00 1.4208590124756663e+01 6.2831639181932788e+00 0 0 0
263 2 6.1524999999999990e+00 1.4919019630994494e+01 6.2831639181932788e+00 0 0 0
265 2 7.3830000000000009e+00 1.4208590124756663e+01 6.2831639181932788e+00 0 0 0
310 2 8.6135000000000002e+00 1.4919019630994494e+01 6.2831639181932788e+00 0 0 0
167 2 0.0000000000000000e+00 1.7050308149707998e+01 6.2831639181932788e+00 0 0 0
169 2 1.2305000000000001e+00 1.6339878643470165e+01 6.2831639181932788e+00 0 0 0
212 2 2.4610000000000003e+00 1.7050308149707998e+01 6.2831639181932788e+00 0 0 0
214 2 3.6915000000000004e+00 1.6339878643470165e+01 6.2831639181932788e+00 0 0 0
165 2 0.0000000000000000e+00 1.8471167162183658e+01 6.2831639181932788e+00 0 0 0
208 2 1.2305000000000001e+00 1.9181596668421495e+01 6.2831639181932788e+00 0 0 0
210 2 2.4610000000000003e+00 1.8471167162183658e+01 6.2831639181932788e+00 0 0 0
255 2 3.6914999999999996e+00 1.9181596668421495e+01 6.2831639181932788e+00 0 0 0
259 2 4.9220000000000006e+00 1.7050308149707998e+01 6.2831639181932788e+00 0 0 0
261 2 6.1524999999999999e+00 1.6339878643470165e+01 6.2831639181932788e+00 0 0 0
306 2 7.3830000000000009e+00 1.7050308149707998e+01 6.2831639181932788e+00 0 0 0
308 2 8.6134999999999984e+00 1.6339878643470165e+01 6.2831639181932788e+00 0 0 0
257 2 4.9220000000000006e+00 1.8471167162183658e+01 6.2831639181932788e+00 0 0 0
302 2 6.1524999999999999e+00 1.9181596668421495e+01 6.2831639181932788e+00 0 0 0
304 2 7.3829999999999991e+00 1.8471167162183658e+01 6.2831639181932788e+00 0 0 0
344 2 8.6135000000000002e+00 1.9181596668421495e+01 6.2831639181932788e+00 0 0 0
206 2 1.2305000000000001e+00 2.0602455680897162e+01 6.2831639181932788e+00 0 0 0
253 2 3.6915000000000004e+00 2.0602455680897162e+01 6.2831639181932788e+00 0 0 0
202 2 0.0000000000000000e+00 2.2733744199610655e+01 6.2831639181932788e+00 0 0 0
204 2 0.0000000000000000e+00 2.1312885187134999e+01 6.2831639181932788e+00 0 0 0
247 2 1.2304999999999993e+00 2.3444173705848499e+01 6.2831639181932788e+00 0 0 0
249 2 2.4610000000000003e+00 2.2733744199610655e+01 6.2831639181932788e+00 0 0 0
251 2 2.4610000000000003e+00 2.1312885187134995e+01 6.2831639181932788e+00 0 0 0
294 2 3.6915000000000004e+00 2.3444173705848499e+01 6.2831639181932788e+00 0 0 0
300 2 6.1524999999999999e+00 2.0602455680897162e+01 6.2831639181932788e+00 0 0 0
342 2 8.6134999999999984e+00 2.0602455680897162e+01 6.2831639181932788e+00 0 0 0
296 2 4.9220000000000006e+00 2.2733744199610655e+01 6.2831639181932788e+00 0 0 0
298 2 4.9220000000000006e+00 2.1312885187134995e+01 6.2831639181932788e+00 0 0 0
336 2 6.1524999999999999e+00 2.3444173705848499e+01 6.2831639181932788e+00 0 0 0
338 2 7.3829999999999991e+00 2.2733744199610655e+01 6.2831639181932788e+00 0 0 0
340 2 7.3829999999999991e+00 2.1312885187134999e+01 6.2831639181932788e+00 0 0 0
370 2 8.6134999999999984e+00 2.3444173705848499e+01 6.2831639181932788e+00 0 0 0
447 2 0.0000000000000000e+00 1.2787731112280996e+01 9.2853959492158076e+00 0 0 0
448 2 1.2305000000000001e+00 1.3498160618518829e+01 9.2853959492158076e+00 0 0 0
466 2 2.4610000000000003e+00 1.2787731112280996e+01 9.2853959492158076e+00 0 0 0
467 2 3.6915000000000004e+00 1.3498160618518829e+01 9.2853959492158076e+00 0 0 0
446 2 0.0000000000000000e+00 1.5629449137232333e+01 9.2853959492158076e+00 0 0 0
464 2 1.2305000000000001e+00 1.4919019630994494e+01 9.2853959492158076e+00 0 0 0
465 2 2.4610000000000003e+00 1.5629449137232328e+01 9.2853959492158076e+00 0 0 0
487 2 3.6915000000000004e+00 1.4919019630994494e+01 9.2853959492158076e+00 0 0 0
548 2 6.1524999999999999e+00 2.3444173705848499e+01 9.2853959492158076e+00 0 0 0
565 2 8.6134999999999984e+00 2.3444173705848499e+01 9.2853959492158076e+00 0 0 0
489 2 4.9220000000000006e+00 1.2787731112280996e+01 9.2853959492158076e+00 0 0 0
490 2 6.1524999999999990e+00 1.3498160618518829e+01 9.2853959492158076e+00 0 0 0
513 2 7.3829999999999991e+00 1.2787731112280996e+01 9.2853959492158076e+00 0 0 0
514 2 8.6135000000000002e+00 1.3498160618518835e+01 9.2853959492158076e+00 0 0 0
488 2 4.9220000000000006e+00 1.5629449137232333e+01 9.2853959492158076e+00 0 0 0
511 2 6.1524999999999990e+00 1.4919019630994494e+01 9.2853959492158076e+00 0 0 0
512 2 7.3829999999999991e+00 1.5629449137232333e+01 9.2853959492158076e+00 0 0 0
535 2 8.6135000000000002e+00 1.4919019630994494e+01 9.2853959492158076e+00 0 0 0
529 2 4.9220000000000006e+00 2.1312885187134995e+01 9.2853959492158076e+00 0 0 0
462 2 0.0000000000000000e+00 1.7050308149707998e+01 9.2853959492158076e+00 0 0 0
485 2 2.4610000000000003e+00 1.7050308149707998e+01 9.2853959492158076e+00 0 0 0
461 2 0.0000000000000000e+00 1.9892026174659328e+01 9.2853959492158076e+00 0 0 0
463 2 1.2305000000000001e+00 1.7760737655945832e+01 9.2853959492158076e+00 0 0 0
483 2 1.2305000000000001e+00 1.9181596668421495e+01 9.2853959492158076e+00 0 0 0
484 2 2.4610000000000003e+00 1.9892026174659328e+01 9.2853959492158076e+00 0 0 0
486 2 3.6914999999999996e+00 1.7760737655945832e+01 9.2853959492158076e+00 0 0 0
507 2 3.6914999999999996e+00 1.9181596668421495e+01 9.2853959492158076e+00 0 0 0
509 2 4.9220000000000006e+00 1.7050308149707998e+01 9.2853959492158076e+00 0 0 0
533 2 7.3830000000000009e+00 1.7050308149707998e+01 9.2853959492158076e+00 0 0 0
508 2 4.9220000000000006e+00 1.9892026174659328e+01 9.2853959492158076e+00 0 0 0
510 2 6.1524999999999999e+00 1.7760737655945832e+01 9.2853959492158076e+00 0 0 0
531 2 6.1524999999999999e+00 1.9181596668421495e+01 9.2853959492158076e+00 0 0 0
532 2 7.3829999999999991e+00 1.9892026174659328e+01 9.2853959492158076e+00 0 0 0
534 2 8.6134999999999984e+00 1.7760737655945832e+01 9.2853959492158076e+00 0 0 0
552 2 8.6135000000000002e+00 1.9181596668421495e+01 9.2853959492158076e+00 0 0 0
480 2 0.0000000000000000e+00 2.4154603212086325e+01 9.2853959492158076e+00 0 0 0
481 2 0.0000000000000000e+00 2.1312885187134999e+01 9.2853959492158076e+00 0 0 0
482 2 1.2304999999999993e+00 2.2023314693372832e+01 9.2853959492158076e+00 0 0 0
503 2 1.2304999999999993e+00 2.3444173705848499e+01 9.2853959492158076e+00 0 0 0
504 2 2.4610000000000003e+00 2.4154603212086325e+01 9.2853959492158076e+00 0 0 0