LAMMPS data file via write_data, version 16 Mar 2018, timestep = 8000000

4065 atoms
2 atom types

0.0000000000000000e+00 4.9219999999999999e+01 xlo xhi
0.0000000000000000e+00 4.9019635930410494e+01 ylo yhi
1.0722591720968708e+00 2.6768573074195874e+01 zlo zhi

Masses

1 18.015
2 12.01

Atoms # atomic

83 2 0.0000000000000000e+00 2.8417180249513345e+00 2.6200835342648379e+00 0 0 0
85 2 0.0000000000000000e+00 0.0000000000000000e+00 2.6200835342648379e+00 0 0 0
87 2 1.2305000000000001e+00 7.1042950623783474e-01 2.6200835342648379e+00 0 0 0
94 2 1.2305000000000001e+00 2.1312885187134998e+00 2.6200835342648379e+00 0 0 0
90 2 0.0000000000000000e+00 4.2625770374269996e+00 2.6200835342648379e+00 0 0 0
92 2 1.2305000000000001e+00 4.9730065436648339e+00 2.6200835342648379e+00 0 0 0
107 2 1.2305000000000001e+00 6.3938655561404980e+00 2.6200835342648379e+00 0 0 0
88 2 0.0000000000000000e+00 7.1042950623783341e+00 2.6200835342648379e+00 0 0 0
103 2 0.0000000000000000e+00 8.5251540748539991e+00 2.6200835342648379e+00 0 0 0
105 2 1.2305000000000001e+00 9.2355835810918343e+00 2.6200835342648379e+00 0 0 0
101 2 0.0000000000000000e+00 1.1366872099805333e+01 2.6200835342648379e+00 0 0 0
124 2 0.0000000000000000e+00 1.2787731112280996e+01 2.6200835342648379e+00 0 0 0
126 2 1.2305000000000001e+00 1.3498160618518829e+01 2.6200835342648379e+00 0 0 0
128 2 1.2305000000000001e+00 1.0656442593567498e+01 2.6200835342648379e+00 0 0 0
122 2 0.0000000000000000e+00 1.5629449137232333e+01 2.6200835342648379e+00 0 0 0
153 2 0.0000000000000000e+00 1.7050308149707998e+01 2.6200835342648379e+00 0 0 0
157 2 1.2305000000000001e+00 1.4919019630994494e+01 2.6200835342648379e+00 0 0 0
151 2 0.0000000000000000e+00 1.9892026174659328e+01 2.6200835342648379e+00 0 0 0
155 2 1.2305000000000001e+00 1.7760737655945832e+01 2.6200835342648379e+00 0 0 0
194 2 1.2305000000000001e+00 1.9181596668421495e+01 2.6200835342648379e+00 0 0 0
188 2 0.0000000000000000e+00 2.4154603212086325e+01 2.6200835342648379e+00 0 0 0
190 2 0.0000000000000000e+00 2.1312885187134999e+01 2.6200835342648379e+00 0 0 0
192 2 1.2304999999999993e+00 2.2023314693372832e+01 2.6200835342648379e+00 0 0 0
233 2 1.2304999999999993e+00 2.3444173705848499e+01 2.6200835342648379e+00 0 0 0
84 2 0.0000000000000000e+00 1.4208590124756650e+00 5.7157322585987673e+00 0 0 0
86 2 0.0000000000000000e+00 0.0000000000000000e+00 5.7157322585987673e+00 0 0 0
95 2 1.2305000000000001e+00 2.1312885187134998e+00 5.7157322585987673e+00 0 0 0
89 2 0.0000000000000000e+00 5.6834360499026637e+00 5.7157322585987673e+00 0 0 0
91 2 0.0000000000000000e+00 4.2625770374269996e+00 5.7157322585987673e+00 0 0 0
93 2 1.2305000000000001e+00 3.5521475311891644e+00 5.7157322585987673e+00 0 0 0
108 2 1.2305000000000001e+00 6.3938655561404980e+00 5.7157322585987673e+00 0 0 0
102 2 0.0000000000000000e+00 9.9460130873296642e+00 5.7157322585987673e+00 0 0 0
104 2 0.0000000000000000e+00 8.5251540748539991e+00 5.7157322585987673e+00 0 0 0
106 2 1.2305000000000001e+00 7.8147245686161639e+00 5.7157322585987673e+00 0 0 0
125 2 0.0000000000000000e+00 1.2787731112280996e+01 5.7157322585987673e+00 0 0 0
127 2 1.2305000000000001e+00 1.2077301606043163e+01 5.7157322585987673e+00 0 0 0
129 2 1.2305000000000001e+00 1.0656442593567498e+01 5.7157322585987673e+00 0 0 0
123 2 0.0000000000000000e+00 1.4208590124756663e+01 5.7157322585987673e+00 0 0 0
154 2 0.0000000000000000e+00 1.7050308149707998e+01 5.7157322585987673e+00 0 0 0
156 2 1.2305000000000001e+00 1.6339878643470165e+01 5.7157322585987673e+00 0 0 0
158 2 1.2305000000000001e+00 1.4919019630994494e+01 5.7157322585987673e+00 0 0 0
152 2 0.0000000000000000e+00 1.8471167162183658e+01 5.7157322585987673e+00 0 0 0
193 2 1.2305000000000001e+00 2.0602455680897162e+01 5.7157322585987673e+00 0 0 0
195 2 1.2305000000000001e+00 1.9181596668421495e+01 5.7157322585987673e+00 0 0 0
189 2 0.0000000000000000e+00 2.2733744199610655e+01 5.7157322585987673e+00 0 0 0
191 2 0.0000000000000000e+00 2.1312885187134999e+01 5.7157322585987673e+00 0 0 0
234 2 1.2304999999999993e+00 2.3444173705848499e+01 5.7157322585987673e+00 0 0 0
412 2 0.0000000000000000e+00 2.8417180249513345e+00 8.8113809829238257e+00 0 0 0
413 2 0.0000000000000000e+00 0.0000000000000000e+00 8.8113809829238257e+00 0 0 0
414 2 1.2305000000000001e+00 7.1042950623783474e-01 8.8113809829238257e+00 0 0 0
418 2 1.2305000000000001e+00 2.1312885187134998e+00 8.8113809829238257e+00 0 0 0
3021 1 5.9693364732443188e-01 1.0654864475025019e+00 1.1600808294076495e+01 0 0 0
416 2 0.0000000000000000e+00 4.2625770374269996e+00 8.8113809829238257e+00 0 0 0
417 2 1.2305000000000001e+00 4.9730065436648339e+00 8.8113809829238257e+00 0 0 0
425 2 1.2305000000000001e+00 6.3938655561404980e+00 8.8113809829238257e+00 0 0 0
1002 1 5.3633394221592456e-01 6.4479785063837864e+00 1.1391240427120524e+01 -2 -1 -1
415 2 0.0000000000000000e+00 7.1042950623783341e+00 8.8113809829238257e+00 0 0 0
423 2 0.0000000000000000e+00 8.5251540748539991e+00 8.8113809829238257e+00 0 0 0
424 2 1.2305000000000001e+00 9.2355835810918343e+00 8.8113809829238257e+00 0 0 0
3135 1 4.4265919843809420e-01 9.1692801331018146e+00 1.1682098032210577e+01 1 -2 1
422 2 0.0000000000000000e+00 1.1366872099805333e+01 8.8113809829238257e+00 0 0 0
434 2 0.0000000000000000e+00 1.2787731112280996e+01 8.8113809829238257e+00 0 0 0
435 2 1.2305000000000001e+00 1.3498160618518829e+01 8.8113809829238257e+00 0 0 0
436 2 1.2305000000000001e+00 1.0656442593567498e+01 8.8113809829238257e+00 0 0 0
433 2 0.0000000000000000e+00 1.5629449137232333e+01 8.8113809829238257e+00 0 0 0
449 2 0.0000000000000000e+00 1.7050308149707998e+01 8.8113809829238257e+00 0 0 0
451 2 1.2305000000000001e+00 1.4919019630994494e+01 8.8113809829238257e+00 0 0 0
1931 1 5.8808403034408296e-01 1.4854511808305054e+01 1.1496894378534869e+01 1 1 -1
448 2 0.0000000000000000e+00 1.9892026174659328e+01 8.8113809829238257e+00 0 0 0
450 2 1.2305000000000001e+00 1.7760737655945832e+01 8.8113809829238257e+00 0 0 0
470 2 1.2305000000000001e+00 1.9181596668421495e+01 8.8113809829238257e+00 0 0 0
468 2 0.0000000000000000e+00 2.1312885187134999e+01 8.8113809829238257e+00 0 0 0
467 2 0.0000000000000000e+00 2.4154603212086325e+01 8.8113809829238257e+00 0 0 0
469 2 1.2304999999999993e+00 2.2023314693372832e+01 8.8113809829238257e+00 0 0 0
490 2 1.2304999999999993e+00 2.3444173705848499e+01 8.8113809829238257e+00 0 0 0
908 1 7.2961895257489495e-01 2.3025223221481376e+01 1.1127531017226627e+01 1 1 0
1792 1 6.5806517713249746e-01 1.1303039434958351e+00 1.4259767452043651e+01 1 2 -1
869 1 6.0095178581176978e-01 6.8793023139203440e+00 1.4971791796524334e+01 0 -2 0
1011 1 6.5133912754061318e-01 9.6278915427440719e+00 1.4274263774790404e+01 0 1 0
2016 1 3.7786081628471091e-01 1.5031970335342294e+01 1.4914738640795253e+01 -2 -4 -1
1063 1 6.4062646412189439e-01 1.7787763050443637e+01 1.1807361349795279e+01 -1 2 0
4045 1 1.1825688992813705e+00 1.7741596161681848e+01 2.4992200461577109e+01 -2 0 0
952 1 6.5001285802575404e-01 2.2852589867827394e+01 1.5584202673865203e+01 4 -1 -1
3070 1 4.1422994729672469e-01 6.8855020556257784e+00 1.7715898577963909e+01 1 -2 0
781 1 5.2600209856848557e-01 4.2635179507166869e+00 1.8878478547275751e+01 -4 0 0
1786 1 4.1445472112412518e-01 1.2307407306759165e+01 1.8828628395892519e+01 1 -1 0
1882 1 5.4655504855217052e-01 1.4877012793779505e+01 1.7681933124754277e+01 4 0 1
3011 1 6.1702387746317400e-01 2.0528291367073276e+01 1.8841744938941556e+01 -4 0 0
2978 1 6.7115419957548250e-01 2.3174264149963946e+01 1.8241061433483022e+01 1 2 0
931 1 6.6366787381419956e-01 1.1409176819017337e+00 2.2688287625108771e+01 1 -1 -1
22 1 3.0836361969364157e-01 3.7788404394674049e+00 2.1591069790271220e+01 1 2 -1
1804 1 8.0490208229485638e-01 9.5010117316451943e+00 2.2403481363107147e+01 -2 -1 0
3898 1 7.1305924150096800e-01 1.2194750372625627e+01 2.1642572356481217e+01 0 -2 0
1967 1 8.1895709770641756e-01 1.7787359638098994e+01 2.2126259373503462e+01 -1 -3 1
3878 1 7.6895316611876630e-01 2.0497177397295602e+01 2.1502887060641502e+01 1 -1 0
1863 1 8.0544276284640881e-01 1.2229631407875570e+00 2.5292632617040322e+01 4 0 -1
2897 1 8.4882542415021478e-01 2.0365659351715284e+01 2.5966555714940050e+01 -1 -3 -1
61 1 5.9051073253229969e-01 9.7413040294164528e+00 2.5079057631081941e+01 0 0 -1
2954 1 6.7640424772811414e-01 1.2528407877788885e+01 2.5918003752856293e+01 -2 1 0
2013 1 3.8946229423776757e-01 1.7799469411104109e+01 1.4575494684140937e+01 0 -1 -1
2952 1 3.4810518704099130e-01 3.9356659196168744e+00 2.5900108763876474e+01 0 -2 1
1130 2 0.0000000000000000e+00 2.5575462224561992e+01 2.6200835342648379e+00 0 0 0
1132 2 1.2305000000000001e+00 2.6285891730799833e+01 2.6200835342648379e+00 0 0 0
1140 2 1.2305000000000010e+00 2.7706750743275496e+01 2.6200835342648379e+00 0 0 0
1128 2 0.0000000000000000e+00 2.8417180249513333e+01 2.6200835342648379e+00 0 0 0
1136 2 0.0000000000000000e+00 2.9838039261988989e+01 2.6200835342648379e+00 0 0 0
1138 2 1.2304999999999993e+00 3.0548468768226829e+01 2.6200835342648379e+00 0 0 0
1134 2 0.0000000000000000e+00 3.2679757286940330e+01 2.6200835342648379e+00 0 0 0
1150 2 0.0000000000000000e+00 3.4100616299415996e+01 2.6200835342648379e+00 0 0 0
1152 2 1.2305000000000010e+00 3.4811045805653833e+01 2.6200835342648379e+00 0 0 0
1154 2 1.2304999999999993e+00 3.1969327780702493e+01 2.6200835342648379e+00 0 0 0
1148 2 0.0000000000000000e+00 3.6942334324367337e+01 2.6200835342648379e+00 0 0 0
1172 2 0.0000000000000000e+00 3.8363193336842990e+01 2.6200835342648379e+00 0 0 0
1176 2 1.2304999999999993e+00 3.6231904818129486e+01 2.6200835342648379e+00 0 0 0
1170 2 0.0000000000000000e+00 4.1204911361794323e+01 2.6200835342648379e+00 0 0 0
1174 2 1.2305000000000010e+00 3.9073622843080841e+01 2.6200835342648379e+00 0 0 0
1206 2 1.2305000000000010e+00 4.0494481855556494e+01 2.6200835342648379e+00 0 0 0
1200 2 0.0000000000000000e+00 4.5467488399221331e+01 2.6200835342648379e+00 0 0 0
1202 2 0.0000000000000000e+00 4.2625770374269997e+01 2.6200835342648379e+00 0 0 0
1204 2 1.2304999999999993e+00 4.3336199880507827e+01 2.6200835342648379e+00 0 0 0
1243 2 1.2304999999999993e+00 4.4757058892983494e+01 2.6200835342648379e+00 0 0 0
1239 2 0.0000000000000000e+00 4.6888347411696998e+01 2.6200835342648379e+00 0 0 0
1241 2 1.2305000000000010e+00 4.7598776917934813e+01 2.6200835342648379e+00 0 0 0
1129 2 0.0000000000000000e+00 2.6996321237037659e+01 5.7157322585987673e+00 0 0 0
1131 2 0.0000000000000000e+00 2.5575462224561992e+01 5.7157322585987673e+00 0 0 0
1133 2 1.2305000000000001e+00 2.4865032718324155e+01 5.7157322585987673e+00 0 0 0
1141 2 1.2305000000000010e+00 2.7706750743275496e+01 5.7157322585987673e+00 0 0 0
1135 2 0.0000000000000000e+00 3.1258898274464656e+01 5.7157322585987673e+00 0 0 0
1137 2 0.0000000000000000e+00 2.9838039261988989e+01 5.7157322585987673e+00 0 0 0
1139 2 1.2304999999999993e+00 2.9127609755751163e+01 5.7157322585987673e+00 0 0 0
1151 2 0.0000000000000000e+00 3.4100616299415996e+01 5.7157322585987673e+00 0 0 0
1153 2 1.2304999999999993e+00 3.3390186793178160e+01 5.7157322585987673e+00 0 0 0
1155 2 1.2304999999999993e+00 3.1969327780702493e+01 5.7157322585987673e+00 0 0 0
1149 2 0.0000000000000000e+00 3.5521475311891649e+01 5.7157322585987673e+00 0 0 0
1173 2 0.0000000000000000e+00 3.8363193336842990e+01 5.7157322585987673e+00 0 0 0
1175 2 1.2304999999999993e+00 3.7652763830605153e+01 5.7157322585987673e+00 0 0 0
1177 2 1.2304999999999993e+00 3.6231904818129486e+01 5.7157322585987673e+00 0 0 0
1171 2 0.0000000000000000e+00 3.9784052349318657e+01 5.7157322585987673e+00 0 0 0
1205 2 1.2305000000000010e+00 4.1915340868032160e+01 5.7157322585987673e+00 0 0 0
1207 2 1.2305000000000010e+00 4.0494481855556494e+01 5.7157322585987673e+00 0 0 0
1201 2 0.0000000000000000e+00 4.4046629386745657e+01 5.7157322585987673e+00 0 0 0
1203 2 0.0000000000000000e+00 4.2625770374269997e+01 5.7157322585987673e+00 0 0 0
1244 2 1.2304999999999993e+00 4.4757058892983494e+01 5.7157322585987673e+00 0 0 0
1238 2 0.0000000000000000e+00 4.8309206424172650e+01 5.7157322585987673e+00 0 0 0
1240 2 0.0000000000000000e+00 4.6888347411696998e+01 5.7157322585987673e+00 0 0 0
1242 2 1.2304999999999993e+00 4.6177917905459147e+01 5.7157322585987673e+00 0 0 0
1444 2 0.0000000000000000e+00 2.5575462224561992e+01 8.8113809829238257e+00 0 0 0
1445 2 1.2305000000000001e+00 2.6285891730799833e+01 8.8113809829238257e+00 0 0 0
1449 2 1.2305000000000010e+00 2.7706750743275496e+01 8.8113809829238257e+00 0 0 0
2838 1 6.0989566323107125e-01 2.5684947789338526e+01 1.1816614154587468e+01 2 -2 0
1443 2 0.0000000000000000e+00 2.8417180249513333e+01 8.8113809829238257e+00 0 0 0
1447 2 0.0000000000000000e+00 2.9838039261988989e+01 8.8113809829238257e+00 0 0 0
1448 2 1.2304999999999993e+00 3.0548468768226829e+01 8.8113809829238257e+00 0 0 0
948 1 5.9648560879908119e-01 3.0926090392634642e+01 1.1211339716630974e+01 3 0 0
1446 2 0.0000000000000000e+00 3.2679757286940330e+01 8.8113809829238257e+00 0 0 0
1454 2 0.0000000000000000e+00 3.4100616299415996e+01 8.8113809829238257e+00 0 0 0
1455 2 1.2305000000000010e+00 3.4811045805653833e+01 8.8113809829238257e+00 0 0 0
1456 2 1.2304999999999993e+00 3.1969327780702493e+01 8.8113809829238257e+00 0 0 0
2036 1 5.8931374821690530e-01 3.3585683306906283e+01 1.1881053606938842e+01 2 0 0
1453 2 0.0000000000000000e+00 3.6942334324367337e+01 8.8113809829238257e+00 0 0 0
1465 2 0.0000000000000000e+00 3.8363193336842990e+01 8.8113809829238257e+00 0 0 0
1467 2 1.2304999999999993e+00 3.6231904818129486e+01 8.8113809829238257e+00 0 0 0
1464 2 0.0000000000000000e+00 4.1204911361794323e+01 8.8113809829238257e+00 0 0 0
1466 2 1.2305000000000010e+00 3.9073622843080841e+01 8.8113809829238257e+00 0 0 0
1482 2 1.2305000000000010e+00 4.0494481855556494e+01 8.8113809829238257e+00 0 0 0
2000 1 5.4859710815945328e-01 4.2215976192928927e+01 2.5245494129052666e+01 -1 1 0
3077 1 6.8239417308393624e-01 4.4834426279228381e+01 2.6133844032642362e+01 -1 -2 0
1481 2 1.2304999999999993e+00 4.3336199880507827e+01 8.8113809829238257e+00 0 0 0
1480 2 0.0000000000000000e+00 4.2625770374269997e+01 8.8113809829238257e+00 0 0 0
1500 2 1.2304999999999993e+00 4.4757058892983494e+01 8.8113809829238257e+00 0 0 0
1479 2 0.0000000000000000e+00 4.5467488399221331e+01 8.8113809829238257e+00 0 0 0
1498 2 0.0000000000000000e+00 4.6888347411696998e+01 8.8113809829238257e+00 0 0 0
1499 2 1.2305000000000010e+00 4.7598776917934813e+01 8.8113809829238257e+00 0 0 0
2895 1 6.6365365017909883e-01 4.7317658810394931e+01 1.1164280391479609e+01 6 -1 -1
2941 1 5.4704710540054580e-01 2.5578845118580933e+01 1.4449082697897234e+01 4 0 0
2921 1 7.1902655412992944e-01 3.1143379514349075e+01 1.5430673983970630e+01 5 -3 -1
3099 1 5.3206490423011121e-01 3.3906765989589914e+01 1.4719536250996951e+01 -1 0 0
2084 1 4.2233998730747541e-01 3.9624378671772007e+01 1.5567245183260622e+01 -4 -1 0
3980 1 7.1518408865635075e-01 4.2398763168512716e+01 1.4768476073247811e+01 4 -1 -1
3019 1 5.8952356281950880e-01 4.7566170120468406e+01 1.5172346549228211e+01 1 -4 0
2852 1 7.2739957657748811e-01 2.8190456811415793e+01 1.9238216537922941e+01 1 -4 0
1081 1 5.2275346792298238e-01 3.0906299338333859e+01 1.8251244418158397e+01 -2 2 0
918 1 5.3038118992985495e-01 3.6794814093275264e+01 1.9052639487158956e+01 1 -2 0
9 1 4.0420934676201342e-01 3.9448489222368167e+01 1.8194390171939180e+01 -2 0 1
2991 1 5.9308396594798352e-01 4.5082346710904581e+01 1.8829731845153916e+01 -2 -2 1
2096 1 7.8627152674038348e-01 4.7933257053362397e+01 1.7953719499585659e+01 -2 -2 -1
1974 1 7.5470896624627704e-01 4.2036879136249603e+01 1.1991214651979455e+01 0 1 -1
1057 1 4.7437336736724683e-01 3.6273697213982743e+01 2.1945029581410566e+01 1 -1 -1
1853 1 5.3778283425153972e-01 3.3551632143009797e+01 2.2996804929469619e+01 4 1 -1
3121 1 6.0065778930738767e-01 3.9190511990519120e+01 1.1506825362839288e+01 0 0 0
3024 1 3.4389747756539463e-01 4.1980602006717788e+01 2.2681363875721754e+01 0 0 1
3825 1 2.6130243168907841e-01 4.4516437637669100e+01 2.1450672640623100e+01 1 -1 0
2101 1 1.9422382810587013e-01 2.8469288779654704e+01 2.1848481027552474e+01 1 0 0
837 1 5.5187171597838169e-01 3.6764504459313251e+01 2.6102283750255189e+01 1 -1 -1
1064 1 4.9910575498066551e-01 2.5691775576577829e+01 2.2699571475553064e+01 -1 -4 0
2901 1 3.7964992743229758e-01 2.5702177222092946e+01 2.5261073819150504e+01 0 2 -1
3990 1 2.6536742854592366e-01 2.8244234682065915e+01 2.6140204052139559e+01 2 0 -1
2872 1 6.2791009419608945e-01 3.3927684704658994e+01 2.5769059952636390e+01 -1 -1 0
96 2 2.4610000000000003e+00 2.8417180249513345e+00 2.6200835342648379e+00 0 0 0
98 2 2.4610000000000003e+00 0.0000000000000000e+00 2.6200835342648379e+00 0 0 0
111 2 2.4610000000000003e+00 4.2625770374269996e+00 2.6200835342648379e+00 0 0 0
109 2 2.4610000000000003e+00 7.1042950623783341e+00 2.6200835342648379e+00 0 0 0
132 2 2.4610000000000003e+00 8.5251540748539991e+00 2.6200835342648379e+00 0 0 0
130 2 2.4610000000000003e+00 1.1366872099805333e+01 2.6200835342648379e+00 0 0 0
161 2 2.4610000000000003e+00 1.2787731112280996e+01 2.6200835342648379e+00 0 0 0
159 2 2.4610000000000003e+00 1.5629449137232328e+01 2.6200835342648379e+00 0 0 0
198 2 2.4610000000000003e+00 1.7050308149707998e+01 2.6200835342648379e+00 0 0 0
196 2 2.4610000000000003e+00 1.9892026174659328e+01 2.6200835342648379e+00 0 0 0
235 2 2.4610000000000003e+00 2.4154603212086325e+01 2.6200835342648379e+00 0 0 0
237 2 2.4610000000000003e+00 2.1312885187134995e+01 2.6200835342648379e+00 0 0 0
97 2 2.4610000000000003e+00 1.4208590124756650e+00 5.7157322585987673e+00 0 0 0
99 2 2.4610000000000003e+00 0.0000000000000000e+00 5.7157322585987673e+00 0 0 0
110 2 2.4610000000000003e+00 5.6834360499026637e+00 5.7157322585987673e+00 0 0 0
112 2 2.4610000000000003e+00 4.2625770374269996e+00 5.7157322585987673e+00 0 0 0
131 2 2.4610000000000003e+00 9.9460130873296642e+00 5.7157322585987673e+00 0 0 0
133 2 2.4610000000000003e+00 8.5251540748539991e+00 5.7157322585987673e+00 0 0 0
162 2 2.4610000000000003e+00 1.2787731112280996e+01 5.7157322585987673e+00 0 0 0
160 2 2.4610000000000003e+00 1.4208590124756663e+01 5.7157322585987673e+00 0 0 0
199 2 2.4610000000000003e+00 1.7050308149707998e+01 5.7157322585987673e+00 0 0 0
197 2 2.4610000000000003e+00 1.8471167162183658e+01 5.7157322585987673e+00 0 0 0
236 2 2.4610000000000003e+00 2.2733744199610655e+01 5.7157322585987673e+00 0 0 0
238 2 2.4610000000000003e+00 2.1312885187134995e+01 5.7157322585987673e+00 0 0 0
419 2 2.4610000000000003e+00 2.8417180249513345e+00 8.8113809829238257e+00 0 0 0
420 2 2.4610000000000003e+00 0.0000000000000000e+00 8.8113809829238257e+00 0 0 0
892 1 2.9195760831002291e+00 2.3352634987530170e+00 1.0928214880561466e+01 1 -2 0
427 2 2.4610000000000003e+00 4.2625770374269996e+00 8.8113809829238257e+00 0 0 0
21 1 2.8813909216188001e+00 8.0962745769966205e+00 2.1524474158843017e+01 2 -1 0
426 2 2.4610000000000003e+00 7.1042950623783341e+00 8.8113809829238257e+00 0 0 0
438 2 2.4610000000000003e+00 8.5251540748539991e+00 8.8113809829238257e+00 0 0 0
437 2 2.4610000000000003e+00 1.1366872099805333e+01 8.8113809829238257e+00 0 0 0
453 2 2.4610000000000003e+00 1.2787731112280996e+01 8.8113809829238257e+00 0 0 0
901 1 2.8878481252326456e+00 2.1444952494409829e+01 2.5010477733765718e+01 -2 3 0
472 2 2.4610000000000003e+00 1.7050308149707998e+01 8.8113809829238257e+00 0 0 0
452 2 2.4610000000000003e+00 1.5629449137232328e+01 8.8113809829238257e+00 0 0 0
471 2 2.4610000000000003e+00 1.9892026174659328e+01 8.8113809829238257e+00 0 0 0
10 1 3.0434649111057936e+00 1.3555521761857722e+01 1.1658960468902540e+01 0 -1 -1
492 2 2.4610000000000003e+00 2.1312885187134995e+01 8.8113809829238257e+00 0 0 0
491 2 2.4610000000000003e+00 2.4154603212086325e+01 8.8113809829238257e+00 0 0 0
3059 1 3.1779178562338450e+00 2.1886964786084487e+01 1.2031438389312578e+01 3 0 1
3841 1 2.8328840306275551e+00 2.5074711312394427e+00 1.5131871294084101e+01 2 -1 1
4034 1 2.9543433463160751e+00 5.2922174242760782e+00 1.4517138810579537e+01 2 0 -1
1859 1 2.9265434541378648e+00 1.1141563006014245e+01 1.5295230166969828e+01 0 1 0
2891 1 2.9331060808302452e+00 1.3722460027430502e+01 1.4415433670235188e+01 1 -2 0
1950 1 3.0748620280617511e+00 2.1693466272488109e+01 1.4699346559487973e+01 5 -3 -1
1111 1 2.7593047675751032e+00 2.9239899771390867e+00 1.7811862495012079e+01 0 2 -1
2882 1 2.6856059758441369e+00 8.2216976425846084e+00 1.8771777989490200e+01 -3 1 0
2095 1 2.9112244468111008e+00 1.0970150971379828e+01 1.8006943116711675e+01 1 -4 -1
3902 1 2.8594199573200765e+00 1.6156995489299700e+01 1.8648130011156510e+01 3 2 0
3910 1 2.7333492961853323e+00 1.8925210896472169e+01 1.7741086901876688e+01 -2 0 0
1046 1 2.9793354875800246e+00 1.9006342391078825e+01 1.4940216717219831e+01 -2 -4 0
3034 1 2.5146824930950906e+00 5.3359349744707671e+00 2.2170670897931195e+01 3 -3 1
2824 1 2.4659248801083322e+00 5.3299939443470539e+00 2.4966764368220421e+01 1 0 -1
3908 1 3.0307611896440125e+00 1.3499477223667187e+01 2.2343488801306020e+01 2 1 1
4053 1 3.1705072361036319e+00 1.6189083800544445e+01 2.1437523458631958e+01 0 0 0
1880 1 2.5044590568528635e+00 2.4255703165729610e+01 2.5877681943018498e+01 0 -1 1
1991 1 2.9739478965234727e+00 5.0376609076644820e+00 1.1865890632575862e+01 0 0 -1
960 1 3.0781255730191170e+00 2.1722745911066173e+01 2.2110874341074009e+01 -1 -4 -1
809 1 2.8725595303903781e+00 1.0593353264477349e+01 1.1064071276483407e+01 1 0 1
3893 1 2.4946293641329538e+00 8.0476196276168643e+00 2.5906139865713982e+01 1 -1 -1
4062 1 3.0288588559884055e+00 1.9142064511633919e+01 1.1390278110082431e+01 1 2 0
1881 1 3.3804547014357640e+00 1.3392164544310443e+01 2.4954096084432809e+01 2 2 0
3894 1 2.7620785771291971e+00 2.5726085375365387e-01 1.8871736145072934e+01 -4 0 -1
3879 1 2.5928209044749813e+00 2.4398954614761475e+01 2.1763271562389971e+01 1 2 -1
1823 1 3.1639416440791104e+00 3.4911248492754510e-02 2.6001410088744894e+01 4 2 0
1144 2 2.4610000000000003e+00 2.5575462224561992e+01 2.6200835342648379e+00 0 0 0
1142 2 2.4610000000000003e+00 2.8417180249513326e+01 2.6200835342648379e+00 0 0 0
1158 2 2.4610000000000003e+00 2.9838039261988989e+01 2.6200835342648379e+00 0 0 0
1156 2 2.4610000000000003e+00 3.2679757286940337e+01 2.6200835342648379e+00 0 0 0
1180 2 2.4609999999999985e+00 3.4100616299415996e+01 2.6200835342648379e+00 0 0 0
1178 2 2.4610000000000021e+00 3.6942334324367337e+01 2.6200835342648379e+00 0 0 0
1210 2 2.4610000000000003e+00 3.8363193336842990e+01 2.6200835342648379e+00 0 0 0
1208 2 2.4610000000000003e+00 4.1204911361794323e+01 2.6200835342648379e+00 0 0 0
1245 2 2.4610000000000003e+00 4.5467488399221331e+01 2.6200835342648379e+00 0 0 0
1247 2 2.4610000000000003e+00 4.2625770374269997e+01 2.6200835342648379e+00 0 0 0
1284 2 2.4609999999999985e+00 4.6888347411696998e+01 2.6200835342648379e+00 0 0 0
1143 2 2.4610000000000003e+00 2.6996321237037659e+01 5.7157322585987673e+00 0 0 0
1145 2 2.4610000000000003e+00 2.5575462224561992e+01 5.7157322585987673e+00 0 0 0
1157 2 2.4609999999999985e+00 3.1258898274464656e+01 5.7157322585987673e+00 0 0 0
1159 2 2.4610000000000003e+00 2.9838039261988989e+01 5.7157322585987673e+00 0 0 0
1181 2 2.4609999999999985e+00 3.4100616299415996e+01 5.7157322585987673e+00 0 0 0
1179 2 2.4609999999999985e+00 3.5521475311891663e+01 5.7157322585987673e+00 0 0 0
1211 2 2.4610000000000003e+00 3.8363193336842990e+01 5.7157322585987673e+00 0 0 0
1209 2 2.4610000000000003e+00 3.9784052349318657e+01 5.7157322585987673e+00 0 0 0
1246 2 2.4610000000000003e+00 4.4046629386745657e+01 5.7157322585987673e+00 0 0 0
1248 2 2.4610000000000003e+00 4.2625770374269997e+01 5.7157322585987673e+00 0 0 0
1283 2 2.4609999999999985e+00 4.8309206424172650e+01 5.7157322585987673e+00 0 0 0
1285 2 2.4609999999999985e+00 4.6888347411696998e+01 5.7157322585987673e+00 0 0 0
1451 2 2.4610000000000003e+00 2.5575462224561992e+01 8.8113809829238257e+00 0 0 0
1043 1 2.9085060089234003e+00 2.7091263613449836e+01 1.0978736426465460e+01 -4 1 0
1450 2 2.4610000000000003e+00 2.8417180249513326e+01 8.8113809829238257e+00 0 0 0
1458 2 2.4610000000000003e+00 2.9838039261988989e+01 8.8113809829238257e+00 0 0 0
1457 2 2.4610000000000003e+00 3.2679757286940337e+01 8.8113809829238257e+00 0 0 0
1469 2 2.4609999999999985e+00 3.4100616299415996e+01 8.8113809829238257e+00 0 0 0
1096 1 3.0588551057211242e+00 3.4976330676408239e+01 1.1306537018755677e+01 3 -1 1
1468 2 2.4610000000000021e+00 3.6942334324367337e+01 8.8113809829238257e+00 0 0 0
1484 2 2.4610000000000003e+00 3.8363193336842990e+01 8.8113809829238257e+00 0 0 0
1483 2 2.4610000000000003e+00 4.1204911361794323e+01 8.8113809829238257e+00 0 0 0
1502 2 2.4610000000000003e+00 4.2625770374269997e+01 8.8113809829238257e+00 0 0 0
1501 2 2.4610000000000003e+00 4.5467488399221331e+01 8.8113809829238257e+00 0 0 0
3798 1 2.9027211151288745e+00 4.3430878730899437e+01 1.0948951442651516e+01 -1 -3 0
1520 2 2.4609999999999985e+00 4.6888347411696998e+01 8.8113809829238257e+00 0 0 0
3866 1 2.9250424498588883e+00 4.5982508648196365e+01 1.1797475861550501e+01 1 -1 0
2 1 2.8572971505862816e+00 2.6910820220680645e+01 1.4962323299259374e+01 -1 0 0
821 1 2.9784111805438385e+00 2.9833076036014134e+01 1.1944564871793935e+01 -1 0 1
1873 1 3.0653975574242054e+00 2.9742010826108622e+01 1.4623162617841690e+01 -1 -3 -1
2917 1 2.8799896310408326e+00 3.7758717767287472e+01 1.1908564251926427e+01 0 1 0
3132 1 2.7425560804142397e+00 3.8061620280819461e+01 1.4798357795475539e+01 -2 -2 0
1840 1 2.7700385527995888e+00 3.5441739411726076e+01 1.5910170192860900e+01 4 3 1
863 1 3.1033252539845706e+00 4.3616735433825049e+01 1.5398881624783147e+01 1 -2 1
3992 1 2.9170835070965766e+00 4.6325507814224714e+01 1.4512714143754371e+01 1 0 0
938 1 2.9558822397035684e+00 2.7234706168396368e+01 1.7603136550261194e+01 -5 1 0
1847 1 2.6948356928348534e+00 3.2453381575598591e+01 1.9277661951122614e+01 1 -4 0
2877 1 2.8595442652169432e+00 3.5153928837714759e+01 1.8649482885066085e+01 1 1 0
2964 1 2.5347633343001665e+00 4.0829770426324075e+01 1.8968344767173235e+01 -1 -1 0
1836 1 2.5951530895456889e+00 4.3298459248802168e+01 1.8107432506497645e+01 0 0 0
906 1 2.7809419243775326e+00 4.6291469088746616e+01 2.5257180191667921e+01 -3 -2 0
39 1 2.6726737849085933e+00 2.9677485701844919e+01 2.2638968489258190e+01 -1 0 0
2842 1 2.8526737734506886e+00 3.2305770963524630e+01 2.2241578163234244e+01 0 2 0
1024 1 2.8686343706912689e+00 3.7765117239655247e+01 2.2634585318825366e+01 3 0 0
2063 1 2.7832861082386704e+00 4.0904252124255976e+01 2.2023550587513643e+01 4 -1 1
3125 1 2.5685840303391370e+00 4.5885007641324336e+01 2.2465293154176099e+01 3 0 1
788 1 2.5953907784183734e+00 4.0942718942909707e+01 2.6166889656959334e+01 0 -5 -1
3981 1 2.7015651198859434e+00 2.9391784524923416e+01 2.5420943013466864e+01 -1 1 -1
1030 1 2.7514123654119356e+00 3.2165111297032816e+01 2.5362759406858128e+01 -3 -2 -1
2967 1 2.7494669038730479e+00 3.8296434687087363e+01 2.5357920495909688e+01 1 2 -1
2884 1 2.7912616705956830e+00 4.8732229497870584e+01 2.1676546424634346e+01 1 -1 0
2950 1 2.9972041779033605e+00 2.4575147563612646e+01 1.8978899488910361e+01 2 -1 1
100 2 3.6915000000000004e+00 7.1042950623783474e-01 2.6200835342648379e+00 0 0 0
115 2 3.6914999999999996e+00 2.1312885187134998e+00 2.6200835342648379e+00 0 0 0
117 2 4.9220000000000006e+00 2.8417180249513332e+00 2.6200835342648379e+00 0 0 0
119 2 4.9220000000000006e+00 0.0000000000000000e+00 2.6200835342648379e+00 0 0 0
113 2 3.6914999999999996e+00 4.9730065436648339e+00 2.6200835342648379e+00 0 0 0
136 2 3.6914999999999996e+00 6.3938655561404980e+00 2.6200835342648379e+00 0 0 0
140 2 4.9220000000000006e+00 4.2625770374269978e+00 2.6200835342648379e+00 0 0 0
134 2 3.6915000000000004e+00 9.2355835810918343e+00 2.6200835342648379e+00 0 0 0
138 2 4.9220000000000006e+00 7.1042950623783341e+00 2.6200835342648379e+00 0 0 0
169 2 4.9220000000000006e+00 8.5251540748539991e+00 2.6200835342648379e+00 0 0 0
163 2 3.6915000000000004e+00 1.3498160618518829e+01 2.6200835342648379e+00 0 0 0
165 2 3.6914999999999996e+00 1.0656442593567499e+01 2.6200835342648379e+00 0 0 0
167 2 4.9220000000000006e+00 1.1366872099805333e+01 2.6200835342648379e+00 0 0 0
206 2 4.9220000000000006e+00 1.2787731112280996e+01 2.6200835342648379e+00 0 0 0
202 2 3.6915000000000004e+00 1.4919019630994494e+01 2.6200835342648379e+00 0 0 0
204 2 4.9220000000000006e+00 1.5629449137232333e+01 2.6200835342648379e+00 0 0 0
245 2 4.9220000000000006e+00 1.7050308149707998e+01 2.6200835342648379e+00 0 0 0
200 2 3.6914999999999996e+00 1.7760737655945832e+01 2.6200835342648379e+00 0 0 0
241 2 3.6914999999999996e+00 1.9181596668421495e+01 2.6200835342648379e+00 0 0 0
243 2 4.9220000000000006e+00 1.9892026174659328e+01 2.6200835342648379e+00 0 0 0
239 2 3.6914999999999996e+00 2.2023314693372832e+01 2.6200835342648379e+00 0 0 0
280 2 3.6915000000000004e+00 2.3444173705848499e+01 2.6200835342648379e+00 0 0 0
282 2 4.9220000000000006e+00 2.4154603212086325e+01 2.6200835342648379e+00 0 0 0
284 2 4.9220000000000006e+00 2.1312885187134995e+01 2.6200835342648379e+00 0 0 0
116 2 3.6914999999999996e+00 2.1312885187134998e+00 5.7157322585987673e+00 0 0 0
118 2 4.9220000000000006e+00 1.4208590124756650e+00 5.7157322585987673e+00 0 0 0
120 2 4.9220000000000006e+00 0.0000000000000000e+00 5.7157322585987673e+00 0 0 0
114 2 3.6914999999999996e+00 3.5521475311891644e+00 5.7157322585987673e+00 0 0 0
137 2 3.6914999999999996e+00 6.3938655561404980e+00 5.7157322585987673e+00 0 0 0
139 2 4.9220000000000006e+00 5.6834360499026637e+00 5.7157322585987673e+00 0 0 0
141 2 4.9220000000000006e+00 4.2625770374269978e+00 5.7157322585987673e+00 0 0 0
135 2 3.6914999999999996e+00 7.8147245686161639e+00 5.7157322585987673e+00 0 0 0
168 2 4.9220000000000006e+00 9.9460130873296642e+00 5.7157322585987673e+00 0 0 0
170 2 4.9220000000000006e+00 8.5251540748539991e+00 5.7157322585987673e+00 0 0 0
164 2 3.6914999999999996e+00 1.2077301606043163e+01 5.7157322585987673e+00 0 0 0