LAMMPS data file via write_data, version 16 Mar 2018, timestep = 100000

4065 atoms
2 atom types

0.0000000000000000e+00 4.9219999999999999e+01 xlo xhi
0.0000000000000000e+00 4.9019635930410494e+01 ylo yhi
1.9448857841930973e+00 2.5895946462091320e+01 zlo zhi

Masses

1 18.015
2 12.01

Atoms # atomic

83 2 0.0000000000000000e+00 2.8417180249513345e+00 3.3875843501527232e+00 0 0 0
85 2 0.0000000000000000e+00 0.0000000000000000e+00 3.3875843501527232e+00 0 0 0
87 2 1.2305000000000001e+00 7.1042950623783474e-01 3.3875843501527232e+00 0 0 0
94 2 1.2305000000000001e+00 2.1312885187134998e+00 3.3875843501527232e+00 0 0 0
90 2 0.0000000000000000e+00 4.2625770374269996e+00 3.3875843501527232e+00 0 0 0
92 2 1.2305000000000001e+00 4.9730065436648339e+00 3.3875843501527232e+00 0 0 0
107 2 1.2305000000000001e+00 6.3938655561404980e+00 3.3875843501527232e+00 0 0 0
88 2 0.0000000000000000e+00 7.1042950623783341e+00 3.3875843501527232e+00 0 0 0
103 2 0.0000000000000000e+00 8.5251540748539991e+00 3.3875843501527232e+00 0 0 0
105 2 1.2305000000000001e+00 9.2355835810918343e+00 3.3875843501527232e+00 0 0 0
101 2 0.0000000000000000e+00 1.1366872099805333e+01 3.3875843501527232e+00 0 0 0
124 2 0.0000000000000000e+00 1.2787731112280996e+01 3.3875843501527232e+00 0 0 0
126 2 1.2305000000000001e+00 1.3498160618518829e+01 3.3875843501527232e+00 0 0 0
128 2 1.2305000000000001e+00 1.0656442593567498e+01 3.3875843501527232e+00 0 0 0
122 2 0.0000000000000000e+00 1.5629449137232333e+01 3.3875843501527232e+00 0 0 0
153 2 0.0000000000000000e+00 1.7050308149707998e+01 3.3875843501527232e+00 0 0 0
157 2 1.2305000000000001e+00 1.4919019630994494e+01 3.3875843501527232e+00 0 0 0
151 2 0.0000000000000000e+00 1.9892026174659328e+01 3.3875843501527232e+00 0 0 0
155 2 1.2305000000000001e+00 1.7760737655945832e+01 3.3875843501527232e+00 0 0 0
194 2 1.2305000000000001e+00 1.9181596668421495e+01 3.3875843501527232e+00 0 0 0
188 2 0.0000000000000000e+00 2.4154603212086325e+01 3.3875843501527232e+00 0 0 0
190 2 0.0000000000000000e+00 2.1312885187134999e+01 3.3875843501527232e+00 0 0 0
192 2 1.2304999999999993e+00 2.2023314693372832e+01 3.3875843501527232e+00 0 0 0
233 2 1.2304999999999993e+00 2.3444173705848499e+01 3.3875843501527232e+00 0 0 0
84 2 0.0000000000000000e+00 1.4208590124756650e+00 6.2729814820717902e+00 0 0 0
86 2 0.0000000000000000e+00 0.0000000000000000e+00 6.2729814820717902e+00 0 0 0
95 2 1.2305000000000001e+00 2.1312885187134998e+00 6.2729814820717902e+00 0 0 0
89 2 0.0000000000000000e+00 5.6834360499026637e+00 6.2729814820717902e+00 0 0 0
91 2 0.0000000000000000e+00 4.2625770374269996e+00 6.2729814820717902e+00 0 0 0
93 2 1.2305000000000001e+00 3.5521475311891644e+00 6.2729814820717902e+00 0 0 0
108 2 1.2305000000000001e+00 6.3938655561404980e+00 6.2729814820717902e+00 0 0 0
102 2 0.0000000000000000e+00 9.9460130873296642e+00 6.2729814820717902e+00 0 0 0
104 2 0.0000000000000000e+00 8.5251540748539991e+00 6.2729814820717902e+00 0 0 0
106 2 1.2305000000000001e+00 7.8147245686161639e+00 6.2729814820717902e+00 0 0 0
125 2 0.0000000000000000e+00 1.2787731112280996e+01 6.2729814820717902e+00 0 0 0
127 2 1.2305000000000001e+00 1.2077301606043163e+01 6.2729814820717902e+00 0 0 0
129 2 1.2305000000000001e+00 1.0656442593567498e+01 6.2729814820717902e+00 0 0 0
123 2 0.0000000000000000e+00 1.4208590124756663e+01 6.2729814820717902e+00 0 0 0
154 2 0.0000000000000000e+00 1.7050308149707998e+01 6.2729814820717902e+00 0 0 0
156 2 1.2305000000000001e+00 1.6339878643470165e+01 6.2729814820717902e+00 0 0 0
158 2 1.2305000000000001e+00 1.4919019630994494e+01 6.2729814820717902e+00 0 0 0
152 2 0.0000000000000000e+00 1.8471167162183658e+01 6.2729814820717902e+00 0 0 0
193 2 1.2305000000000001e+00 2.0602455680897162e+01 6.2729814820717902e+00 0 0 0
195 2 1.2305000000000001e+00 1.9181596668421495e+01 6.2729814820717902e+00 0 0 0
189 2 0.0000000000000000e+00 2.2733744199610655e+01 6.2729814820717902e+00 0 0 0
191 2 0.0000000000000000e+00 2.1312885187134999e+01 6.2729814820717902e+00 0 0 0
234 2 1.2304999999999993e+00 2.3444173705848499e+01 6.2729814820717902e+00 0 0 0
412 2 0.0000000000000000e+00 2.8417180249513345e+00 9.1583786139906120e+00 0 0 0
413 2 0.0000000000000000e+00 0.0000000000000000e+00 9.1583786139906120e+00 0 0 0
414 2 1.2305000000000001e+00 7.1042950623783474e-01 9.1583786139906120e+00 0 0 0
418 2 1.2305000000000001e+00 2.1312885187134998e+00 9.1583786139906120e+00 0 0 0
3879 1 1.2950297789271368e+00 1.4158251296508208e+01 1.8617501112199726e+01 0 1 -1
416 2 0.0000000000000000e+00 4.2625770374269996e+00 9.1583786139906120e+00 0 0 0
417 2 1.2305000000000001e+00 4.9730065436648339e+00 9.1583786139906120e+00 0 0 0
425 2 1.2305000000000001e+00 6.3938655561404980e+00 9.1583786139906120e+00 0 0 0
415 2 0.0000000000000000e+00 7.1042950623783341e+00 9.1583786139906120e+00 0 0 0
423 2 0.0000000000000000e+00 8.5251540748539991e+00 9.1583786139906120e+00 0 0 0
424 2 1.2305000000000001e+00 9.2355835810918343e+00 9.1583786139906120e+00 0 0 0
982 1 2.5925018063011657e-01 1.9364853614765547e+01 1.4655923747458715e+01 0 0 -1
4005 1 1.1385398167797209e+00 4.5629625087764278e+00 2.1410199292439785e+01 1 1 0
422 2 0.0000000000000000e+00 1.1366872099805333e+01 9.1583786139906120e+00 0 0 0
434 2 0.0000000000000000e+00 1.2787731112280996e+01 9.1583786139906120e+00 0 0 0
435 2 1.2305000000000001e+00 1.3498160618518829e+01 9.1583786139906120e+00 0 0 0
436 2 1.2305000000000001e+00 1.0656442593567498e+01 9.1583786139906120e+00 0 0 0
433 2 0.0000000000000000e+00 1.5629449137232333e+01 9.1583786139906120e+00 0 0 0
449 2 0.0000000000000000e+00 1.7050308149707998e+01 9.1583786139906120e+00 0 0 0
451 2 1.2305000000000001e+00 1.4919019630994494e+01 9.1583786139906120e+00 0 0 0
448 2 0.0000000000000000e+00 1.9892026174659328e+01 9.1583786139906120e+00 0 0 0
450 2 1.2305000000000001e+00 1.7760737655945832e+01 9.1583786139906120e+00 0 0 0
470 2 1.2305000000000001e+00 1.9181596668421495e+01 9.1583786139906120e+00 0 0 0
2097 1 1.0977603940124390e+00 9.8349165017818052e+00 2.3560413266613232e+01 0 1 0
467 2 0.0000000000000000e+00 2.4154603212086325e+01 9.1583786139906120e+00 0 0 0
468 2 0.0000000000000000e+00 2.1312885187134999e+01 9.1583786139906120e+00 0 0 0
469 2 1.2304999999999993e+00 2.2023314693372832e+01 9.1583786139906120e+00 0 0 0
490 2 1.2304999999999993e+00 2.3444173705848499e+01 9.1583786139906120e+00 0 0 0
2966 1 7.0145139501635501e-01 1.6570735694818904e+01 1.4554047195903848e+01 2 1 1
1823 1 1.5014999398239739e+00 2.3639164978712220e+01 2.4306911500843778e+01 0 1 0
956 1 3.1849000192855936e-01 7.6083285598870436e+00 2.0312958946179130e+01 -1 0 0
2000 1 3.3191818501184939e-01 5.0313880589131159e+00 1.4735445877752046e+01 -1 -1 0
3892 1 8.5425224727763704e-01 1.4923303759481968e+01 2.1866787740051077e+01 1 0 1
16 1 1.3522862567309077e+00 1.2688439132687233e+01 1.1849178420340886e+01 0 1 1
3936 1 3.9479834423493998e-01 2.3467149922771867e+01 2.1180526944462059e+01 1 0 -1
1968 1 6.7879143234233397e-01 6.0495726845268738e+00 2.4215792599911815e+01 0 1 -1
781 1 7.0724342709673482e-02 2.2328811973545960e+01 1.4484024939234651e+01 0 1 0
1993 1 8.2121868568920475e-01 2.0742757745407999e+01 1.8879407222653018e+01 0 0 -1
3005 1 1.0845394646305941e+00 1.8308475885423800e+01 2.2307344958467123e+01 1 0 -1
848 1 4.8063067028697343e-01 1.7019998312684958e+01 1.1566635672398586e+01 1 0 0
2928 1 2.7946459981695687e-01 7.6144577861513278e+00 1.1499435621711957e+01 1 -1 0
2846 1 4.3964885802169001e-01 8.0180735797692460e-01 1.4496659475800630e+01 0 1 0
3926 1 3.7453605148700420e-01 1.9760732459360678e+01 1.1982679414444069e+01 1 1 0
966 1 6.8632104004171346e-01 8.6670757518894579e+00 1.7816212569082566e+01 2 0 0
3857 1 6.4028667703253317e-01 1.5918752555367826e+01 2.4486197870951301e+01 -1 1 0
1958 1 1.1436785717592026e+00 1.2824240996400439e+01 1.4755483647740332e+01 0 0 0
3951 1 1.1263850496920322e+00 2.3892007352961844e+01 1.8226992856698573e+01 0 0 -1
2954 1 1.0054304307334809e+00 1.2961267225009996e+01 2.4804323893277015e+01 0 0 0
2002 1 1.6206560722411421e+00 2.0594513465657385e+00 2.2117769942717004e+01 0 0 0
1130 2 0.0000000000000000e+00 2.5575462224561992e+01 3.3875843501527232e+00 0 0 0
1132 2 1.2305000000000001e+00 2.6285891730799833e+01 3.3875843501527232e+00 0 0 0
1140 2 1.2305000000000010e+00 2.7706750743275496e+01 3.3875843501527232e+00 0 0 0
1128 2 0.0000000000000000e+00 2.8417180249513333e+01 3.3875843501527232e+00 0 0 0
1136 2 0.0000000000000000e+00 2.9838039261988989e+01 3.3875843501527232e+00 0 0 0
1138 2 1.2304999999999993e+00 3.0548468768226829e+01 3.3875843501527232e+00 0 0 0
1134 2 0.0000000000000000e+00 3.2679757286940330e+01 3.3875843501527232e+00 0 0 0
1150 2 0.0000000000000000e+00 3.4100616299415996e+01 3.3875843501527232e+00 0 0 0
1152 2 1.2305000000000010e+00 3.4811045805653833e+01 3.3875843501527232e+00 0 0 0
1154 2 1.2304999999999993e+00 3.1969327780702493e+01 3.3875843501527232e+00 0 0 0
1148 2 0.0000000000000000e+00 3.6942334324367337e+01 3.3875843501527232e+00 0 0 0
1172 2 0.0000000000000000e+00 3.8363193336842990e+01 3.3875843501527232e+00 0 0 0
1176 2 1.2304999999999993e+00 3.6231904818129486e+01 3.3875843501527232e+00 0 0 0
1170 2 0.0000000000000000e+00 4.1204911361794323e+01 3.3875843501527232e+00 0 0 0
1174 2 1.2305000000000010e+00 3.9073622843080841e+01 3.3875843501527232e+00 0 0 0
1206 2 1.2305000000000010e+00 4.0494481855556494e+01 3.3875843501527232e+00 0 0 0
1200 2 0.0000000000000000e+00 4.5467488399221331e+01 3.3875843501527232e+00 0 0 0
1202 2 0.0000000000000000e+00 4.2625770374269997e+01 3.3875843501527232e+00 0 0 0
1204 2 1.2304999999999993e+00 4.3336199880507827e+01 3.3875843501527232e+00 0 0 0
1243 2 1.2304999999999993e+00 4.4757058892983494e+01 3.3875843501527232e+00 0 0 0
1239 2 0.0000000000000000e+00 4.6888347411696998e+01 3.3875843501527232e+00 0 0 0
1241 2 1.2305000000000010e+00 4.7598776917934813e+01 3.3875843501527232e+00 0 0 0
1129 2 0.0000000000000000e+00 2.6996321237037659e+01 6.2729814820717902e+00 0 0 0
1131 2 0.0000000000000000e+00 2.5575462224561992e+01 6.2729814820717902e+00 0 0 0
1133 2 1.2305000000000001e+00 2.4865032718324155e+01 6.2729814820717902e+00 0 0 0
1141 2 1.2305000000000010e+00 2.7706750743275496e+01 6.2729814820717902e+00 0 0 0
1135 2 0.0000000000000000e+00 3.1258898274464656e+01 6.2729814820717902e+00 0 0 0
1137 2 0.0000000000000000e+00 2.9838039261988989e+01 6.2729814820717902e+00 0 0 0
1139 2 1.2304999999999993e+00 2.9127609755751163e+01 6.2729814820717902e+00 0 0 0
1151 2 0.0000000000000000e+00 3.4100616299415996e+01 6.2729814820717902e+00 0 0 0
1153 2 1.2304999999999993e+00 3.3390186793178160e+01 6.2729814820717902e+00 0 0 0
1155 2 1.2304999999999993e+00 3.1969327780702493e+01 6.2729814820717902e+00 0 0 0
1149 2 0.0000000000000000e+00 3.5521475311891649e+01 6.2729814820717902e+00 0 0 0
1173 2 0.0000000000000000e+00 3.8363193336842990e+01 6.2729814820717902e+00 0 0 0
1175 2 1.2304999999999993e+00 3.7652763830605153e+01 6.2729814820717902e+00 0 0 0
1177 2 1.2304999999999993e+00 3.6231904818129486e+01 6.2729814820717902e+00 0 0 0
1171 2 0.0000000000000000e+00 3.9784052349318657e+01 6.2729814820717902e+00 0 0 0
1205 2 1.2305000000000010e+00 4.1915340868032160e+01 6.2729814820717902e+00 0 0 0
1207 2 1.2305000000000010e+00 4.0494481855556494e+01 6.2729814820717902e+00 0 0 0
1201 2 0.0000000000000000e+00 4.4046629386745657e+01 6.2729814820717902e+00 0 0 0
1203 2 0.0000000000000000e+00 4.2625770374269997e+01 6.2729814820717902e+00 0 0 0
1244 2 1.2304999999999993e+00 4.4757058892983494e+01 6.2729814820717902e+00 0 0 0
1238 2 0.0000000000000000e+00 4.8309206424172650e+01 6.2729814820717902e+00 0 0 0
1240 2 0.0000000000000000e+00 4.6888347411696998e+01 6.2729814820717902e+00 0 0 0
1242 2 1.2304999999999993e+00 4.6177917905459147e+01 6.2729814820717902e+00 0 0 0
1444 2 0.0000000000000000e+00 2.5575462224561992e+01 9.1583786139906120e+00 0 0 0
1445 2 1.2305000000000001e+00 2.6285891730799833e+01 9.1583786139906120e+00 0 0 0
1449 2 1.2305000000000010e+00 2.7706750743275496e+01 9.1583786139906120e+00 0 0 0
1443 2 0.0000000000000000e+00 2.8417180249513333e+01 9.1583786139906120e+00 0 0 0
1447 2 0.0000000000000000e+00 2.9838039261988989e+01 9.1583786139906120e+00 0 0 0
1448 2 1.2304999999999993e+00 3.0548468768226829e+01 9.1583786139906120e+00 0 0 0
844 1 1.3239600022627590e-01 2.9017137298795532e+01 1.8944337000438932e+01 0 1 -1
989 1 8.1400068236196566e-01 3.1776499394263968e+01 1.2110850593298524e+01 1 1 0
1446 2 0.0000000000000000e+00 3.2679757286940330e+01 9.1583786139906120e+00 0 0 0
1454 2 0.0000000000000000e+00 3.4100616299415996e+01 9.1583786139906120e+00 0 0 0
1455 2 1.2305000000000010e+00 3.4811045805653833e+01 9.1583786139906120e+00 0 0 0
1456 2 1.2304999999999993e+00 3.1969327780702493e+01 9.1583786139906120e+00 0 0 0
1453 2 0.0000000000000000e+00 3.6942334324367337e+01 9.1583786139906120e+00 0 0 0
1465 2 0.0000000000000000e+00 3.8363193336842990e+01 9.1583786139906120e+00 0 0 0
1467 2 1.2304999999999993e+00 3.6231904818129486e+01 9.1583786139906120e+00 0 0 0
954 1 1.1656592043008878e+00 3.7105421237062778e+01 1.4508589407692675e+01 0 1 0
1464 2 0.0000000000000000e+00 4.1204911361794323e+01 9.1583786139906120e+00 0 0 0
1466 2 1.2305000000000010e+00 3.9073622843080841e+01 9.1583786139906120e+00 0 0 0
1482 2 1.2305000000000010e+00 4.0494481855556494e+01 9.1583786139906120e+00 0 0 0
1479 2 0.0000000000000000e+00 4.5467488399221331e+01 9.1583786139906120e+00 0 0 0
1480 2 0.0000000000000000e+00 4.2625770374269997e+01 9.1583786139906120e+00 0 0 0
1481 2 1.2304999999999993e+00 4.3336199880507827e+01 9.1583786139906120e+00 0 0 0
1500 2 1.2304999999999993e+00 4.4757058892983494e+01 9.1583786139906120e+00 0 0 0
2122 1 1.1852971423483658e+00 4.0541906525523096e+01 1.7518054422329698e+01 1 1 0
1498 2 0.0000000000000000e+00 4.6888347411696998e+01 9.1583786139906120e+00 0 0 0
1499 2 1.2305000000000010e+00 4.7598776917934813e+01 9.1583786139906120e+00 0 0 0
3967 1 6.0599943965458425e-01 4.8581017148764573e+01 1.1912019353833617e+01 -1 -1 -1
3978 1 1.1191831986149965e+00 3.2142074458807706e+01 1.9836476118514557e+01 0 0 0
31 1 5.1807377833481716e-01 4.3379876556187163e+01 2.4488773703574566e+01 1 -1 0
913 1 9.4416361706555274e-01 4.4548340347760806e+01 1.2057593353269487e+01 0 0 0
1914 1 9.7125284764970010e-01 4.0290273934237817e+01 2.4703895803670790e+01 0 -1 0
791 1 8.4750234776068489e-01 3.3811331928342817e+01 1.7765043960766995e+01 1 0 0
2841 1 3.8405722271871245e-01 4.7068225866316745e+01 2.2068126019548213e+01 0 0 0
3146 1 9.4902508315624079e-02 3.6406442693394517e+01 1.8812646622590805e+01 -1 -1 0
2093 1 2.7622776017707246e-01 3.9538282979898391e+01 1.1363938225938046e+01 1 -1 0
4034 1 1.6742356348183938e+00 3.6947947613233538e+01 1.1824050905172660e+01 2 0 -1
816 1 1.4173343064185435e+00 2.7964010425518392e+01 1.1954476705333336e+01 0 0 0
3846 1 1.0048678419170061e+00 2.6794360091744867e+01 1.4580158830650088e+01 2 1 1
3853 1 4.8675002072643142e-01 3.2272939551540155e+01 1.5130946970319936e+01 0 0 -1
3918 1 3.6739456556578176e-01 2.5031804797571166e+01 1.1747166622737122e+01 1 0 -1
967 1 1.4335362134481782e+00 4.2007420725429434e+01 1.2388464776142129e+01 1 -1 -1
1797 1 4.6773828936484046e-01 4.5317128689933121e+01 1.4644214142428172e+01 0 0 0
3906 1 2.8309331689063333e-01 3.7150566718553023e+01 2.4473947759928173e+01 1 -1 -1
788 1 1.1370275652643449e+00 4.3658950731591553e+01 2.1626521321771950e+01 0 -1 -1
1854 1 1.6751027132647485e+00 4.2084664267281696e+01 1.5163761462922658e+01 -1 0 -1
96 2 2.4610000000000003e+00 2.8417180249513345e+00 3.3875843501527232e+00 0 0 0
98 2 2.4610000000000003e+00 0.0000000000000000e+00 3.3875843501527232e+00 0 0 0
111 2 2.4610000000000003e+00 4.2625770374269996e+00 3.3875843501527232e+00 0 0 0
109 2 2.4610000000000003e+00 7.1042950623783341e+00 3.3875843501527232e+00 0 0 0
132 2 2.4610000000000003e+00 8.5251540748539991e+00 3.3875843501527232e+00 0 0 0
130 2 2.4610000000000003e+00 1.1366872099805333e+01 3.3875843501527232e+00 0 0 0
161 2 2.4610000000000003e+00 1.2787731112280996e+01 3.3875843501527232e+00 0 0 0
159 2 2.4610000000000003e+00 1.5629449137232328e+01 3.3875843501527232e+00 0 0 0
198 2 2.4610000000000003e+00 1.7050308149707998e+01 3.3875843501527232e+00 0 0 0
196 2 2.4610000000000003e+00 1.9892026174659328e+01 3.3875843501527232e+00 0 0 0
235 2 2.4610000000000003e+00 2.4154603212086325e+01 3.3875843501527232e+00 0 0 0
237 2 2.4610000000000003e+00 2.1312885187134995e+01 3.3875843501527232e+00 0 0 0
97 2 2.4610000000000003e+00 1.4208590124756650e+00 6.2729814820717902e+00 0 0 0
99 2 2.4610000000000003e+00 0.0000000000000000e+00 6.2729814820717902e+00 0 0 0
110 2 2.4610000000000003e+00 5.6834360499026637e+00 6.2729814820717902e+00 0 0 0
112 2 2.4610000000000003e+00 4.2625770374269996e+00 6.2729814820717902e+00 0 0 0
131 2 2.4610000000000003e+00 9.9460130873296642e+00 6.2729814820717902e+00 0 0 0
133 2 2.4610000000000003e+00 8.5251540748539991e+00 6.2729814820717902e+00 0 0 0
162 2 2.4610000000000003e+00 1.2787731112280996e+01 6.2729814820717902e+00 0 0 0
160 2 2.4610000000000003e+00 1.4208590124756663e+01 6.2729814820717902e+00 0 0 0
199 2 2.4610000000000003e+00 1.7050308149707998e+01 6.2729814820717902e+00 0 0 0
197 2 2.4610000000000003e+00 1.8471167162183658e+01 6.2729814820717902e+00 0 0 0
236 2 2.4610000000000003e+00 2.2733744199610655e+01 6.2729814820717902e+00 0 0 0
238 2 2.4610000000000003e+00 2.1312885187134995e+01 6.2729814820717902e+00 0 0 0
419 2 2.4610000000000003e+00 2.8417180249513345e+00 9.1583786139906120e+00 0 0 0
420 2 2.4610000000000003e+00 0.0000000000000000e+00 9.1583786139906120e+00 0 0 0
3100 1 2.4836357491131746e+00 1.2538104665197077e+01 2.2016089701387909e+01 0 0 0
427 2 2.4610000000000003e+00 4.2625770374269996e+00 9.1583786139906120e+00 0 0 0
4009 1 2.0632059619834613e+00 9.9751680652283543e+00 1.1922715358888910e+01 0 1 0
426 2 2.4610000000000003e+00 7.1042950623783341e+00 9.1583786139906120e+00 0 0 0
438 2 2.4610000000000003e+00 8.5251540748539991e+00 9.1583786139906120e+00 0 0 0
437 2 2.4610000000000003e+00 1.1366872099805333e+01 9.1583786139906120e+00 0 0 0
453 2 2.4610000000000003e+00 1.2787731112280996e+01 9.1583786139906120e+00 0 0 0
3118 1 2.7383429038592517e+00 1.1001169530828803e+00 2.4698408391357304e+01 1 1 1
452 2 2.4610000000000003e+00 1.5629449137232328e+01 9.1583786139906120e+00 0 0 0
472 2 2.4610000000000003e+00 1.7050308149707998e+01 9.1583786139906120e+00 0 0 0
779 1 2.0571317988487339e+00 9.6630670171638702e+00 1.4629625572541299e+01 0 1 0
471 2 2.4610000000000003e+00 1.9892026174659328e+01 9.1583786139906120e+00 0 0 0
491 2 2.4610000000000003e+00 2.4154603212086325e+01 9.1583786139906120e+00 0 0 0
492 2 2.4610000000000003e+00 2.1312885187134995e+01 9.1583786139906120e+00 0 0 0
1835 1 2.7753905170841127e+00 2.3465463342164895e+01 1.1928061720383683e+01 2 1 -1
3964 1 2.7387188035409276e+00 6.4057771649593462e+00 1.4671503590043510e+01 1 0 0
3054 1 3.2425878658805463e+00 1.1498212849449008e+01 1.6519090136520415e+01 0 0 0
2855 1 3.0618703241232823e+00 6.5634151935225633e+00 1.1895490919304541e+01 0 0 0
979 1 3.1559928043604506e+00 7.1766952761457885e+00 1.7448113761662977e+01 0 0 -1
2845 1 2.0188260717000759e+00 2.0888542825655342e+01 2.4785892933427540e+01 1 1 0
3865 1 2.3221329428510908e+00 1.7043715830053340e+01 1.9602978216247244e+01 1 -1 0
1875 1 2.8406545316827607e+00 1.3843203443473053e+00 1.5782384102537998e+01 1 1 -1
1042 1 2.0429172500541206e+00 9.9612991929563961e+00 2.0702775791803514e+01 1 0 0
23 1 2.7537183933930294e+00 8.1467279030443418e+00 2.4768981035033182e+01 1 0 0
839 1 1.8824401559402009e+00 2.4196442175666569e+01 1.5652152673139492e+01 1 -1 0
3815 1 2.1793336999135327e+00 4.0267426865085394e+00 2.4877818460284036e+01 0 1 0
3877 1 1.9230120042258623e+00 1.9602505914173342e+01 1.6736358732935916e+01 0 -1 0
1942 1 2.2098296719682842e+00 2.0836886347033932e+01 2.1415913981183117e+01 1 0 -1
2042 1 2.5350790072335636e+00 1.5274221329132692e+01 1.1370068164034590e+01 0 2 -1
1940 1 1.8428206099228970e+00 2.1171063318910246e+00 1.8395158181000998e+01 1 1 -1
1827 1 2.7390294322180058e+00 1.8629459335464669e+00 1.1846646364123270e+01 1 0 0
927 1 3.0801099792630149e+00 4.5910651167134136e+00 1.9011690832268158e+01 0 0 0
2 1 2.9435038945746301e+00 2.0919753571868167e+01 1.2971231085481884e+01 0 0 0
1936 1 3.1024550053749316e+00 1.7065597276704544e+01 1.6496458507901366e+01 1 0 0
7 1 3.3374852320696458e+00 1.4506987008224138e+01 1.3913808758770177e+01 1 0 0
3083 1 3.3267918326736479e+00 3.4937613937099044e-01 1.9836584474351991e+01 1 0 0
1144 2 2.4610000000000003e+00 2.5575462224561992e+01 3.3875843501527232e+00 0 0 0
1142 2 2.4610000000000003e+00 2.8417180249513326e+01 3.3875843501527232e+00 0 0 0
1158 2 2.4610000000000003e+00 2.9838039261988989e+01 3.3875843501527232e+00 0 0 0
1156 2 2.4610000000000003e+00 3.2679757286940337e+01 3.3875843501527232e+00 0 0 0
1180 2 2.4609999999999985e+00 3.4100616299415996e+01 3.3875843501527232e+00 0 0 0
1178 2 2.4610000000000021e+00 3.6942334324367337e+01 3.3875843501527232e+00 0 0 0
1210 2 2.4610000000000003e+00 3.8363193336842990e+01 3.3875843501527232e+00 0 0 0
1208 2 2.4610000000000003e+00 4.1204911361794323e+01 3.3875843501527232e+00 0 0 0
1245 2 2.4610000000000003e+00 4.5467488399221331e+01 3.3875843501527232e+00 0 0 0
1247 2 2.4610000000000003e+00 4.2625770374269997e+01 3.3875843501527232e+00 0 0 0
1284 2 2.4609999999999985e+00 4.6888347411696998e+01 3.3875843501527232e+00 0 0 0
1143 2 2.4610000000000003e+00 2.6996321237037659e+01 6.2729814820717902e+00 0 0 0
1145 2 2.4610000000000003e+00 2.5575462224561992e+01 6.2729814820717902e+00 0 0 0
1157 2 2.4609999999999985e+00 3.1258898274464656e+01 6.2729814820717902e+00 0 0 0
1159 2 2.4610000000000003e+00 2.9838039261988989e+01 6.2729814820717902e+00 0 0 0
1181 2 2.4609999999999985e+00 3.4100616299415996e+01 6.2729814820717902e+00 0 0 0
1179 2 2.4609999999999985e+00 3.5521475311891663e+01 6.2729814820717902e+00 0 0 0
1211 2 2.4610000000000003e+00 3.8363193336842990e+01 6.2729814820717902e+00 0 0 0
1209 2 2.4610000000000003e+00 3.9784052349318657e+01 6.2729814820717902e+00 0 0 0
1246 2 2.4610000000000003e+00 4.4046629386745657e+01 6.2729814820717902e+00 0 0 0
1248 2 2.4610000000000003e+00 4.2625770374269997e+01 6.2729814820717902e+00 0 0 0
1283 2 2.4609999999999985e+00 4.8309206424172650e+01 6.2729814820717902e+00 0 0 0
1285 2 2.4609999999999985e+00 4.6888347411696998e+01 6.2729814820717902e+00 0 0 0
1451 2 2.4610000000000003e+00 2.5575462224561992e+01 9.1583786139906120e+00 0 0 0
1788 1 2.3000210646370753e+00 2.6467442748386723e+01 2.2096056064143827e+01 1 1 -1
1450 2 2.4610000000000003e+00 2.8417180249513326e+01 9.1583786139906120e+00 0 0 0
1458 2 2.4610000000000003e+00 2.9838039261988989e+01 9.1583786139906120e+00 0 0 0
1457 2 2.4610000000000003e+00 3.2679757286940337e+01 9.1583786139906120e+00 0 0 0
1469 2 2.4609999999999985e+00 3.4100616299415996e+01 9.1583786139906120e+00 0 0 0
1468 2 2.4610000000000021e+00 3.6942334324367337e+01 9.1583786139906120e+00 0 0 0
1484 2 2.4610000000000003e+00 3.8363193336842990e+01 9.1583786139906120e+00 0 0 0
2039 1 1.9311860257574593e+00 2.9345489570670125e+01 2.1370014226885015e+01 0 1 -1
1483 2 2.4610000000000003e+00 4.1204911361794323e+01 9.1583786139906120e+00 0 0 0
1501 2 2.4610000000000003e+00 4.5467488399221331e+01 9.1583786139906120e+00 0 0 0
1502 2 2.4610000000000003e+00 4.2625770374269997e+01 9.1583786139906120e+00 0 0 0
3803 1 3.0368051419635695e+00 4.6369595901881809e+01 1.1298258108365268e+01 0 -1 0
1520 2 2.4609999999999985e+00 4.6888347411696998e+01 9.1583786139906120e+00 0 0 0
2007 1 1.9425855733393296e+00 4.6541908277395294e+01 1.9749795740813084e+01 2 -1 0
789 1 1.7160369330091227e+00 2.8469872541126286e+01 2.4873774094705290e+01 0 1 0
1924 1 3.0275194347766154e+00 4.6898505987418865e+01 2.4488235371945795e+01 0 -1 1
2054 1 2.4778214934426783e+00 3.6477060249271723e+01 2.1168381205164692e+01 0 0 1
2991 1 2.7185223355260475e+00 2.8081104641097799e+01 1.8181893534237126e+01 0 0 1
4038 1 2.4768264841944201e+00 4.7594397083560771e+01 1.4257023832415676e+01 -1 0 1
931 1 3.2291174513624625e+00 3.6220965945546943e+01 2.4004958692426516e+01 1 0 -1
3009 1 3.3403017454901156e+00 3.4973355176650145e+01 1.7738567402402150e+01 0 1 0
2935 1 2.4543467370799008e+00 3.3317520076207110e+01 2.4662397059383245e+01 1 0 0
3002 1 3.2275586226535391e+00 3.2266396815307480e+01 1.5860818083722116e+01 0 -1 -1
865 1 2.2418457014236552e+00 3.8124085128701225e+01 1.7413113396218666e+01 1 0 0
3077 1 2.6992280937729505e+00 3.3513197044856803e+01 2.1757740353274286e+01 0 0 0
35 1 3.0290214249959915e+00 4.4549879537329389e+01 1.5788286103955256e+01 0 -1 1
1824 1 3.2506099998994662e+00 2.7955169523043587e+01 1.5399904567036494e+01 1 0 0
882 1 3.1586097154342316e+00 2.5501076106591103e+01 1.9356569954533533e+01 1 0 0
3085 1 3.0682386168849298e+00 3.9470253619797781e+01 2.1301832552649305e+01 0 0 1
2944 1 3.2254116309668794e+00 4.4238413914131435e+01 2.4515897177621095e+01 0 -1 1
2083 1 3.2924911075725407e+00 3.0965311439277581e+01 1.8207094742050518e+01 1 1 0
1002 1 1.7097461758032304e+00 4.1287928556672391e+01 2.0081168407319140e+01 0 0 -1
100 2 3.6915000000000004e+00 7.1042950623783474e-01 3.3875843501527232e+00 0 0 0
115 2 3.6914999999999996e+00 2.1312885187134998e+00 3.3875843501527232e+00 0 0 0
117 2 4.9220000000000006e+00 2.8417180249513332e+00 3.3875843501527232e+00 0 0 0
119 2 4.9220000000000006e+00 0.0000000000000000e+00 3.3875843501527232e+00 0 0 0
113 2 3.6914999999999996e+00 4.9730065436648339e+00 3.3875843501527232e+00 0 0 0
136 2 3.6914999999999996e+00 6.3938655561404980e+00 3.3875843501527232e+00 0 0 0
140 2 4.9220000000000006e+00 4.2625770374269978e+00 3.3875843501527232e+00 0 0 0
134 2 3.6915000000000004e+00 9.2355835810918343e+00 3.3875843501527232e+00 0 0 0
138 2 4.9220000000000006e+00 7.1042950623783341e+00 3.3875843501527232e+00 0 0 0
169 2 4.9220000000000006e+00 8.5251540748539991e+00 3.3875843501527232e+00 0 0 0
163 2 3.6915000000000004e+00 1.3498160618518829e+01 3.3875843501527232e+00 0 0 0
165 2 3.6914999999999996e+00 1.0656442593567499e+01 3.3875843501527232e+00 0 0 0
167 2 4.9220000000000006e+00 1.1366872099805333e+01 3.3875843501527232e+00 0 0 0
206 2 4.9220000000000006e+00 1.2787731112280996e+01 3.3875843501527232e+00 0 0 0
202 2 3.6915000000000004e+00 1.4919019630994494e+01 3.3875843501527232e+00 0 0 0
204 2 4.9220000000000006e+00 1.5629449137232333e+01 3.3875843501527232e+00 0 0 0
245 2 4.9220000000000006e+00 1.7050308149707998e+01 3.3875843501527232e+00 0 0 0
200 2 3.6914999999999996e+00 1.7760737655945832e+01 3.3875843501527232e+00 0 0 0
241 2 3.6914999999999996e+00 1.9181596668421495e+01 3.3875843501527232e+00 0 0 0
243 2 4.9220000000000006e+00 1.9892026174659328e+01 3.3875843501527232e+00 0 0 0
239 2 3.6914999999999996e+00 2.2023314693372832e+01 3.3875843501527232e+00 0 0 0
280 2 3.6915000000000004e+00 2.3444173705848499e+01 3.3875843501527232e+00 0 0 0
282 2 4.9220000000000006e+00 2.4154603212086325e+01 3.3875843501527232e+00 0 0 0
284 2 4.9220000000000006e+00 2.1312885187134995e+01 3.3875843501527232e+00 0 0 0
116 2 3.6914999999999996e+00 2.1312885187134998e+00 6.2729814820717902e+00 0 0 0
118 2 4.9220000000000006e+00 1.4208590124756650e+00 6.2729814820717902e+00 0 0 0
120 2 4.9220000000000006e+00 0.0000000000000000e+00 6.2729814820717902e+00 0 0 0
114 2 3.6914999999999996e+00 3.5521475311891644e+00 6.2729814820717902e+00 0 0 0
137 2 3.6914999999999996e+00 6.3938655561404980e+00 6.2729814820717902e+00 0 0 0
139 2 4.9220000000000006e+00 5.6834360499026637e+00 6.2729814820717902e+00 0 0 0
141 2 4.9220000000000006e+00 4.2625770374269978e+00 6.2729814820717902e+00 0 0 0
135 2 3.6914999999999996e+00 7.8147245686161639e+00 6.2729814820717902e+00 0 0 0
168 2 4.9220000000000006e+00 9.9460130873296642e+00 6.2729814820717902e+00 0 0 0
170 2 4.9220000000000006e+00 8.5251540748539991e+00 6.2729814820717902e+00 0 0 0
164 2 3.6914999999999996e+00 1.2077301606043163e+01 6.2729814820717902e+00 0 0 0
166 2 3.6914999999999996e+00 1.0656442593567499e+01 6.2729814820717902e+00 0 0 0
207 2 4.9220000000000006e+00 1.2787731112280996e+01 6.2729814820717902e+00 0 0 0
201 2 3.6915000000000004e+00 1.6339878643470165e+01 6.2729814820717902e+00 0 0 0
203 2 3.6915000000000004e+00 1.4919019630994494e+01 6.2729814820717902e+00 0 0 0
205 2 4.9220000000000006e+00 1.4208590124756663e+01 6.2729814820717902e+00 0 0 0
246 2 4.9220000000000006e+00 1.7050308149707998e+01 6.2729814820717902e+00 0 0 0
240 2 3.6915000000000004e+00 2.0602455680897162e+01 6.2729814820717902e+00 0 0 0
242 2 3.6914999999999996e+00 1.9181596668421495e+01 6.2729814820717902e+00 0 0 0
244 2 4.9220000000000006e+00 1.8471167162183658e+01 6.2729814820717902e+00 0 0 0
281 2 3.6915000000000004e+00 2.3444173705848499e+01 6.2729814820717902e+00 0 0 0
283 2 4.9220000000000006e+00 2.2733744199610655e+01 6.2729814820717902e+00 0 0 0
285 2 4.9220000000000006e+00 2.1312885187134995e+01 6.2729814820717902e+00 0 0 0
421 2 3.6915000000000004e+00 7.1042950623783474e-01 9.1583786139906120e+00 0 0 0
429 2 3.6914999999999996e+00 2.1312885187134998e+00 9.1583786139906120e+00 0 0 0
430 2 4.9220000000000006e+00 2.8417180249513332e+00 9.1583786139906120e+00 0 0 0
431 2 4.9220000000000006e+00 0.0000000000000000e+00 9.1583786139906120e+00 0 0 0
428 2 3.6914999999999996e+00 4.9730065436648339e+00 9.1583786139906120e+00 0 0 0
440 2 3.6914999999999996e+00 6.3938655561404980e+00 9.1583786139906120e+00 0 0 0
442 2 4.9220000000000006e+00 4.2625770374269978e+00 9.1583786139906120e+00 0 0 0
439 2 3.6915000000000004e+00 9.2355835810918343e+00 9.1583786139906120e+00 0 0 0
441 2 4.9220000000000006e+00 7.1042950623783341e+00 9.1583786139906120e+00 0 0 0
457 2 4.9220000000000006e+00 8.5251540748539991e+00 9.1583786139906120e+00 0 0 0
916 1 3.9860855377841733e+00 1.1897552927401643e+01 2.4433312456887755e+01 0 -1 -1
454 2 3.6915000000000004e+00 1.3498160618518829e+01 9.1583786139906120e+00 0 0 0
455 2 3.6914999999999996e+00 1.0656442593567499e+01 9.1583786139906120e+00 0 0 0