
# Create simulation box and atoms

read_data data.ML_graphite_1atm_240K
  orthogonal box = (0 0 2.08296) to (49.22 49.0196 25.7579)
  29 by 2 by 1 MPI processor grid
  reading atoms ...
  4065 atoms
  reading velocities ...
  4065 velocities
group water type 1
1305 atoms in group water
group graphite type 2
2760 atoms in group graphite

# Define potential

pair_style sw
pair_coeff * * MLC_e.sw mW C


# Fix graphite atoms in place

fix 5 graphite setforce 0.0 0.0 0.0
velocity graphite set 0.0 0.0 0.0


# Equilibration of molecular water

# Add velocity/set timestep

velocity	    water create ${TEMP} ${SEED} rot yes dist gaussian
velocity	    water create 240 ${SEED} rot yes dist gaussian
velocity	    water create 240 17249 rot yes dist gaussian
timestep	    5.0

# Define output

compute			1 water msd
compute			3 water temp
thermo	    	50
thermo_style	custom step temp press vol etotal ke pe c_1[4] c_3

# Neighbor lists

neigh_modify    delay 0 every 1 check yes

# Set fixes

fix             1 water momentum 10 linear 1 1 1 rescale
fix             2 water nve
fix             3 water temp/csvr ${TEMP} ${TEMP} 500.0 ${SEED}
fix             3 water temp/csvr 240 ${TEMP} 500.0 ${SEED}
fix             3 water temp/csvr 240 240 500.0 ${SEED}
fix             3 water temp/csvr 240 240 500.0 17249
fix             4 water press/berendsen z ${PRES} ${PRES} 1000.0 modulus 20000
fix             4 water press/berendsen z 1 ${PRES} 1000.0 modulus 20000
fix             4 water press/berendsen z 1 1 1000.0 modulus 20000

# Run 0.5 ns equilibration

dump		    1 all atom 2000 ${DIR}/eq.${NAME}-${TEMP}.dump
dump		    1 all atom 2000 run_8/eq.${NAME}-${TEMP}.dump
dump		    1 all atom 2000 run_8/eq.het_freeze_8-${TEMP}.dump
dump		    1 all atom 2000 run_8/eq.het_freeze_8-240.dump

reset_timestep  0

run	            100000
Neighbor list info ...
  update every 1 steps, delay 0 steps, check yes
  max neighbors/atom: 2000, page size: 100000
  master list distance cutoff = 6.67472
  ghost atom cutoff = 6.67472
  binsize = 3.33736, bins = 15 15 8
  1 neighbor lists, perpetual/occasional/extra = 1 0 0
  (1) pair sw, perpetual
      attributes: full, newton on
      pair build: full/bin/atomonly
      stencil: full/bin/3d
      bin: standard
WARNING: Proc sub-domain size < neighbor skin, could lead to lost atoms (../domain.cpp:937)
Per MPI rank memory allocation (min/avg/max) = 4.143 | 4.286 | 4.517 Mbytes
Step Temp Press Volume TotEng KinEng PotEng c_1[4] c_3 
       0    77.007874   -452.08497    57121.581   -12745.801    932.87431   -13678.675            0          240 
      50    76.808951   -921.23857    57126.565   -12754.758    930.46456   -13685.223   0.51506585    239.38004 
     100     75.73095    -730.1184    57126.296   -12776.813    917.40564   -13694.219   0.80659316    236.02038 
     150    76.475358    -447.0832    57134.087   -12793.067    926.42341    -13719.49    1.0109336    238.34038 
     200    75.718584   -370.52577    57169.567   -12765.476    917.25583   -13682.731     1.266635    235.98184 
     250    78.391793   -583.11978    57198.466   -12798.676    949.63912   -13748.316    1.4785788    244.31307 
     300     75.16253   -915.66148    57177.289   -12791.317    910.51979   -13701.837    1.7192382    234.24887 
     350    76.805914   -585.74693    57180.255   -12767.379    930.42777   -13697.807      1.90081    239.37058 
     400    78.891128   -529.97334    57223.481   -12769.204    955.68808   -13724.892    2.0644702    245.86928 
     450    76.212897   -294.91618     57226.07   -12786.707    923.24395    -13709.95    2.1888574     237.5224 
     500     75.41194   -666.74135    57219.752   -12818.286    913.54115   -13731.827    2.3264022    235.02617 
     550    77.784881   -683.04091    57191.653   -12789.558    942.28698   -13731.845    2.5629105    242.42159 
     600    76.475534   -345.81344    57180.071   -12788.075    926.42554     -13714.5    2.7711364    238.34093 
     650    74.905293   -387.12332    57174.823   -12801.464    907.40362   -13708.868    3.0168806    233.44717 
     700    77.082166   -727.31957    57137.564   -12808.053    933.77428   -13741.828    3.2239968    240.23153 
     750    76.971642   -524.49774    57094.564   -12742.625     932.4354    -13675.06    3.3916387    239.88708 
     800    78.474884   -440.57121    57098.602   -12739.116    950.64569   -13689.762    3.6553347    244.57203 
     850    74.961637    -370.1084    57106.702   -12778.944    908.08617    -13687.03     3.927245    233.62277 
     900    75.815364   -581.29087    57076.003    -12747.52    918.42823   -13665.948    4.2240086    236.28347 
     950    77.573643   -496.75489     57058.97   -12722.773    939.72804   -13662.501    4.4657191    241.76326 
    1000    77.513911   -693.09776    57055.693   -12756.132    939.00445   -13695.136    4.6862708     241.5771 
    1050    78.318022   -245.25847    57067.862   -12733.936    948.74546   -13682.681    4.9194764    244.08316 
    1100    76.879488   -563.10614    57113.895   -12724.011    931.31904    -13655.33    5.0082914    239.59988 
    1150    78.537838   -592.42662    57138.622   -12721.991    951.40831   -13673.399    5.1032686    244.76823 
    1200    78.962598   -664.08209    57179.117   -12732.657    956.55386   -13689.211    5.2720163    246.09202 
    1250    76.323363   -457.86681     57249.23   -12715.569    924.58214   -13640.151     5.575506    237.86668 
    1300    78.168345   -209.21902     57327.59   -12725.341    946.93227   -13672.274    5.7821964    243.61668 
    1350    77.866087    -631.0633    57383.863   -12744.826    943.27071   -13688.097    5.8772592    242.67468 
    1400    76.410129   -752.85851    57387.152   -12742.178    925.63323   -13667.811    5.8881045    238.13709 
    1450    75.979557   -623.64796    57419.615   -12769.487    920.41726   -13689.904    5.9755001    236.79518 
    1500    78.287123    -569.8446    57442.262   -12770.976    948.37116   -13719.347    6.2200777    243.98686 
    1550    75.637274   -509.81592    57460.107   -12781.265    916.27085   -13697.536    6.5340213    235.72844 
    1600    75.727072   -421.07539    57532.374   -12774.672    917.35866   -13692.031    6.8806111     236.0083 
    1650    78.977627   -197.61374    57616.612   -12753.789    956.73592   -13710.525    7.0699969    246.13886 
    1700    79.211887   -111.06488     57664.51   -12761.165    959.57376   -13720.738     7.255005    246.86895 
    1750    79.632472   -563.42886    57660.608   -12746.005    964.66872   -13710.673    7.4568382    248.17973 
    1800       76.387   -519.07709    57620.815   -12750.355    925.35304   -13675.708    7.7276611    238.06501 
    1850     79.31384   -178.63791    57692.606   -12740.841    960.80882    -13701.65    7.9688926    247.18669 
    1900    74.287046     -754.162    57716.411   -12772.675    899.91418   -13672.589    8.0588291    231.52037 
    1950    78.101306   -916.68258    57714.556   -12751.765    946.12016   -13697.885    8.1545885    243.40775 
    2000    76.553702   -371.02616    57757.105   -12758.199    927.37247   -13685.572    8.2135532    238.58454 
    2050    75.089414   -570.19657    57715.661   -12784.993    909.63406   -13694.627     8.308767    234.02099 
    2100    78.191102    -325.8344    57702.789   -12757.417    947.20796   -13704.625    8.4191489    243.68761 
    2150    79.537345   -361.87497    57757.599   -12731.477    963.51636   -13694.993     8.631108    247.88326 
    2200    76.218933   -509.35017    57798.493   -12748.337    923.31708   -13671.654     8.862922    237.54122 
    2250    77.649971   -337.08373    57805.244   -12760.734    940.65268   -13701.387    9.1347851    242.00114 
    2300    77.062265    -450.5854    57806.379   -12761.274     933.5332   -13694.807    9.2601638    240.16951 
    2350     77.07075   -441.59946    57814.643   -12746.453      933.636   -13680.089    9.4403558    240.19596 
    2400    76.365693   -414.89235    57780.089   -12762.866    925.09492   -13687.961    9.5783719     237.9986 
    2450    75.159242   -748.88125    57796.922   -12768.383    910.47996   -13678.863    9.8109206    234.23862 
    2500    78.945158   -473.13531    57776.772   -12735.929     956.3426   -13692.271    9.8304228    246.03767 
    2550    77.800388   -542.07992    57786.012   -12753.357    942.47483   -13695.832    9.9824414    242.46992 
    2600    80.389693   -237.07815    57803.775   -12726.346    973.84171   -13700.188    10.269653    250.53966 
    2650    79.494375   -455.00775    57806.423   -12722.633    962.99582   -13685.629    10.367082    247.74934 
    2700    76.968711    -664.0913    57803.704    -12723.61     932.3999    -13656.01    10.727403    239.87795 
    2750    75.889263   -617.72974    57785.531   -12731.247    919.32345    -13650.57    11.038372    236.51378 
    2800    74.666668   -278.45282     57749.21   -12763.576    904.51291   -13668.089    11.008468    232.70348 
    2850    74.783472   -252.05958    57741.162   -12776.562    905.92789    -13682.49    11.163623    233.06751 
    2900    76.227634    -477.3899    57706.359   -12786.244    923.42248   -13709.666    11.248868    237.56833 
    2950    75.103845   -274.20312    57757.427    -12795.03    909.80888   -13704.839    11.524456    234.06597 
    3000    76.551826   -144.39908    57711.622   -12791.819    927.34974   -13719.169    11.724045     238.5787 
    3050    75.955516   -583.39535    57728.307   -12771.263    920.12603   -13691.389    11.915979    236.72026 
    3100    75.191888   -688.02333    57766.595   -12769.233    910.87544   -13680.108    12.112677    234.34036 
    3150     76.60933   -734.24707    57784.768   -12771.832    928.04635   -13699.878    12.333365    238.75791 
    3200    77.071582   -909.40264     57805.54   -12779.613    933.64607   -13713.259    12.507679    240.19855 
    3250    76.993646   -539.06321    57811.156   -12758.648    932.70196    -13691.35    12.620013    239.95566 
    3300    78.520143   -637.40681    57786.534   -12756.636    951.19396    -13707.83    12.865164    244.71308 
    3350     76.45689    -754.2531    57810.034   -12776.698    926.19969   -13702.898    13.018781    238.28282 
    3400    76.054059   -575.94443    57886.298   -12756.494    921.31978   -13677.814    13.324562    237.02737 
    3450    75.750607   -822.46458    57967.239   -12754.651    917.64376   -13672.294    13.545943    236.08165 
    3500    74.954061   -467.96561    57997.304   -12752.213     907.9944   -13660.207    13.806508    233.59916 
    3550    76.745009   -717.41543    58038.307   -12731.862    929.68996   -13661.552    14.026417    239.18076 
    3600    76.120615   -750.51011    58039.589   -12742.543    922.12605   -13664.669     14.08395     237.2348 
    3650    76.944212   -957.62322    58006.275   -12754.755    932.10311   -13686.858    14.267506    239.80159 
    3700    74.435759   -1048.5093    57955.429   -12758.005    901.71569   -13659.721    14.515735    231.98384 
    3750    76.182449   -1209.3161    57940.182   -12747.365     922.8751    -13670.24    14.753228    237.42751 
    3800    78.124923   -980.46575    57906.558   -12728.493    946.40625     -13674.9    15.008002    243.48135 
    3850     77.17056   -1060.6724    57858.111   -12732.828    934.84509   -13667.674    15.196171    240.50702 
    3900    74.729785   -644.38409    57863.972   -12738.145    905.27752   -13643.422    15.413627    232.90019 
    3950    76.918101   -774.95127    57817.681   -12715.653     931.7868    -13647.44    15.644553    239.72022 
    4000    76.403227   -1001.1465    57812.624   -12719.894    925.54961   -13645.444    15.577045    238.11558 
    4050    77.938737   -795.61258    57770.164   -12725.262    944.15079   -13669.413     15.57184    242.90109 
    4100    76.213347   -682.35852    57766.822   -12685.657     923.2494   -13608.906    15.824643     237.5238 
    4150    75.683636   -515.01508     57775.12    -12725.24    916.83248   -13642.072    16.036446    235.87293 
    4200    75.460304   -1089.0846    57814.458   -12741.188    914.12703   -13655.315      15.9134     235.1769 
    4250    75.581422   -937.40952    57785.953   -12746.113    915.59425   -13661.708    15.957303    235.55437 
    4300    73.858725   -680.53389    57693.965   -12733.481    894.72549   -13628.206    16.172779    230.18547 
    4350     77.77081    -808.4514    57705.129   -12696.287    942.11652   -13638.404    16.464667    242.37774 
    4400    77.905751   -574.74286    57646.678   -12713.475     943.7512   -13657.226    16.652534    242.79829 
    4450     76.24746   -317.63546     57681.71   -12736.602    923.66264   -13660.265    16.807476    237.63012 
    4500    76.135844   -647.56663    57685.189   -12750.288    922.31053   -13672.599    16.874248    237.28226 
    4550    73.231874   -627.99991    57666.072   -12782.458     887.1318    -13669.59    16.891181    228.23185 
    4600    75.621456   -546.82333    57641.001   -12751.957    916.07923   -13668.037    16.973108    235.67914 
    4650    76.332484   -916.33985    57604.519   -12757.447    924.69263    -13682.14    17.017239     237.8951 
    4700    77.573816   -519.45844    57584.338    -12741.44    939.73014    -13681.17    17.217939    241.76379 
    4750    75.337672   -836.23959    57583.736   -12759.283    912.64147   -13671.925    17.372415    234.79471 
    4800    75.939731   -845.23781    57570.653   -12739.783    919.93481   -13659.718    17.661266    236.67106 
    4850    75.317169   -714.98065    57592.632   -12755.319     912.3931   -13667.712    17.910024    234.73081 
    4900    75.506212   -960.44492    57534.934   -12753.275    914.68316   -13667.958    18.063631    235.31997 
    4950    75.377987   -291.66326    57475.179   -12722.844    913.12984   -13635.974    18.537129    234.92035 
    5000    76.524846   -328.13414    57497.724   -12699.615     927.0229   -13626.637    18.845443    238.49461 
    5050    80.181608    -1122.098    57502.369   -12695.749    971.32096    -13667.07    18.990395    249.89114 
    5100    74.614588   -506.63649    57504.331   -12712.389    903.88201   -13616.271    19.394078    232.54117 
    5150    77.429794   -711.43588    57517.901   -12713.625    937.98546   -13651.611    19.698873    241.31494 
    5200    80.780739   -309.71891    57494.671   -12704.155    978.57885   -13682.734     19.95513    251.75838 
    5250    80.118525   -754.74918    57451.838    -12721.96    970.55677   -13692.517    20.021304    249.69454 
    5300    77.797239   -834.63051    57406.575   -12727.399    942.43669   -13669.835    20.385594    242.46011 
    5350    77.982287    -358.9899    57429.477   -12729.493    944.67837   -13674.172    20.667016    243.03682 
    5400    76.861575   -814.13047    57418.653   -12718.225    931.10205   -13649.327    20.725113    239.54405 
    5450    78.833267     -691.362    57427.425   -12708.242    954.98714    -13663.23    20.767832    245.68895 
    5500    78.607415   -816.87972    57441.633   -12729.997    952.25117   -13682.248    21.056818    244.98507 
    5550     77.01091   -681.84706    57478.084   -12733.927     932.9111   -13666.838    21.404373    240.00946 
    5600    79.190041   -271.77681    57505.948   -12711.258    959.30911   -13670.567    21.713888    246.80086 
    5650    80.469986   -783.86304    57535.583   -12714.027    974.81438   -13688.842    21.845721    250.78989 
    5700    76.042164   -344.65281    57543.669   -12715.389    921.17569   -13636.565    21.971266     236.9903 
    5750      78.6281   -593.78441    57521.971   -12749.791    952.50175   -13702.293    22.210925    245.04954 
    5800    78.070016   -534.42843    57508.874   -12732.235    945.74111   -13677.976    22.515886    243.31023 
    5850    75.900671   -697.80514    57545.856   -12754.123    919.46165   -13673.585    22.829495    236.54933 
    5900    77.997367   -593.35371    57548.756   -12770.039    944.86104     -13714.9    22.854327    243.08382 
    5950    78.072697   -501.90675    57563.678   -12753.706     945.7736   -13699.479    23.078361    243.31859 
    6000    75.608549   -516.28125    57610.087   -12774.937    915.92288    -13690.86    23.376608    235.63891 
    6050    77.841984   -733.61507    57586.591   -12776.682    942.97873    -13719.66     23.45912    242.59956 
    6100    75.434247   -178.07212    57572.568   -12785.852    913.81138   -13699.663    23.783707    235.09569 
    6150     75.61962   -342.33065    57597.688   -12802.975    916.05699   -13719.032    24.107386    235.67342 
    6200    75.450592   -305.99908    57622.518   -12789.412    914.00938   -13703.422    24.305355    235.14663 
    6250    72.904375   -543.05693    57596.989   -12803.273    883.16447   -13686.438    24.420802    227.21118 
    6300    74.220735   -488.49656    57629.971   -12790.324    899.11088   -13689.435    24.805055     231.3137 
    6350    74.962683   -253.14816    57680.441    -12761.33    908.09884   -13669.429    24.987211    233.62603 
    6400    78.524773   -354.23211    57726.375   -12719.371    951.25005   -13670.621    25.115136    244.72751 
    6450    76.683249   -256.82366      57789.9   -12756.441     928.9418   -13685.383    25.537646    238.98828 
    6500    76.028316   -234.75801     57827.54   -12768.956    921.00794   -13689.964    25.510466    236.94715 
    6550    74.303344   -456.95109    57867.865    -12772.68     900.1116   -13672.792    25.807311    231.57116 
    6600    74.533329   -668.82039    57883.721   -12757.407    902.89764   -13660.304    26.212393    232.28792 
    6650    74.187826   -593.21083    57885.023   -12770.384    898.71222   -13669.096     26.45453    231.21114 
    6700    76.137555   -640.55622    57884.864   -12746.849    922.33126    -13669.18    26.820238     237.2876 
    6750     75.09046   -481.25277    57860.698   -12750.627    909.64674   -13660.273    27.137253    234.02426 
    6800    77.441704   -525.84537    57866.877    -12724.62    938.12973    -13662.75    27.373019    241.35206 
    6850    77.883651   -388.16709    57948.477   -12717.556    943.48349    -13661.04    27.413797    242.72942 
    6900    77.233534    -545.2884    57951.598   -12709.307    935.60797   -13644.915    27.521342    240.70329 
    6950    80.840431   -678.88886     57909.76   -12700.793    979.30196   -13680.095    27.494435    251.94441 
    7000    74.159764   -823.55363    57882.704   -12730.976    898.37227   -13629.348    27.994422    231.12368 
    7050    79.100896   -557.09156    57885.326   -12693.584    958.22921   -13651.813    28.595916    246.52304 
    7100    79.488328   -921.89485    57907.304   -12669.159    962.92257   -13632.082    28.950731     247.7305 
    7150    77.427504     -418.138    57871.342   -12692.155    937.95772   -13630.112    29.414349    241.30781 
    7200    75.846427   -653.86679    57900.334   -12722.625    918.80452   -13641.429    29.906589    236.38027 
    7250     75.75975   -662.70141    57902.543   -12721.303    917.75452   -13639.057    30.534569    236.11014 
    7300    78.146027   -656.31571    57896.201   -12754.761    946.66191   -13701.423    31.000381    243.54713 
    7350    76.416634   -577.17988    57867.749   -12747.351    925.71202   -13673.063    31.359531    238.15736 
    7400    75.911033   -962.50492     57751.48   -12765.176    919.58717   -13684.763    31.655129    236.58162 
    7450    77.997087   -771.72191      57721.8   -12742.902    944.85765   -13687.759    32.053284    243.08295 
    7500    77.153313   -960.38897    57700.137   -12750.881    934.63616   -13685.517    32.356474    240.45327 
    7550    75.389833   -414.16244    57725.904   -12773.918    913.27335   -13687.191    32.511919    234.95727 
    7600    79.368367   -931.45258    57702.336     -12754.3    961.46936    -13715.77    32.961378    247.35663 
    7650    74.336327   -588.44866    57667.883   -12773.565    900.51116   -13674.076     33.16827    231.67395 
    7700    77.456286   -459.19613    57660.588   -12767.004    938.30638   -13705.311    33.341172    241.39751 
    7750    77.555662   -484.16014     57653.11   -12755.079    939.51023    -13694.59    33.617944    241.70722 
    7800    75.485966   -969.64167    57634.175   -12770.959    914.43791   -13685.397    34.226752    235.25688 
    7850    75.709139   -865.89733    57620.303   -12796.817    917.14142   -13713.958    34.617477    235.95241 
    7900    77.834677    -905.9286    57550.156   -12785.389    942.89021   -13728.279    34.457926    242.57678 
    7950    75.279281   -725.83239    57489.962   -12856.197    911.93412   -13768.131    34.509278    234.61273 
    8000    74.299974    -563.1556    57494.247   -12816.064    900.07079   -13716.135    34.738929    231.56066 
    8050    75.669102   -467.94777     57473.85    -12815.41    916.65642   -13732.066    35.085286    235.82763 
    8100    75.953533   -632.68744    57485.804   -12803.833    920.10201   -13723.935    35.351045    236.71408 
    8150    77.262649   -339.29831    57456.392   -12799.043    935.96066   -13735.003    35.387557    240.79402 
    8200    76.597312   -500.84138    57464.086   -12769.089    927.90076    -13696.99    35.608712    238.72046 
    8250    77.816503   -511.49741    57520.608   -12740.288    942.67006   -13682.958    35.565675    242.52015 
    8300    78.544306   -217.48347    57555.906   -12715.095    951.48667   -13666.581    35.801707    244.78839 
    8350    80.034257   -621.58083    57627.127   -12703.936    969.53595   -13673.472    36.003685    249.43192 
    8400    80.252945   -1181.5177    57595.032   -12702.202    972.18515   -13674.387    35.948567    250.11347 
    8450    78.618433   -860.17466    57538.388   -12714.487    952.38464   -13666.872    36.502811    245.01941 
    8500    77.572936   -359.63285    57474.749   -12729.342    939.71948   -13669.061    36.381951    241.76105 
    8550    77.861593   -1049.4509    57434.692   -12742.056    943.21628   -13685.273    36.253656    242.66067 
    8600    77.116251   -878.44776     57449.41   -12744.843    934.18719    -13679.03     36.33751    240.33776 
    8650     76.84202   -454.08734     57472.36   -12737.525    930.86516    -13668.39    36.294805    239.48311 
    8700    81.511296   -326.57337    57464.566   -12719.117    987.42882   -13706.545    36.358461     254.0352 
    8750    78.914296    -546.1117    57522.475   -12709.273    955.96873   -13665.241    36.413997    245.94149 
    8800    79.877905   -437.95758    57542.629   -12684.948     967.6419    -13652.59     36.56613    248.94464 
    8850    81.151959   -959.09975    57626.099   -12690.328    983.07581   -13673.404    36.651976    252.91531 
    8900    76.894447    -379.4833    57639.747   -12694.271    931.50026   -13625.771    36.759953     239.6465 
    8950     78.15914   -1073.7842    57637.127   -12719.188    946.82077   -13666.009    36.832131      243.588 
    9000    77.284298   -474.94914    57626.554    -12714.62    936.22292   -13650.843    36.878024    240.86149 
    9050    79.460021   -663.44222    57603.939   -12760.628    962.57965   -13723.208    36.845946    247.64227 
    9100    74.796252   -470.85234    57634.789   -12732.108     906.0827    -13638.19    36.931468    233.10734 
    9150    74.329875   -920.29415    57698.138   -12751.919      900.433   -13652.352    36.945935    231.65384 
    9200    74.776538   -783.06355    57691.456   -12757.513    905.84389   -13663.357     37.15952     233.0459 
    9250    78.684733   -632.53836     57688.96   -12742.998     953.1878   -13696.186    37.447464    245.22604 
    9300    78.032545   -455.99684    57721.731   -12707.521    945.28719   -13652.808    37.728863    243.19345 
    9350    76.937647   -345.60186    57737.878    -12715.32    932.02359   -13647.343    37.933332    239.78113 
    9400    77.226547   -558.32451    57729.836   -12735.484    935.52331   -13671.007    38.162734    240.68151 
    9450    77.015115   -650.62812    57743.242   -12697.737    932.96203   -13630.699    38.276336    240.02257 
    9500    77.401149   -925.91862    57740.192    -12712.46    937.63845   -13650.098    38.060802    241.22567 
    9550     77.88038   -940.31452    57706.142   -12719.612    943.44387   -13663.056    38.361272    242.71922 
    9600    76.722092   -683.06025    57706.909   -12729.049    929.41235   -13658.461    38.662215    239.10934 
    9650     78.02652   -391.48368     57738.73   -12727.248    945.21421   -13672.462    38.915039    243.17468 
    9700      76.0238    -484.3563    57776.876   -12712.462    920.95323   -13633.415    39.170122    236.93307 
    9750    78.035929   -1018.7194    57774.047   -12705.051    945.32819   -13650.379    39.776419      243.204 
    9800    77.509733   -114.63509    57795.092   -12697.597    938.95385   -13636.551    40.286609    241.56408 
    9850    76.927464   -950.11441    57850.031   -12730.874    931.90022   -13662.774    40.972237     239.7494 
    9900    74.870621   -82.026036     57866.05   -12754.528    906.98361   -13661.512    41.582191    233.33911 
    9950    76.007048   -702.80179    57860.847   -12738.551    920.75029   -13659.301    41.832329    236.88086 
   10000    80.786442   -970.95852    57864.603   -12705.929    978.64794   -13684.577    41.918181    251.77615 
   10050    76.072473   -785.50759    57855.472   -12751.329    921.54286   -13672.872    42.078688    237.08476 
   10100     77.13835   -611.72665    57867.073   -12731.995    934.45491    -13666.45    42.227374    240.40664 
   10150    77.669649   -627.29046    57847.453   -12732.906    940.89107   -13673.797    42.517437    242.06247 
   10200    77.373142   -731.28804     57880.84   -12754.944    937.29918   -13692.243     42.47715    241.13838 
   10250     73.05024   -811.16922     57863.09   -12803.263    884.93149   -13688.195    42.661729    227.66578 
   10300    77.441088   -1117.0297    57846.668   -12765.884    938.12227   -13704.006    42.974161    241.35014 
   10350    78.054263   -794.80696    57831.406   -12751.808    945.55028   -13697.359     43.27321    243.26114 
   10400    75.494156   -691.76588    57826.041   -12793.779    914.53711   -13708.316    43.801751     235.2824 
   10450    76.439409   -779.44949    57776.038   -12769.796    925.98792   -13695.784    44.008876    238.22834 
   10500    78.850015   -647.13749    57791.037   -12762.485    955.19003   -13717.675    44.343335    245.74115 
   10550    73.961312   -949.04198    57794.517   -12754.405    895.96822   -13650.374     44.77406    230.50519 
   10600     77.78623   -558.20537    57801.156   -12786.582    942.30333   -13728.885    44.842646     242.4258 
   10650    75.609835   -854.95495    57747.894   -12803.516    915.93845   -13719.454    45.247973    235.64292 
   10700    77.749685   -643.78294    57737.441   -12787.152    941.86063   -13729.013    45.481205     242.3119 
   10750    73.818304   -674.50521    57713.033   -12821.739    894.23582   -13715.975    46.217692     230.0595 
   10800    75.867143   -624.37595    57657.034   -12813.515    919.05549   -13732.571    46.653157    236.44484 
   10850    74.132932   -539.13251     57674.74   -12833.965    898.04723   -13732.012    47.302182    231.04006 
   10900    74.252838   -907.48179    57664.472   -12831.909    899.49977   -13731.408    47.912242    231.41375 
   10950    76.096357   -286.83265     57680.01   -12794.339    921.83218   -13716.171    48.443431     237.1592 
   11000    75.771692   -359.32777    57702.106    -12812.22    917.89919   -13730.119    48.782678    236.14736 
   11050    75.349039   -446.92992    57782.455   -12837.866    912.77916   -13750.645     49.23125    234.83013 
   11100    78.445879   -673.27148    57840.123   -12805.723    950.29432   -13756.017    49.285752    244.48164 
   11150    75.740787   -836.73173    57871.956   -12767.762    917.52481   -13685.286    49.402378    236.05104 
   11200     75.85425   -485.32629    57928.505   -12754.808     918.8993   -13673.707    49.834453    236.40466 
   11250    75.523894   -491.65822    57949.836   -12786.994    914.89737   -13701.891    50.138541    235.37508 
   11300    73.615978   -980.31283    57927.093   -12774.476    891.78484   -13666.261    50.139591    229.42894 
   11350    79.093548   -426.68458    57923.066   -12739.616    958.14019   -13697.756    50.590862    246.50014 
   11400    78.713298   -875.94951    57923.657   -12709.258    953.53384   -13662.791    50.738426    245.31506 
   11450    79.297272   -521.36383    57906.085   -12704.593    960.60811   -13665.201    50.874631    247.13506 
   11500    78.646875   -809.76415    57884.806   -12722.312    952.72919   -13675.041    50.853241    245.10805 
   11550    79.068306   -907.23018     57833.11   -12772.248    957.83441   -13730.083    51.112787    246.42147 
   11600    74.462209   -719.41294    57817.572   -12780.878     902.0361   -13682.914    51.132722    232.06627 
   11650    77.310246   -1120.6925    57826.408   -12748.073    936.53725    -13684.61    51.400218    240.94236 
   11700    80.470654   -719.51131     57815.15   -12723.094    974.82247   -13697.916    51.444338    250.79198 
   11750    77.821328    -476.7204    57773.453   -12722.945     942.7285   -13665.674    51.691312    242.53518 
   11800    78.952704     -496.762    57779.932   -12754.397    956.43401   -13710.831    52.180741    246.06119 
   11850    77.799043   -536.16416    57830.335   -12788.236    942.45855   -13730.695    52.387348    242.46573 
   11900    77.373994    -386.9178    57875.785   -12797.193     937.3095   -13734.503    52.593393    241.14104 
   11950    77.821198   -109.39723    57927.495   -12788.617    942.72693   -13731.344    52.926425    242.53478 
   12000    74.866578   -341.98726      57930.1   -12835.011    906.93463   -13741.946    52.918717    233.32651 
   12050    75.053646   -457.41479    57885.119   -12824.307    909.20077   -13733.508    53.223208    233.90952 
   12100    75.983242   -296.58537    57868.638   -12849.742    920.46191   -13770.204    53.507125    236.80667 
   12150     76.97319   -646.22256    57848.677   -12852.515    932.45415    -13784.97    53.837699     239.8919 
   12200    79.383719   -763.82317    57831.998   -12836.881    961.65533   -13798.536    54.273925    247.40447 
   12250    76.607113   -872.78786    57832.785   -12808.023    928.01949   -13736.042    54.622658      238.751 
   12300    77.840603   -562.21328    57821.579   -12813.186    942.96201   -13756.148    55.113589    242.59525 
   12350    74.642817   -619.37673    57807.594   -12800.526    904.22398    -13704.75    55.486279    232.62915 
   12400    75.977606   -703.29227    57767.979   -12802.635    920.39363   -13723.028    55.638858     236.7891 
   12450    75.334767     -711.201    57725.237   -12821.647    912.60627   -13734.253    55.786264    234.78565 
   12500    74.355552   -649.40303    57786.863   -12828.432    900.74405   -13729.177    55.885226    231.73387 
   12550    73.724577   -479.03979    57802.137   -12838.849    893.10041   -13731.949    56.097899    229.76739 
   12600    77.362788    -494.9065    57809.034   -12801.077    937.17375   -13738.251    56.168433    241.10611 
   12650    78.795809   -617.08316    57850.326    -12781.06    954.53338   -13735.594    56.287049    245.57221 
   12700    77.512772    -610.5774    57918.704   -12800.444    938.99065   -13739.435    56.382136    241.57355 
   12750    77.365796   -478.80758    57947.984   -12793.088    937.21019   -13730.298    56.857583    241.11549 
   12800    77.562109   -1011.7441    57906.365   -12755.857    939.58832   -13695.445    57.037372    241.72731 
   12850     76.11932   -1041.7386    57887.151   -12787.626    922.11035   -13709.736    57.180796    237.23076 
   12900    78.400539   -664.75668    57879.803   -12777.833    949.74508   -13727.578    57.493525    244.34033 
   12950    75.926101   -635.12173    57895.545   -12774.416    919.76971   -13694.186    57.832769    236.62859 
   13000    77.517861    -1022.907    57875.314   -12772.666    939.05231   -13711.719    58.105675    241.58941 
   13050    78.808737    -381.2488     57914.38   -12739.887    954.68998   -13694.577    58.479522     245.6125 
   13100    77.257003   -452.82425    57921.778   -12737.614    935.89226   -13673.506    58.643617    240.77642 
   13150    76.923929   -323.59359    57948.852   -12771.358    931.85741   -13703.216    58.670436    239.73838 
   13200    77.797843   -660.06391    57931.673   -12754.525      942.444   -13696.969    58.847423    242.46199 
   13250    76.068501   -782.55471    57891.386   -12746.277    921.49474   -13667.772     58.82645    237.07238 
   13300    76.015913    -588.4676    57842.955   -12782.774    920.85768   -13703.631    58.574459    236.90849 
   13350    80.907146   -571.57932    57817.913   -12799.327    980.11014   -13779.437    58.778896    252.15233 
   13400    75.246223   -740.37398    57797.161    -12820.46    911.53365   -13731.993     58.86417     234.5097 
   13450    74.775051   -770.43826    57807.567   -12817.488    905.82587   -13723.314    58.978239    233.04126 
   13500    76.018974    -534.7439    57788.292   -12796.524    920.89477   -13717.419    59.056589    236.91803 
   13550    78.133348   -585.93256    57739.553   -12794.879    946.50832   -13741.387      59.1928    243.50761 
   13600     78.07723   -644.10923    57760.136   -12793.953    945.82851   -13739.782    59.482304    243.33272 
   13650    77.093224   -702.39729    57849.996   -12790.003    933.90824   -13723.911    59.570207      240.266 
   13700    77.688986   -363.23241     57949.03   -12769.943    941.12531   -13711.068     59.98957    242.12273 
   13750    75.968678   -192.19636    57934.214   -12794.735    920.28548   -13715.021    60.239718    236.76128 
   13800    75.880677   -696.53109     57886.15   -12798.177    919.21943   -13717.396    60.721206    236.48702 
   13850    78.889659   -858.00657    57843.301   -12795.016    955.67028   -13750.686     61.23092     245.8647 
   13900    76.807899   -828.97861    57827.231   -12794.875    930.45181   -13725.327     61.45029    239.37676 
   13950    76.888085   -805.43668    57814.928   -12797.035    931.42319   -13728.459    61.513751    239.62667 
   14000    74.837448   -958.90003    57771.592   -12827.904    906.58174   -13734.486    61.504501    233.23573 
   14050    72.465023   -346.17533     57767.43   -12819.214    877.84216   -13697.056    61.333943    225.84191 
   14100    77.440691    -357.0067    57777.769    -12817.31    938.11746   -13755.427    61.846038     241.3489 
   14150    76.143522    -653.0148    57707.868   -12818.859    922.40354   -13741.263    62.289228    237.30619 
   14200    71.926646   -723.08352    57626.631   -12851.512    871.32025   -13722.832    62.244999    224.16402 
   14250    77.415063   -600.04748    57600.507   -12823.601      937.807   -13761.408    62.268225    241.26903 
   14300    76.516531   -357.66158    57643.983     -12829.1    926.92218   -13756.022     62.23417     238.4687 
   14350    76.704453   -559.69938    57720.598   -12808.577    929.19867   -13737.776    62.422319    239.05437 
   14400    75.040307   -536.39043    57799.804   -12831.812    909.03919   -13740.851    62.197567    233.86795 
   14450    76.473759   -735.70402    57836.039   -12840.872    926.40403   -13767.276    61.999855    238.33539 
   14500    75.561453   -492.30392    57874.746   -12836.885    915.35236   -13752.237    61.964042    235.49214 
   14550    75.548235   -1040.5248    57906.229   -12795.915    915.19223   -13711.107    61.679296    235.45094 
   14600    75.347686   -671.22456    57917.858   -12764.822    912.76277   -13677.584    61.813035    234.82592 
   14650    79.552351   -966.51591    57908.426   -12765.484    963.69814   -13729.182    61.920791    247.93003 
   14700    74.456958   -321.96735    57912.066   -12793.454    901.97248   -13695.427    61.728675     232.0499 
   14750    77.901695    -483.6682    57964.522   -12741.221    943.70207   -13684.923    62.172967    242.78565 
   14800    78.224066   -500.38125    57938.687   -12732.279    947.60728   -13679.886    62.272449    243.79034 
   14850    79.257746   -1200.4008    57846.962   -12743.917    960.12929   -13704.046    62.419839    247.01187 
   14900    77.912243    -306.6869    57828.099   -12728.901    943.82985    -13672.73    62.829128    242.81852 
   14950    78.094206   -425.29768    57831.635    -12735.44    946.03416   -13681.474    63.369235    243.38562 
   15000    78.383319   -895.00613    57886.025   -12761.404    949.53647    -13710.94    63.809272    244.28666 
   15050    75.826014   -979.84313     57841.13   -12781.344    918.55725   -13699.902    64.200884    236.31666 
   15100    77.507761    -576.7309    57843.733   -12775.702    938.92995   -13714.632    64.333232    241.55793 
   15150    77.543558     -713.242    57825.028    -12763.95    939.36359   -13703.314    64.308489    241.66949 
   15200    78.779156   -937.55608    57793.277    -12779.05    954.33165   -13733.381    64.464548    245.52032 
   15250    76.646384   -841.34902    57744.139   -12799.765    928.49521    -13728.26    64.277916    238.87339 
   15300    76.138602   -550.13027    57729.155   -12819.933    922.34394   -13742.277     64.56734    237.29086 
   15350    75.723438   -350.74542    57687.006   -12782.923    917.31464   -13700.238    64.511143    235.99697 
   15400    76.383385    -633.0511    57724.497   -12778.703    925.30924   -13704.012    65.019867    238.05374 
   15450    77.799186   -619.42426    57767.092   -12763.234    942.46028   -13705.694    65.252553    242.46618 
   15500    77.846281   -549.32606    57797.162   -12766.508    943.03078   -13709.538    65.111784    242.61295 
   15550    78.792649   -678.95653     57797.81   -12754.062     954.4951   -13708.557    64.797559    245.56237 
   15600    75.308048   -780.32009    57813.978   -12727.342     912.2826   -13639.625    64.772059    234.70238 
   15650    76.196203   -476.10557    57802.024   -12752.042    923.04172   -13675.083    64.966773    237.47037 
   15700     78.94578   -580.58333     57824.31    -12763.39    956.35012    -13719.74    64.648176    246.03961 
   15750     75.97812   -838.77927    57819.137   -12755.174    920.39986   -13675.573    64.774231    236.79071 
   15800     76.61389   -780.26024    57780.349   -12765.998    928.10158     -13694.1    64.766084    238.77212 
   15850    76.445335   -233.14201    57720.312   -12771.009    926.05971   -13697.069    64.827053    238.24681 
   15900    80.667662   -543.48651    57733.252   -12742.795    977.20903   -13720.004    65.172914    251.40596 
   15950    77.789319   -461.42877    57833.368   -12731.836    942.34075   -13674.177    65.723062    242.43542 
   16000    78.456221   -900.09073    57829.424   -12775.367    950.41961   -13725.786    66.614368    244.51387 
   16050    79.803784   -213.62037    57817.039   -12759.944      966.744   -13726.688    66.905245    248.71363 
   16100    77.534279   -399.06924    57817.126   -12778.408    939.25119   -13717.659     67.31886    241.64058 
   16150    77.771486   -738.05733    57822.446   -12742.228    942.12472   -13684.353    67.631786    242.37985 
   16200    75.730449   -278.49048    57906.675   -12746.261    917.39957   -13663.661    67.946727    236.01882 
   16250    80.340151   -898.93493    57891.331   -12762.172    973.24156   -13735.414    67.866205    250.38526 
   16300    75.483567     -759.825    57884.348   -12773.519    914.40884   -13687.928    67.739722     235.2494 
   16350    77.168067   -474.59299    57866.417   -12760.811    934.81489   -13695.625    67.671342    240.49925 
   16400    77.700544   -285.37629     57915.61   -12713.595    941.26533   -13654.861    67.853249    242.15875 
   16450    76.073283    36.529325    57963.657    -12707.07    921.55267   -13628.623    68.012857    237.08729 
   16500    81.634561   -425.58343    58006.319   -12697.255    988.92205   -13686.177    68.415832    254.41937 
   16550    79.214789   -354.72546    58045.251   -12707.454    959.60891   -13667.063    68.440546    246.87799 
   16600    79.519492   -431.01435    58055.474   -12741.173    963.30008   -13704.473    68.840217    247.82762 
   16650    78.968104   -567.33488    58064.359   -12758.042    956.62056   -13714.663    69.181966    246.10918 
   16700    78.285676     -459.193    58093.212   -12736.644    948.35362   -13684.998    69.458184    243.98235 
   16750    78.729923   -470.69359    58105.032   -12726.034    953.73523   -13679.769    69.462889    245.36688 
   16800    78.134524   -447.39791    58104.827   -12737.319    946.52256   -13683.842    69.769726    243.51128 
   16850    77.775701   -861.07249    58087.498   -12728.776    942.17577   -13670.952    70.289545    242.39298 
   16900    77.555731   -340.10938    58059.599   -12722.765    939.51106   -13662.276    70.460483    241.70743 
   16950     77.32629   -167.53987    58058.726   -12754.747    936.73161   -13691.478    70.877637    240.99236 
   17000    77.247659   -368.59149    58080.616    -12764.24    935.77908   -13700.019    71.532983    240.74731 
   17050    76.241952   -831.46735    58026.196   -12767.807    923.59592   -13691.403    71.931978    237.61295 
   17100    76.786074   -598.31094    58043.058   -12770.888    930.18742   -13701.075    71.931403    239.30875 
   17150     77.05565   -504.10337    58015.078   -12785.661    933.45308   -13719.114    72.207075     240.1489 
   17200    78.235808   -614.63925    57992.669   -12770.663    947.74952   -13718.412    72.368878    243.82694 
   17250    80.747538   -337.75761    58032.713   -12730.308    978.17665   -13708.485    72.452053     251.6549 
   17300    77.893998   -278.26327    58151.899   -12752.452    943.60883    -13696.06    72.738095    242.76166 
   17350    78.161946   -272.68439    58149.293   -12752.102    946.85476   -13698.957    73.165198    243.59674 
   17400    77.580679   -818.82711    58150.189   -12773.316    939.81328   -13713.129    73.146723    241.78518 
   17450    79.112027   -645.79387    58215.239   -12759.203    958.36405   -13717.567    73.463965    246.55773 
   17500    76.043736   -439.48292    58242.565   -12786.562    921.19473   -13707.757    73.484081     236.9952 
   17550    74.449356   -628.10336    58233.332   -12790.956    901.88039   -13692.836    73.255091    232.02621 
   17600    76.793884   -354.87004     58216.97   -12805.977    930.28203    -13736.26     73.20614    239.33308 
   17650     79.49676   -579.15071     58168.13   -12752.646     963.0247    -13715.67    73.203416    247.75677 
   17700    76.956542   -704.57794     58139.54   -12758.976    932.25247   -13691.228    73.294368    239.84002 
   17750    79.889204   -713.41906    58170.248   -12750.108    967.77878   -13717.887    73.500484    248.97985 
   17800    78.746597   -638.79939    58174.486   -12729.047    953.93722   -13682.984    73.458236    245.41884 
   17850    75.465623   -308.39337    58177.949   -12742.234    914.19147   -13656.425    73.601544    235.19348 
   17900    78.918375   -309.37652    58172.392   -12739.309    956.01814   -13695.327    73.613304     245.9542 
   17950    76.832093   -468.47505    58170.714   -12738.053     930.7449   -13668.798    73.837357    239.45217 
   18000    76.805481   -743.52155    58087.393   -12745.411    930.42252   -13675.834    73.665111    239.36923 
   18050    77.442422   -559.86011    58028.323   -12766.173    938.13843   -13704.311    73.953518     241.3543 
   18100    75.363212   -644.24067    57970.307   -12764.311    912.95086   -13677.262    74.476521    234.87431 
   18150    77.370062   -885.99157    57944.207   -12781.021    937.26187   -13718.283    74.269648    241.12878 
   18200    76.548118   -731.36342    57917.526   -12801.988    927.30483   -13729.293    74.571198    238.56714 
   18250    75.800249   -354.34363    57898.494    -12796.69    918.24513   -13714.936    74.477707    236.23636 
   18300    76.567102   -590.85017    57901.628   -12788.465     927.5348       -13716    74.597928    238.62631 
   18350    76.129989   -518.15942    57874.142   -12791.822     922.2396   -13714.062    74.795268    237.26401 
   18400    74.984366   -613.09854    57867.904   -12793.984    908.36151   -13702.346    75.071502    233.69361 
   18450    76.209362   -369.39988    57869.787   -12801.492    923.20113   -13724.693     75.28191    237.51139 
   18500     76.33118   -474.79361    57882.415   -12777.371    924.67684   -13702.047    75.426137    237.89104 
   18550    75.351946   -673.25969     57838.43   -12814.375    912.81438    -13727.19    75.419389    234.83919 
   18600    78.181826   -662.52508     57783.75   -12803.221    947.09558   -13750.317    75.384269     243.6587 
   18650    76.919115   -624.49549    57754.445   -12771.759    931.79908   -13703.558    75.671035    239.72338 
   18700    75.663087   -641.33061    57727.465     -12812.3    916.58355   -13728.883    75.950541    235.80889 
   18750     79.00652   -418.83571    57699.382   -12794.379    957.08594   -13751.465    75.988454    246.22891 
   18800    76.743181   -520.85255    57711.914   -12782.841    929.66781   -13712.509    76.761066    239.17507 
   18850    76.784549   -182.15874    57751.858   -12789.786    930.16895   -13719.955     77.14744    239.30399 
   18900    76.492825   -179.77937    57841.057   -12785.061      926.635   -13711.696    77.413381    238.39482 
   18950    76.215292    184.91196    57950.469   -12783.061    923.27296   -13706.334    77.534068    237.52987 
   19000    78.950432   -348.25931    58027.875   -12786.667    956.40648   -13743.073    77.718809    246.05411 
   19050    74.009294   -481.71309    58072.805   -12798.251    896.54947     -13694.8    77.962529    230.65473 
   19100    76.266307    -161.5522    58076.654   -12743.991    923.89096   -13667.881    78.168871    237.68886 
   19150      77.4963   -463.75245    58135.047   -12777.021    938.79111   -13715.812    78.294675    241.52221 
   19200    80.803912   -153.54856    58215.726   -12765.317    978.85956   -13744.177    78.529371     251.8306 
   19250    78.865473   -91.067463    58329.721   -12753.197    955.37728   -13708.574    79.090825    245.78933 
   19300    77.274237   -500.30365     58445.64   -12778.466    936.10104   -13714.567     79.60929    240.83014 
   19350    76.692479   -743.85201    58462.827   -12781.993    929.05362   -13711.047     79.84511    239.01705 
   19400    79.166807   -978.97881    58449.458   -12776.721    959.02765   -13735.749    79.763182    246.72845 
   19450    76.863084   -289.18154    58463.899   -12784.074    931.12032   -13715.195    79.817838    239.54875 
   19500    76.317342   -551.86158    58502.421   -12766.911     924.5092    -13691.42    79.910498    237.84791 
   19550    77.301592   -423.25784    58478.688   -12755.474    936.43242   -13691.907    80.133282    240.91539 
   19600    78.499973   -370.77299    58534.994   -12739.324    950.94962   -13690.274     80.20306    244.65022 
   19650     77.99009   -661.70815    58569.106   -12717.352    944.77289   -13662.125    80.438755    243.06114 
   19700    76.327828   -801.26464    58573.053   -12736.868    924.63623   -13661.504    80.401852    237.88059 
   19750    79.759746   -881.89485    58564.087   -12723.709    966.21052    -13689.92    79.788585    248.57639 
   19800    78.602356   -1040.2062    58516.526   -12708.632    952.18988   -13660.822     79.50038     244.9693 
   19850    78.819371   -676.93965    58499.665   -12726.151    954.81881    -13680.97    79.628945    245.64565 
   19900    76.392562   -860.17067     58479.84    -12762.46    925.42041    -13687.88    79.550064    238.08234 
   19950    76.528849   -944.25782     58442.41   -12741.694     927.0714   -13668.766    79.519997    238.50709 
   20000    77.601014   -959.01299    58461.183   -12756.957    940.05961   -13697.017    79.275672    241.84856 
   20050    78.333926   -962.06841    58493.713   -12782.965    948.93813   -13731.903     79.26924    244.13273 
   20100     78.49498   -862.78927    58440.283   -12796.798    950.88913   -13747.688    79.270573    244.63466 
   20150    75.572027   -1172.9653    58381.666   -12797.798    915.48045   -13713.279    79.161649    235.52509 
   20200    74.701343   -1145.2048    58343.492   -12804.694    904.93297   -13709.627    79.064656    232.81155 
   20250    76.558217   -916.08368    58266.529   -12775.097    927.42717   -13702.524    79.143696    238.59862 
   20300    78.598116    -785.4021    58264.195   -12755.643    952.13852   -13707.781    79.063408    244.95609 
   20350    75.860891   -502.78869    58208.222   -12728.514    918.97975   -13647.494    78.966554    236.42535 
   20400    76.387933    -611.3625    58192.356   -12746.487    925.36434   -13671.852    79.216662    238.06791 
   20450    77.554563   -378.43189    58210.637   -12708.576    939.49691   -13648.073    78.902749    241.70379 
   20500    79.516217   -685.70521    58218.683   -12735.085    963.26041   -13698.345    78.930462    247.81741 
   20550    75.979187   -814.77445    58215.583     -12741.2    920.41279   -13661.613    79.205814    236.79403 
   20600    78.791204   -817.91076    58180.224     -12728.1    954.47759   -13682.578    79.302023    245.55786 
   20650    77.311964    -534.7727    58155.943   -12725.266    936.55807   -13661.825    79.537884    240.94772 
   20700    74.816727   -438.48858    58196.773   -12750.934    906.33073   -13657.265    79.270434    233.17115 
   20750    76.882158   -713.16739    58164.672   -12749.596    931.35139   -13680.948    78.986657     239.6082 
   20800    74.250933    -615.1506    58158.649   -12747.084     899.4767    -13646.56    79.416901    231.40782 
   20850    76.562404    -440.1709      58171.1    -12754.75    927.47789   -13682.228     79.79436    238.61166 
   20900    77.946221   -740.31416    58143.468    -12761.25    944.24146   -13705.492    80.210844    242.92442 
   20950    75.387923   -694.02337    58098.548   -12737.624    913.25021   -13650.874    80.449575    234.95132 
   21000    75.391167    -905.7006    58025.428   -12745.929    913.28951   -13659.219    80.299532    234.96143 
   21050    76.365131     -685.656    58025.697   -12719.059    925.08812   -13644.147    80.320591    237.99685 
   21100    79.408336   -533.86872     58013.27   -12723.434    961.95354   -13685.387    80.206127    247.48119 
   21150    78.074573   -529.54592     58009.55   -12747.064    945.79631    -13692.86    80.296241    243.32444 
   21200     75.44756   -751.87373    58015.758   -12743.124    913.97266   -13657.097    80.490003    235.13718 
   21250    78.420344   -311.20818    57979.663   -12754.407    949.98499   -13704.392    80.201852    244.40205 
   21300    78.350984   -622.83489     57973.77   -12736.512    949.14477   -13685.657    80.470884    244.18589 
   21350    75.009924   -510.58723    57937.037   -12746.792    908.67112   -13655.463    81.160533    233.77326 
   21400    76.849497   -549.20983    57923.085   -12704.678    930.95573   -13635.634    81.066033    239.50641 
   21450    79.891391   -593.94793    57946.492   -12710.024    967.80527   -13677.829    81.221993    248.98666 
   21500    79.968205   -338.98834    57967.921   -12709.912     968.7358   -13678.648    81.401048    249.22606 
   21550    77.395414   -616.40469    58023.143   -12753.384    937.56898   -13690.953    81.368283    241.20779 
   21600    75.126781   -742.40019    57987.755   -12777.281    910.08673   -13687.367    81.498932    234.13745 
   21650    75.899154   -879.10313    57973.484   -12775.299    919.44327   -13694.743     81.57429     236.5446 
   21700    77.159951   -608.53103    57984.736   -12784.295    934.71658   -13719.012    81.920465    240.47396 
   21750    81.089153   -671.05219    57987.081   -12763.338    982.31498   -13745.653    81.928418    252.71957 
   21800    76.056014   -410.58683    57969.686   -12775.396    921.34347    -13696.74    81.876614    237.03347 
   21850    79.428196   -780.78276    57963.493   -12767.327    962.19412   -13729.521    82.247494    247.54309 
   21900     76.43368   -513.26993    57932.654   -12788.884    925.91853   -13714.803    82.476105    238.21049 
   21950    77.890871   -661.26209    57905.964   -12773.152    943.57095   -13716.723    82.819756    242.75192 
   22000    76.918599   -563.81053    57876.937   -12801.509    931.79284   -13733.302    82.677962    239.72177 
   22050    75.119748   -664.92004    57867.101   -12800.112    910.00153   -13710.114    82.480227    234.11553 
   22100     75.30334   -430.79346    57844.339     -12790.4    912.22557   -13702.625    82.714583    234.68771 
   22150    74.886746    -994.5616    57812.258   -12792.454    907.17895   -13699.633    82.421703    233.38937 
   22200    75.850401   -630.04398    57797.667   -12828.741    918.85267   -13747.594    82.692824    236.39266 
   22250    77.387989   -638.69627    57773.816   -12814.108    937.47903   -13751.587    82.737753    241.18465 
   22300    73.749819   -689.83896    57770.055   -12829.906     893.4062   -13723.312    82.898271    229.84606 
   22350    78.280406   -753.65956    57756.142   -12792.458    948.28978   -13740.748    82.971742    243.96593 
   22400     77.14813   -742.50548    57765.188   -12770.779    934.57338   -13705.352    83.233494    240.43712 
   22450      76.8384   -715.37537    57793.621    -12816.77     930.8213   -13747.591     83.28153    239.47182 
   22500    73.539853   -765.98309    57753.013   -12827.341    890.86267   -13718.204    83.145612    229.19169 
   22550    79.573027    -450.3428    57773.883   -12789.443    963.94861   -13753.392    83.801766    247.99446 
   22600    78.416511   -644.48985    57747.292   -12784.676    949.93856   -13734.615    83.906326    244.39011 
   22650    77.170695   -460.64418    57747.384   -12780.834    934.84672   -13715.681    83.888177    240.50744 
   22700    77.162629   -148.11139    57764.683   -12798.614    934.74902   -13733.363    84.025616     240.4823 
   22750    75.255184   -516.88802    57814.218   -12818.281    911.64221   -13729.924    84.172343    234.53763 
   22800    76.303315   -500.20533    57824.261   -12814.293    924.33927   -13738.632    84.219187     237.8042 
   22850    74.879233   -808.98152    57831.843   -12843.796    907.08793   -13750.883    84.639293    233.36595 
   22900    76.425692   -719.62337    57867.947    -12818.36    925.82176   -13744.181    85.063345    238.18559 
   22950    76.761628   -750.62486    57853.703   -12795.487    929.89128   -13725.378    85.112779    239.23256 
   23000    79.104017   -764.74422    57846.299   -12784.632    958.26701   -13742.899    85.052284    246.53276 
   23050    79.268057   -933.35338    57841.402   -12768.807     960.2542   -13729.061    85.066942    247.04401 
   23100    79.335957   -829.52207    57795.873   -12776.679    961.07674   -13737.755    84.805196    247.25562 
   23150    77.819353   -885.84529    57724.219   -12773.019    942.70458   -13715.723    84.198035    242.52903 
   23200    76.518268    -447.1417    57640.501   -12733.879    926.94322   -13660.822    84.085984    238.47411 
   23250     78.63653   -857.34154    57613.141   -12724.968    952.60388   -13677.571    84.405204    245.07581 
   23300    76.355287    -546.2247    57619.652   -12742.121    924.96886    -13667.09    84.834145    237.96617 
   23350    79.531903   -225.21454    57650.029   -12725.935    963.45043   -13689.386    84.988872     247.8663 
   23400    76.535322   -693.86566    57638.111   -12763.938    927.14982   -13691.088     85.13371    238.52726 
   23450     78.71751   -634.48402    57638.208   -12757.565    953.58486    -13711.15    85.809628    245.32819 
   23500    77.450899   -315.58368    57644.651   -12744.954    938.24112   -13683.195    85.861369    241.38072 
   23550    78.760065    -486.8836    57681.037   -12728.287    954.10037   -13682.387    86.183046    245.46082 
   23600    77.637357    -491.1673    57689.263   -12765.014    940.49988   -13705.514    86.291756    241.96182 
   23650    75.451245   -396.70055    57712.713   -12795.664    914.01729   -13709.681    86.760861    235.14867 
   23700    73.541709   -746.33984    57687.008   -12812.923    890.88515   -13703.808    87.026009    229.19747 
   23750    75.053041   -432.69804    57675.017   -12815.675    909.19345   -13724.869    87.103823    233.90764 
   23800    75.996726   -424.02195    57709.245   -12802.528    920.62526   -13723.153    87.009833    236.84869 
   23850    79.250898   -552.65752    57734.578   -12792.254    960.04633     -13752.3    87.430277    246.99053 
   23900    75.927417   -576.86315    57747.477   -12758.179    919.78564   -13677.964    87.532451    236.63269 
   23950    78.684467   -959.22838    57727.574   -12754.701    953.18458   -13707.886    88.049145    245.22521 
   24000    77.581558   -528.73562    57675.357    -12756.01    939.82393   -13695.834    88.172333    241.78792 
   24050    74.879269   -883.62778    57632.848   -12763.814    907.08837   -13670.902    87.958004    233.36607 
   24100    75.500553   -223.44254    57628.258   -12749.514    914.61461   -13664.129    88.380945    235.30234 
   24150    76.965185   -866.79127    57652.709   -12746.896    932.35718   -13679.253    88.707945    239.86696 
   24200    75.220096   -541.66653     57641.73   -12741.054    911.21715   -13652.271    88.528851    234.42828 
   24250    77.298229   -484.84478    57646.228   -12736.936    936.39167   -13673.327    88.992301    240.90491 
   24300    79.212621   -457.65546    57685.996   -12747.773    959.58265   -13707.356    89.767097    246.87124 
   24350    77.894612   -612.74821    57667.446   -12749.482    943.61627   -13693.098    89.589034    242.76358 
   24400    75.656074   -876.99389    57661.953    -12745.16    916.49859   -13661.658    89.528484    235.78703 
   24450     77.78456   -624.52533    57625.134   -12739.937     942.2831    -13682.22    89.717416    242.42059 
   24500    79.199386   -732.41526    57580.958   -12726.118    959.42231    -13685.54    89.991634    246.82999 
   24550    77.811172   -590.44186     57568.92    -12709.05    942.60547   -13651.656    89.920351    242.50353 
   24600       76.586   -982.55793    57525.068   -12729.494    927.76373   -13657.258    89.807246     238.6852 
   24650    73.472991   -967.60267    57567.093    -12747.66     890.0527   -13637.712    90.314903    228.98331 
   24700    75.853642   -718.26488    57561.482   -12772.207    918.89193   -13691.099     90.50228    236.40276 
   24750    75.481343    -629.5142    57638.731   -12769.449     914.3819   -13683.831    90.959684    235.24247 
   24800    77.089919   -450.86258    57610.222   -12741.937    933.86821   -13675.805    91.184784     240.2557 
   24850    75.760903   -517.46691    57656.464   -12726.355     917.7685   -13644.124    90.902527    236.11374 
   24900    79.797991   -680.23889    57706.966   -12687.832    966.67382   -13654.506     90.79743    248.69558 
   24950    79.024718   -513.00839    57733.898   -12694.595    957.30638   -13651.901    91.035704    246.28562 
   25000    79.081254   -849.01535    57758.874   -12694.563    957.99126   -13652.555    91.287424    246.46182 
   25050    78.648406   -503.05044    57738.475   -12676.117    952.74774   -13628.865    91.290461    245.11282 
   25100    76.900223   -913.66577    57730.526     -12736.7    931.57023   -13668.271    91.317918     239.6645 
   25150    77.230586   -800.52124    57662.934   -12732.277    935.57225   -13667.849    90.990857     240.6941 
   25200    76.097992   -909.38861    57638.962   -12767.305    921.85199   -13689.157    90.958288    237.16429 
   25250    75.682424   -625.23534    57607.937    -12736.37     916.8178   -13653.188    91.248473    235.86915 
   25300    77.896014   -359.70669    57613.879   -12736.504    943.63325   -13680.137     91.30881    242.76795 
   25350    78.881209    -479.4694    57616.411   -12716.678    955.56792   -13672.246    90.982921    245.83837 
   25400     78.59745   -455.87281    57640.342   -12738.874    952.13046   -13691.005    91.055623    244.95402 
   25450    76.749621   -267.05581    57668.445   -12738.728    929.74583   -13668.474    91.447103    239.19514 
   25500    78.575533   -432.88126    57647.339   -12733.904    951.86496   -13685.769     91.41958    244.88571 
   25550    76.859922   -476.70732     57685.18   -12760.831    931.08202   -13691.913    91.920436     239.5389 
   25600    78.604325   -499.14003    57735.293   -12749.972    952.21374   -13702.185    91.913341    244.97544 
   25650    77.760547   -559.87433    57693.643   -12719.795     941.9922   -13661.788    92.110421    242.34575 
   25700    79.532458   -777.88944     57752.87   -12703.491    963.45715   -13666.948    92.667489    247.86803 
   25750    75.798484   -943.41881    57728.811   -12766.278    918.22375   -13684.502    92.922998    236.23086 
   25800     76.58625   -813.81058    57704.694   -12762.629    927.76676   -13690.396    93.022859    238.68598 
   25850    78.402229   -291.04608    57716.972   -12741.195    949.76555   -13690.961    92.972449     244.3456 
   25900    75.934387   -80.938644    57758.442   -12749.685    919.87008   -13669.555    93.707107    236.65441 
   25950    74.459472   -678.69865    57811.721   -12780.366    902.00294   -13682.368    93.769153    232.05774 
   26000    77.722578   -210.72997    57839.461   -12758.307    941.53225   -13699.839    93.979487    242.22742 
   26050    77.644854   -533.95177    57848.057   -12758.537     940.5907   -13699.128    94.355101    241.98519 
   26100    73.305095   -581.60458    57862.135   -12779.032     888.0188   -13667.051     94.57363    228.46005 
   26150    76.432474   -367.45461    57842.978   -12768.423     925.9039   -13694.327    94.470588    238.20673 
   26200    75.042205   -263.11719    57856.512   -12774.097    909.06217    -13683.16    94.349517    233.87387 
   26250    76.719314   -391.93875    57818.945   -12772.798    929.37869   -13702.176    94.449446    239.10068 
   26300    78.595594   -396.21971    57824.824   -12716.944    952.10797   -13669.052    94.660893    244.94823 
   26350    79.610647   -544.70817    57772.952   -12713.563    964.40434   -13677.967    94.905176    248.11171 
   26400    79.218346   -963.74446    57748.869   -12721.085    959.65199   -13680.737    94.842661    246.88908 
   26450    80.521832   -713.45788    57708.603   -12703.854    975.44244   -13679.296    95.183921    250.95148 
   26500    78.118609   -516.31067    57707.265    -12706.53    946.32977    -13652.86    94.989226    243.46168 
   26550     78.73587   -1054.0442    57663.466   -12713.875    953.80727   -13667.682    95.314048    245.38541 
   26600     77.90166   -737.29875    57646.344   -12696.294    943.70164   -13639.996    95.374196    242.78554 
   26650    78.408233   -442.12571    57658.555   -12691.517    949.83828   -13641.355    95.941043    244.36431 
   26700    78.453249   -833.08917    57682.217   -12721.311     950.3836   -13671.695    96.087057     244.5046 
   26750    75.457359   -347.20831    57688.476   -12744.278    914.09136   -13658.369    96.406837    235.16772 
   26800    78.721515   -611.02831    57686.424   -12763.204    953.63338   -13716.837    96.487745    245.34067 
   26850    76.882496   -832.21153    57717.016   -12769.281    931.35548   -13700.637    96.658469    239.60925 
   26900    74.328235   -457.61742    57708.974   -12780.452    900.41313   -13680.865     96.94987    231.64873 
   26950    79.041731   -761.04081    57732.498   -12756.871    957.51248   -13714.383    96.973992    246.33865 
   27000    78.997175   -400.07099     57750.84   -12773.049    956.97273   -13730.022    97.262121    246.19978 
   27050    75.818717   -644.68346    57774.745   -12785.185    918.46885   -13703.654    98.075302    236.29391 
   27100     76.07612   -277.61362    57845.203   -12768.837    921.58704   -13690.424    98.195661    237.09613 
   27150    78.021201   -721.91266    57856.376   -12739.308    945.14977   -13684.458    98.444647     243.1581 
   27200    76.645116   -965.29754    57875.278    -12720.55    928.47986   -13649.029    98.464297    238.86944 
   27250    79.170804   -478.71212     57930.98   -12732.444    959.07607    -13691.52    99.005499    246.74091 
   27300    76.599804   -1005.7007     57893.55    -12739.56    927.93094   -13667.491    99.281272    238.72822 
   27350    78.613713   -587.54571    57857.119   -12704.603    952.32746    -13656.93    100.10233     245.0047 
   27400    78.192986   -585.89989     57796.24   -12693.258    947.23077   -13640.489    100.52493    243.69348 
   27450    79.680924   -959.35235    57781.811   -12684.167    965.25568   -13649.423    100.79947    248.33073 
   27500    79.490071   -520.90817    57787.445   -12699.686    962.94368    -13662.63    100.84248    247.73593 
   27550     77.23081    -1253.231    57804.394   -12685.447    935.57497   -13621.022      101.285     240.6948 
   27600    80.076198   -880.97018     57756.97   -12699.734    970.04402   -13669.779    101.17581    249.56263 
   27650    79.431167   -514.27517    57695.542   -12678.239    962.23012   -13640.469    101.44934    247.55235 
   27700    77.305878   -803.44923    57733.944   -12720.489    936.48433   -13656.973    101.14152    240.92875 
   27750    76.436358   -978.45749    57695.967   -12740.532    925.95096   -13666.483    101.16962    238.21883 
   27800    77.597798   -490.09048    57662.591   -12737.483    940.02066   -13677.503    101.09148    241.83854 
   27850    80.012523   -607.28919    57751.694   -12720.488    969.27267   -13689.761    100.99367    249.36418 
   27900    78.306615   -549.34096    57797.633   -12714.832    948.60727    -13663.44     101.3364    244.04761 
   27950    77.045952   -611.77336    57785.192   -12734.534    933.33559    -13667.87     101.3653    240.11867 
   28000    79.735652   -762.79132    57796.747    -12711.83    965.91865   -13677.749    101.78231     248.5013 
   28050    79.478996   -744.94407    57807.059   -12705.875    962.80952   -13668.684    101.67322    247.70141 
   28100    80.532744   -527.10562    57807.849   -12674.895    975.57463    -13650.47    102.03746    250.98548 
   28150    79.863939   -987.26853    57812.923   -12686.366    967.47272   -13653.838    102.33317    248.90111 
   28200    79.627681   -474.02658    57815.427   -12677.951    964.61069   -13642.561    102.45241     248.1648 
   28250    79.825502   -356.68738    57857.763    -12707.65    967.00709   -13674.657    102.67805    248.78132 
   28300    77.471746   -410.06088    57880.907   -12704.254    938.49366   -13642.748    102.87512    241.44569 
   28350    81.432005   -477.32951    57905.047   -12684.946    986.46829   -13671.414    103.25771    253.78809 
   28400    78.053254   -767.22798    57916.392   -12701.329    945.53806   -13646.867    103.78988    243.25799 
   28450    78.175198   -541.05144    57879.643   -12721.851    947.01529   -13668.867     104.0435    243.63804 
   28500    78.404844   -655.67001    57837.814   -12747.981    949.79722   -13697.779    104.16671    244.35375 
   28550     75.89656   -590.87147    57850.781   -12756.876    919.41185   -13676.288    104.78239    236.53652 
   28600    77.399094   -646.57169     57896.53   -12734.816    937.61356   -13672.429    105.22832    241.21926 
   28650    77.318222    -779.3623    57862.944   -12715.288    936.63387   -13651.922    106.16599    240.96722 
   28700     77.02302   -1077.0546    57870.667   -12696.413    933.05779   -13629.471    106.46864     240.0472 
   28750    74.596203   -763.53941    57928.367   -12725.646     903.6593   -13629.306    106.96706    232.48387 
   28800    75.443989   -359.09975     57940.87    -12739.89    913.92939    -13653.82     106.9246    235.12605 
   28850    77.018998   -972.84547    57907.035   -12738.644    933.00907   -13671.653    107.33606    240.03467 
   28900    78.505356   -774.95083    57897.238   -12735.193    951.01483   -13686.208    107.99127      244.667 
   28950    77.134503   -643.47563    57935.959    -12746.42     934.4083   -13680.829    107.76533    240.39465 
   29000    74.077796   -795.10868    57927.717   -12742.542    897.37932   -13639.921    108.47759    230.86822 
   29050    77.760192   -644.71394    57890.194   -12718.958     941.9879   -13660.946    108.20897    242.34465 
   29100    78.493053    -680.2135    57818.849   -12726.526    950.86579   -13677.392    108.13471    244.62866 
   29150     74.93909   -859.03361    57795.847   -12727.636    907.81303   -13635.449    108.12582     233.5525 
   29200    76.585628   -741.48819    57770.392   -12701.363    927.75923   -13629.122    108.52919    238.68404 
   29250    78.117615   -956.98642    57718.468   -12717.245    946.31773   -13663.562    108.85005    243.45858 
   29300    78.841816   -770.20496     57733.56   -12737.372    955.09071   -13692.463    109.29586     245.7156 
   29350    82.977015   -57.613915    57751.965   -12707.552    1005.1846   -13712.737    109.90002    258.60321 
   29400    78.107076   -397.75617    57794.744   -12706.289    946.19006   -13652.479    110.39541    243.42573 
   29450    76.563801   -736.18945    57841.686   -12706.849    927.49481   -13634.344    110.67559    238.61602 
   29500    76.135499   -491.38405    57839.555    -12714.89    922.30635   -13637.196    110.65034    237.28119 
   29550    76.760558   -776.65917    57854.315   -12703.603    929.87832   -13633.482    110.75609    239.22922 
   29600    78.007945   -1017.0969     57797.17   -12691.683    944.98918   -13636.672    110.72489    243.11679 
   29650     79.22771   -977.19327    57735.135   -12679.898    959.76543   -13639.664    111.04832    246.91826 
   29700    76.767786   -794.90008    57745.081   -12692.267    929.96589   -13622.233     111.6189    239.25175 
   29750    79.633516   -705.33395    57766.429   -12695.166    964.68137   -13659.847    111.81803    248.18298 
   29800     77.31496   -753.14496     57779.39   -12709.861    936.59435   -13646.455    111.89028    240.95705 
   29850    74.532199   -538.18157    57760.927   -12741.637    902.88396   -13644.521    112.12706     232.2844 
   29900     75.50214    -385.4048    57765.001   -12742.847    914.63384    -13657.48    112.22105    235.30728 
   29950    76.886469   -405.76497    57754.757   -12734.789    931.40361   -13666.193    112.72648    239.62163 
   30000    78.518578   -457.40555    57785.353   -12720.452      951.175   -13671.627     113.5431    244.70821 
   30050     77.59625   -459.00218    57794.316   -12728.213     940.0019   -13668.214    114.23009    241.83371 
   30100     76.89785   -681.61055    57855.729   -12739.292    931.54149   -13670.834    114.37656     239.6571 
   30150    75.285505   -491.57395    57866.062   -12751.689    912.00951   -13663.699     114.4825    234.63213 
   30200    78.078619   -801.67397    57805.774   -12758.983    945.84534   -13704.829    114.77476    243.33705 
   30250    78.670478   -394.41372    57809.948   -12762.081    953.01512   -13715.096    114.88265    245.18161 
   30300    76.987862   -45.588369    57896.819   -12763.551    932.63188   -13696.183     114.8136    239.93763 
   30350      76.5871   -489.67178    57933.648   -12766.795    927.77705   -13694.572    115.02737    238.68863 
   30400    75.227593   -825.33298    57953.066    -12787.05    911.30797   -13698.358    114.98276    234.45164 
   30450    74.923336   -565.66398    57943.026   -12814.623    907.62219   -13722.245    115.10246     233.5034 
   30500     75.48952   -435.57053    57961.719   -12824.133    914.48095   -13738.613    115.42104    235.26795 
   30550     73.37502   -387.84254    57995.941   -12830.088    888.86587   -13718.954    115.87948    228.67798 
   30600    74.871087   -792.21158    57979.137   -12820.244    906.98925   -13727.233    115.93891    233.34057 
   30650    76.013929    -584.6157    57966.339   -12795.975    920.83365   -13716.809    116.05052    236.90231 
   30700    72.231593   -699.56261    57971.061   -12831.073    875.01439   -13706.088    115.54513    225.11441 
   30750    79.437827   -797.07195     57952.12   -12792.456    962.31079   -13754.767    115.84019     247.5731 
   30800    76.188256   -984.73091    57930.641   -12781.142    922.94545   -13704.087    115.74154    237.44561 
   30850    76.057406    -479.0682    57951.952   -12723.435    921.36033   -13644.795    116.14735     237.0378 
   30900    75.205287   -754.12213    57923.935   -12775.281    911.03775   -13686.318    116.34592    234.38212 
   30950    75.813942   -402.28752    57866.763   -12753.236    918.41101   -13671.647    116.35695    236.27903 
   31000    78.584227   -351.00535    57837.037   -12732.428    951.97028   -13684.398    116.53461    244.91281 
   31050    77.813486   -276.65008    57873.969   -12723.351     942.6335   -13665.985    116.61534    242.51074 
   31100    76.970634   -733.29309    57896.341   -12738.564    932.42319   -13670.987    116.51263    239.88394 
   31150    76.943917   -458.20308    57951.298   -12749.405    932.09954   -13681.504    116.49169    239.80067 
   31200    78.056044   -667.90487    57935.682   -12738.687    945.57186   -13684.259    116.48628    243.26669 
   31250    76.804183   -980.09265    57864.221   -12744.593    930.40679   -13674.999    116.95771    239.36518 
   31300    76.214665   -726.19237    57805.623   -12731.712    923.26537   -13654.978    117.13011    237.52791 
   31350    79.434879    -490.3212    57802.835   -12728.886    962.27508   -13691.161    117.54678    247.56392 
   31400    77.568039   -489.96179    57818.547   -12752.559    939.66016   -13692.219    117.80266    241.74579 
   31450    79.114094   -533.52822    57792.828   -12711.007    958.38909   -13669.396    117.85579    246.56417 
   31500    76.897596   -442.41956     57763.43   -12720.527    931.53841   -13652.065    118.16909    239.65631 
   31550    78.496744   -540.48648    57763.566   -12725.361     950.9105   -13676.272    118.47517    244.64016 
   31600     76.12319   -714.43094    57746.696   -12744.033    922.15724    -13666.19    119.07447    237.24283 
   31650    78.332168   -484.59822    57766.636   -12717.261    948.91683   -13666.178    119.49333    244.12725 
   31700     79.65414   -594.28739    57771.431   -12689.743    964.93122   -13654.675    119.26521    248.24726 
   31750    77.555957   -643.44775    57779.114    -12683.12     939.5138   -13622.634    119.90127    241.70814 
   31800    78.179035   -720.22582    57756.091   -12739.893    947.06178   -13686.955    119.89345       243.65 
   31850    75.274248   -816.13827      57748.7   -12752.235    911.87315   -13664.108    119.69349    234.59704 
   31900    78.173727   -437.52778    57744.218    -12735.78    946.99748   -13682.777      119.696    243.63346 
   31950    82.284234    -539.9192    57772.894   -12723.144     996.7922   -13719.936    120.10161    256.44412 
   32000    79.616255   -177.39494    57767.558   -12692.382    964.47227   -13656.855    120.83096    248.12919 
   32050    78.176152   -259.94228    57832.621   -12719.523    947.02685    -13666.55    121.20567    243.64101 
   32100    78.965272   -443.76488    57861.086   -12716.137    956.58625   -13672.723    121.95911    246.10036 
   32150    76.780861   -364.12345    57868.139    -12720.88    930.12428   -13651.005    121.75621     239.2925 
   32200    77.060656   -361.11675    57867.876   -12706.885    933.51371   -13640.398    121.89552     240.1645 
   32250    79.590124   -237.76067     57948.39   -12709.326    964.15572   -13673.482    122.14561    248.04775 
   32300    78.346811   -700.25774    57992.262    -12707.18    949.09421   -13656.275    122.58069    244.17288 
   32350    79.005877   -684.63272    57980.787    -12699.75    957.07814   -13656.828    123.19976     246.2269 
   32400      75.7099   -1176.7127    57962.303   -12726.253    917.15063   -13643.403    123.62177    235.95478 
   32450    75.589413   -862.97622    57902.358   -12722.132    915.69106   -13637.823     123.8702    235.57928 
   32500    76.710976   -1207.5524    57838.372   -12758.678    929.27768   -13687.955    123.99221     239.0747 
   32550    78.502886   -694.22548     57790.77   -12761.935     950.9849    -13712.92    123.94536     244.6593 
   32600    77.505947   -438.58498    57770.564   -12789.452    938.90798    -13728.36    123.89328    241.55228 
   32650    76.781728   -412.04619    57759.335   -12809.401    930.13478   -13739.536    124.05833     239.2952 
   32700    75.884654   -551.13061    57757.673   -12795.617    919.26761   -13714.885    124.60381    236.49941 
   32750    73.941509   -17.114291     57787.71   -12798.133    895.72833   -13693.861    124.22043    230.44348 
   32800    77.333756   -358.17637    57819.877   -12789.231    936.82205   -13726.053    124.12591    241.01563 
   32850    77.972512   -455.38175    57842.883    -12765.87    944.55995   -13710.429    124.35782    243.00636 
   32900    76.742627   -638.19448    57815.602   -12785.093    929.66111   -13714.754    124.47349    239.17334 
   32950    76.302948   -430.23152    57828.207   -12796.343    924.33483   -13720.678    125.30241    237.80305 
   33000    75.455717   -611.34498    57774.138   -12810.951    914.07146   -13725.023    125.11486     235.1626 
   33050    75.756407   -221.58781    57805.425   -12777.199    917.71403   -13694.913    125.48856    236.09972 
   33100    75.945504   -355.08684    57911.079   -12799.889    920.00475   -13719.894    125.97045    236.68905 
   33150    79.174196   -718.57379    57959.273    -12768.34    959.11717   -13727.457    126.32575    246.75148 
   33200    79.734303    65.194758    57951.199   -12755.318     965.9023    -13721.22     126.4831    248.49709 
   33250    78.616476   -499.02837    57984.202   -12760.611    952.36094   -13712.972    127.00713    245.01331 
   33300    79.098464   -285.18692    58027.261   -12759.512    958.19975   -13717.712    127.42734    246.51546 
   33350     78.39122   -768.44994    58021.751    -12788.02    949.63218   -13737.652    127.83389    244.31129 
   33400    77.802634   -592.22576    58025.777   -12794.998    942.50205     -13737.5    127.83655    242.47692 
   33450    76.938411   -952.71365    58015.656   -12770.063    932.03284   -13702.096    127.98216    239.78352 
   33500    76.496611   -656.02723    58010.017   -12785.125    926.68087   -13711.806    128.13732    238.40662 
   33550    78.001455   -647.71305    57980.947   -12769.015    944.91057   -13713.925    128.26521    243.09656 
   33600    75.373763   -624.03699    57937.862   -12803.971    913.07868    -13717.05     128.2672    234.90719 
   33650    79.391103    -627.1966    57926.247   -12787.892    961.74478   -13749.637    128.77906    247.42749 
   33700     77.99519   -746.48381    57917.306   -12760.781    944.83467   -13705.616    129.07086    243.07703 
   33750    79.747901   -858.53329    57873.264    -12761.47    966.06704   -13727.537    128.97526    248.53947 
   33800    79.487387   -796.44492    57873.918   -12788.303    962.91116   -13751.214    128.93492    247.72756 
   33850    74.515578   -511.30188    57892.368   -12809.707    902.68261    -13712.39    128.60804     232.2326 
   33900    77.497813   -479.54013    57881.849    -12814.14    938.80944    -13752.95    129.00799    241.52693 
   33950    77.403675   -319.23959    57870.651   -12825.775    937.66905   -13763.444    129.07171    241.23354 
[...]
   92050    75.907811   -823.86765    57539.192   -12735.737    919.54814   -13655.285    349.47554    236.57158 
   92100     79.62844   -762.15753    57531.353   -12724.528    964.61988   -13689.148    349.83528    248.16716 
   92150    79.012944   -650.69624    57466.051   -12709.026    957.16376   -13666.189    349.25584    246.24893 
   92200    77.210531   -743.55799    57453.557   -12724.961     935.3293    -13660.29    349.58647    240.63159 
   92250    75.594382   -761.71706      57402.3   -12748.997    915.75126   -13664.748    349.29009    235.59476 
   92300    77.476677   -804.84112    57358.172   -12709.256     938.5534    -13647.81    348.98085    241.46105 
   92350    77.806748   -837.95099    57341.736   -12703.456    942.55189   -13646.008    348.45594    242.48974 
   92400    78.426011   -757.35294    57371.763   -12688.008    950.05364   -13638.061    348.95654    244.41972 
   92450    80.105345   -474.39668    57305.807   -12701.469    970.39711   -13671.866    347.67569    249.65347 
   92500    78.119132   -448.18636    57270.211   -12682.894     946.3361    -13629.23    347.95701    243.46331 
   92550    77.106715    -176.3478     57301.81   -12672.926    934.07168   -13606.997    348.11004    240.30805 
   92600    77.548562   -199.67142    57405.044   -12678.499    939.42421   -13617.923    348.02088    241.68509 
   92650    79.542088   -585.61789    57484.928   -12655.746    963.57381    -13619.32     347.6637    247.89804 
   92700    79.323629   -876.43477    57496.862   -12653.804     960.9274   -13614.731    347.37056     247.2172 
   92750    80.023245   -697.23852    57514.594   -12683.116    969.40256   -13652.519     347.5833     249.3976 
   92800    79.407952   -350.03833    57504.975   -12652.265    961.94888   -13614.214    347.28069       247.48 
   92850    78.956414   -739.30025    57555.641   -12671.416    956.47894   -13627.895    347.40442    246.07275 
   92900    76.737257   -824.03016    57508.769   -12693.009    929.59606   -13622.605    348.10207    239.15661 
   92950    77.672848   -1043.7433    57498.146   -12720.706    940.92981   -13661.636    348.88557    242.07243 
   93000    75.949476    -833.4457    57457.649   -12758.916    920.05287   -13678.969    348.82302    236.70143 
   93050    77.780758   -283.50329    57492.878   -12729.243    942.23704    -13671.48    349.04567    242.40874 
   93100    76.355709    -497.4761    57571.177   -12735.699    924.97398   -13660.673    349.01055    237.96749 
   93150    76.541442   -477.56601    57596.806   -12679.075    927.22395   -13606.299    348.57308    238.54634 
   93200    77.321325   -454.18217    57588.516    -12691.99    936.67147   -13628.662    348.89794    240.97689 
   93250    77.108255   -320.14911     57572.78   -12721.553    934.09033   -13655.644    348.84392    240.31284 
   93300    74.169339   -919.05192    57571.523   -12744.229    898.48827   -13642.717    349.40942    231.15352 
   93350    75.493982   -696.00265    57514.654   -12749.872    914.53501   -13664.407    348.85234    235.28186 
   93400    74.673857   -637.27051    57463.665   -12740.427        904.6   -13645.027    349.70345    232.72588 
   93450     76.80068   -612.73709    57491.226   -12731.399    930.36436   -13661.763    350.14731    239.35427 
   93500    76.737358   -576.57023    57550.095   -12742.919    929.59728   -13672.517    350.82773    239.15692 
   93550    76.375805   -323.86921    57615.944   -12750.164    925.21742   -13675.381    350.59547    238.03012 
   93600    79.004235   -298.88239    57619.869   -12720.948    957.05825   -13678.006    349.69532    246.22179 
   93650     78.25183   -341.67556    57609.185   -12709.248    947.94361   -13657.192    349.91632    243.87687 
   93700    77.063827   -566.42767    57640.131   -12693.299    933.55213   -13626.851    349.84197    240.17438 
   93750    77.893355   -280.52591    57618.584   -12715.519    943.60104    -13659.12    349.29171    242.75966 
   93800    76.307543   -99.220733     57707.37   -12724.338    924.39049   -13648.729    349.88172    237.81737 
   93850    77.224542   -112.45286    57816.564   -12724.283    935.49903   -13659.782    350.35061    240.67526 
   93900    74.962567   -711.45887    57825.654   -12736.586    908.09744   -13644.683    351.33994    233.62567 
   93950    74.598591   -990.55152    57889.755   -12766.739    903.68824   -13670.427    351.48627    232.49132 
   94000    77.622629   -346.16125    57908.391   -12741.282    940.32146   -13681.603    351.17833    241.91592 
   94050    76.062934   -772.61431    57955.645   -12755.098     921.4273   -13676.525    351.02004    237.05503 
   94100    77.239791   -948.01792    57936.433   -12749.742    935.68376   -13685.426    350.75674    240.72278 
   94150    76.568772     -885.265    57912.374    -12758.31    927.55502   -13685.865     350.1514    238.63151 
   94200    74.751728   -689.39379     57927.14   -12759.275    905.54333   -13664.819    350.96207    232.96857 
   94250    76.010667   -710.55268    57905.545   -12768.404    920.79414   -13689.199    350.89331    236.89214 
   94300     76.78814   -857.54471    57894.327   -12742.861    930.21245   -13673.073    351.34893    239.31518 
   94350    78.029899     -386.436    57835.596   -12739.048    945.25514   -13684.304    351.31938    243.18521 
   94400     78.29283    -595.6764    57804.862   -12725.123    948.44028   -13673.563     351.6667    244.00465 
   94450    77.107213   -283.24039    57856.339   -12724.188    934.07771   -13658.266    352.10033     240.3096 
   94500     77.21528   -549.15009    57885.956   -12695.884    935.38683   -13631.271     352.9375    240.64639 
   94550    79.793539    -536.6328     57906.29   -12700.116    966.61989   -13666.736    352.95869     248.6817 
   94600    80.118538   -1250.7701    57841.444   -12727.536    970.55694   -13698.093    352.92565    249.69459 
   94650    75.687314   -762.42298    57835.094   -12770.685    916.87703   -13687.563    353.43523    235.88439 
   94700    76.485627   -261.37636    57808.699    -12741.01    926.54781   -13667.558    353.50364    238.37238 
   94750    77.185576    -496.5332    57853.673   -12765.566      935.027   -13700.593    352.99509    240.55382 
   94800    76.152954   -498.66961    57842.166   -12784.492     922.5178    -13707.01    352.56339    237.33559 
   94850    74.215232   -801.76262    57791.159    -12800.16    899.04422   -13699.204    352.59218    231.29655 
   94900    74.702468   -601.07958    57754.317   -12778.828    904.94659   -13683.775    353.91808    232.81505 
   94950    76.532263   -816.07801    57740.344   -12761.058    927.11275   -13688.171    354.28583    238.51773 
   95000    77.072576   -943.76832    57680.105   -12739.435    933.65812   -13673.093    354.24728    240.20165 
   95050    78.607726   -320.41445    57666.655     -12700.7    952.25494   -13652.955    355.05478    244.98604 
   95100    79.816802   -602.91987    57734.258    -12674.29     966.9017   -13641.192     355.4925    248.75421 
   95150    78.690992     -272.792    57759.815   -12696.991    953.26362   -13650.255     355.4172    245.24554 
   95200    78.600319   -676.05117    57768.954   -12711.391    952.16521   -13663.556    355.47635    244.96296 
   95250    78.902455   -452.36794    57798.916   -12724.877    955.82529   -13680.702    355.08281    245.90458 
   95300    79.396774    -1027.179    57797.323     -12726.1    961.81347   -13687.914    355.53938    247.44516 
   95350     78.22752   -533.08414    57765.801   -12718.503    947.64912   -13666.152    355.58132    243.80111 
   95400    75.649203   -724.15719    57770.489   -12738.858    916.41535   -13655.273     355.4049    235.76561 
   95450     77.46441   -805.37371    57820.633    -12741.21    938.40479   -13679.615    354.59575    241.42282 
   95500    77.117305   -572.29288    57799.985   -12738.044    934.19996   -13672.244    354.63638    240.34105 
   95550    75.781817   -694.90244    57813.485   -12721.072    918.02184   -13639.094    355.06813    236.17891 
   95600    77.179719   -614.78369    57767.459   -12728.854    934.95604    -13663.81    355.38697    240.53557 
   95650    77.499957   -841.33662    57739.767   -12690.402    938.83542   -13629.238    355.71771    241.53361 
   95700    77.231616   -630.78978    57797.358   -12703.027    935.58472   -13638.612    355.41459     240.6973 
   95750    79.042248   -865.89588    57808.448   -12674.287    957.51874   -13631.806    355.51149    246.34026 
   95800    80.939984    -1031.759    57774.682    -12684.26    980.50794   -13664.767    356.30231    252.25467 
   95850    78.488704   -540.80909    57825.929   -12669.422    950.81311   -13620.235    356.50891     244.6151 
   95900     74.45303   -551.89256    57839.913   -12748.678     901.9249   -13650.603     356.9276    232.03766 
   95950    76.122582   -648.67507    57850.311   -12760.988    922.14988   -13683.138    357.18477    237.24093 
   96000    76.970052   -612.36526    57861.225   -12765.859    932.41613   -13698.275    357.07752    239.88212 
   96050    75.934905   -573.23975    57900.425   -12762.446    919.87636   -13682.323    358.12648    236.65602 
   96100    78.237065   -402.03419    57951.064   -12730.451    947.76475   -13678.216     357.9322    243.83085 
   96150    77.312863   -772.23361    57974.812   -12742.135    936.56895   -13678.704    358.48086    240.95052 
   96200    78.128259   -973.07541    57906.813   -12736.749    946.44667   -13683.196    358.12148    243.49175 
   96250    76.663558   -584.18791    57876.212   -12751.415    928.70327   -13680.118    357.69341    238.92692 
   96300    77.356724   -523.89148    57923.038   -12741.906    937.10029   -13679.006    357.71619    241.08721 
   96350    78.781849   -777.21978    57967.502   -12734.993    954.36426   -13689.357    357.67974    245.52871 
   96400    78.437881   -708.69483    57945.092   -12724.919    950.19744   -13675.116    357.13431    244.45671 
   96450     75.68865   -489.23592    57923.072   -12734.045    916.89321   -13650.938    357.04126    235.88855 
   96500    78.327912   -666.75921    57933.322   -12703.857    948.86527   -13652.722    357.23359    244.11398 
   96550    76.798947   -161.98673    57876.052   -12684.938    930.34337   -13615.282    357.05093    239.34887 
   96600    81.027933   -407.77678    57885.184   -12655.188    981.57336   -13636.761    356.85379    252.52877 
   96650    79.400851   -409.79852    57920.478   -12688.123    961.86287   -13649.986    356.59824    247.45787 
   96700    78.476346   -800.65316    57892.049   -12712.498     950.6634   -13663.161    356.48469    244.57659 
   96750    77.136787   -418.36538    57865.636   -12727.664    934.43597     -13662.1    355.81099    240.40177 
   96800    75.426853   -639.42256    57837.735   -12725.386    913.72181   -13639.108    355.71027    235.07265 
   96850    76.203624   -617.02106    57799.661   -12742.928    923.13162    -13666.06    356.24462     237.4935 
   96900    78.088619   -104.93731    57790.891   -12740.491    945.96647   -13686.458    356.05286    243.36821 
   96950     77.95164   -471.91742    57783.947   -12747.006    944.30711   -13691.314    356.85236    242.94131 
   97000    76.198773   -649.84384     57756.88   -12776.836    923.07285   -13699.909     356.6343    237.47838 
   97050    74.743985    -313.6078    57770.888   -12780.862    905.44953   -13686.311    356.01688    232.94444 
   97100    77.803119   -418.14377    57779.474   -12779.481    942.50792   -13721.989    355.53643    242.47843 
   97150    76.563578   -88.064088      57793.3   -12779.673    927.49211   -13707.165    356.28958    238.61532 
   97200    76.848799   -397.48304    57801.765   -12794.598    930.94728   -13725.545    357.22807    239.50423 
   97250    75.701085   -576.99787    57753.778   -12794.676    917.04386    -13711.72    357.36344    235.92731 
   97300    76.176032    -763.1423    57702.924   -12764.944    922.79736   -13687.741    357.68411    237.40751 
   97350    77.784781   -686.40469    57676.177   -12774.645    942.28577    -13716.93    357.90742    242.42128 
   97400    77.861955   -258.99763    57655.835   -12754.105    943.22066   -13697.326    358.09001     242.6618 
   97450    78.359546   -440.31652    57654.239   -12762.876    949.24848   -13712.124    358.38147    244.21257 
   97500    78.862452    -457.4193    57593.208   -12762.359    955.34069     -13717.7    357.58563    245.77991 
   97550    74.471839   -816.30408    57627.586   -12779.044    902.15276   -13681.196    358.00193    232.09628 
   97600     79.24878   -525.81405    57678.076   -12720.882    960.02067   -13680.903    357.90961    246.98393 
   97650     77.24973   -631.23758     57751.14   -12729.146    935.80415    -13664.95    358.28282    240.75376 
   97700    77.646445   -600.08977    57746.447   -12733.897    940.60997   -13674.507    357.99377    241.99015 
   97750    75.940481   -674.75575    57749.547   -12738.488     919.9439   -13658.431    358.35073     236.6734 
   97800    75.324445   -681.62394     57766.92    -12748.68    912.48123   -13661.161    358.67355    234.75348 
   97850    77.246859   -846.18591    57747.338   -12741.455    935.76938   -13677.224    358.78267    240.74481 
   97900    77.434667   -167.57378    57719.549   -12752.631    938.04448   -13690.676    359.79759    241.33013 
   97950    80.780209   -118.87439    57795.934    -12714.34    978.57243   -13692.912    360.12389    251.75673 
   98000    76.349748   -876.76948    57787.689   -12682.188    924.90177    -13607.09    360.50945    237.94891 
   98050    79.804781   -688.24405    57762.581   -12696.736    966.75607   -13663.492    360.88302    248.71674 
   98100    80.026689   -668.19431    57756.901   -12728.455    969.44428     -13697.9    360.95242    249.40833 
   98150    77.116133   -598.19044    57740.324   -12774.382    934.18577   -13708.568    361.42256     240.3374 
   98200    77.382609   -512.15276    57693.708    -12762.79    937.41385   -13700.204    362.43983    241.16788 
   98250    75.985932   -373.11258    57687.385    -12736.11     920.4945   -13656.605    362.74304    236.81505 
   98300    77.351724   -629.01413    57687.514   -12752.259    937.03971   -13689.299    362.48842    241.07163 
   98350    77.145849   -148.12832    57701.132   -12748.329    934.54574   -13682.875     362.7138    240.43001 
   98400    75.722611   -547.64421    57765.468   -12725.118    917.30462   -13642.422     362.8438    235.99439 
   98450    80.655054   -662.10551    57790.028   -12739.387    977.05629   -13716.443    363.03772    251.36667 
   98500    76.925445    -276.9254    57816.298   -12745.959    931.87577   -13677.835    362.94003     239.7431 
   98550    77.353941   -583.79561    57818.426   -12748.495    937.06657   -13685.562    362.24048    241.07854 
   98600    78.583637     -868.781    57859.648   -12740.745    951.96313   -13692.708    362.39934    244.91097 
   98650    78.083452   -654.48851    57865.608   -12734.134    945.90388   -13680.038    362.00397    243.35211 
   98700    76.254536   -813.24451     57874.19   -12751.638    923.74837   -13675.387    362.29982    237.65217 
   98750    73.337967    -681.0147    57865.234   -12767.219    888.41701   -13655.637      362.306     228.5625 
   98800    75.384312   -485.90964    57868.798   -12764.014    913.20646    -13677.22    362.28227    234.94006 
   98850    73.636229   -405.59536    57907.768     -12794.2    892.03016    -13686.23    362.99643    229.49205 
   98900    76.198073   -784.29477    57899.231   -12785.372    923.06438   -13708.437    363.87467     237.4762 
   98950    74.965291   -761.07345    57874.774   -12763.734    908.13043   -13671.865    364.07516    233.63416 
   99000    75.334954   -989.57774    57824.007    -12770.11    912.60854   -13682.718    364.32974    234.78624 
   99050    77.547222   -786.17358    57815.244    -12771.16    939.40798   -13710.568    364.32557    241.68091 
   99100    77.754838   -687.35634    57793.447   -12796.239    941.92304   -13738.162    364.43237    242.32796 
   99150    74.302567   -465.82305    57798.553   -12799.764    900.10219   -13699.866    364.36137    231.56874 
   99200    75.417078    -402.2098    57767.319   -12779.535    913.60339   -13693.138    365.04835    235.04218 
   99250    74.753832   -971.65773    57735.609   -12801.599    905.56882   -13707.168    364.66451    232.97513 
   99300    75.103438   -520.83095    57707.707   -12794.873    909.80395   -13704.677    364.49408     234.0647 
   99350     74.86471   -492.10938    57665.449   -12785.103      906.912   -13692.015    364.36417    233.32069 
   99400    76.975823   -388.47116    57673.394   -12803.438    932.48604   -13735.924    363.62157    239.90011 
   99450    77.680006   -717.39743    57675.723   -12784.564    941.01652   -13725.581    364.60591    242.09474 
   99500    76.620556   -558.02057    57689.877   -12800.186    928.18234   -13728.368     364.7422     238.7929 
   99550    77.185335   -158.20709    57687.062   -12747.854    935.02408   -13682.878    364.86702    240.55307 
   99600    75.673443   -177.27457    57771.727   -12785.344      916.709   -13702.053    365.86702    235.84116 
   99650     79.23012     13.52446     57869.16   -12778.555    959.79463    -13738.35    365.93617    246.92577 
   99700    76.871834   -695.53817    57946.979   -12751.275    931.22632   -13682.502     366.2964    239.57602 
   99750     77.46722   -669.58606    57974.082   -12731.425    938.43883   -13669.864    365.78125    241.43158 
   99800    78.903922   -957.63335    57927.771   -12729.357    955.84307   -13685.201    366.19154    245.90916 
   99850    78.329658   -877.65021    57865.021   -12726.666    948.88642   -13675.552    366.49377    244.11943 
   99900    79.731888   -797.80717     57818.64   -12722.101    965.87305   -13687.974     367.7871    248.48957 
   99950    77.064314   -548.31008    57819.753   -12762.152    933.55802    -13695.71    368.36128     240.1759 
  100000    77.351726   -566.38489    57787.837   -12757.142    937.03973   -13694.182    369.10182    241.07164 
Loop time of 65.5078 on 58 procs for 100000 steps with 4065 atoms

Performance: 659.463 ns/day, 0.036 hours/ns, 1526.535 timesteps/s
99.9% CPU use with 58 MPI tasks x no OpenMP threads

MPI task timing breakdown:
Section |  min time  |  avg time  |  max time  |%varavg| %total
---------------------------------------------------------------
Pair    | 30.162     | 33.515     | 41.786     |  49.8 | 51.16
Neigh   | 1.1306     | 1.4684     | 2.2688     |  28.3 |  2.24
Comm    | 13.023     | 20.102     | 25.298     |  81.0 | 30.69
Output  | 0.13701    | 0.14544    | 0.16968    |   1.6 |  0.22
Modify  | 6.4274     | 9.349      | 11.844     |  54.9 | 14.27
Other   |            | 0.9284     |            |       |  1.42

Nlocal:    70.0862 ave 98 max 49 min
Histogram: 9 15 12 0 0 0 0 3 11 8
Nghost:    1453.45 ave 1547 max 1392 min
Histogram: 9 11 4 18 2 0 0 0 4 10
Neighs:    0 ave 0 max 0 min
Histogram: 58 0 0 0 0 0 0 0 0 0
FullNghs:  7769.69 ave 11291 max 5419 min
Histogram: 19 17 0 0 0 0 0 0 13 9

Total # of neighbors = 450642
Ave neighs/atom = 110.859
Neighbor list builds = 5543
Dangerous builds = 0

write_data		${DIR}/data.eq-${NAME}-${TEMP}
write_data		run_8/data.eq-${NAME}-${TEMP}
write_data		run_8/data.eq-het_freeze_8-${TEMP}
write_data		run_8/data.eq-het_freeze_8-240
WARNING: Proc sub-domain size < neighbor skin, could lead to lost atoms (../domain.cpp:937)
undump          1

reset_timestep  0

unfix           2
unfix           3
unfix           4


################################################
#######         Run Simulation         #########
################################################

log				${DIR}/log.run_${NAME}
log				run_8/log.run_${NAME}
log				run_8/log.run_het_freeze_8
