LAMMPS data file via write_data, version 16 Mar 2018, timestep = 6000000

6768 atoms
2 atom types

2.4041386731800785e-01 4.8979586132666867e+01 xlo xhi
2.3943519399869473e-01 4.8780200736400666e+01 ylo yhi
-7.3507063673789119e-01 6.0797070636749851e+01 zlo zhi

Masses

1 18.015
2 12.01

Atoms # atomic

130 1 1.5418404608128877e+00 4.8442172522473448e-01 2.4564024805945288e+00 -3 2 0
3079 1 1.4586358715814978e+00 8.5209582729831501e-01 -2.2299521214895490e-01 -1 0 1
3238 1 5.9493880083256085e+00 1.5354679689018667e+00 2.6942028794153758e+00 2 -2 1
6592 1 6.0577611810024994e+00 1.4898186703419016e+00 -1.5658686956450119e-03 0 2 0
5500 1 1.0293491099959907e+01 1.7773204635627533e+00 2.7575542737540100e+00 3 0 1
5069 1 1.0751353417053320e+01 1.5614510002099271e+00 1.3745302244715696e-01 2 5 1
3778 1 3.6303302177774586e+00 4.7257272495222917e+00 2.6711831132575337e+00 1 0 0
3624 1 3.6696530104910798e+00 4.7996680608657343e+00 -1.2907636331920802e-01 2 -2 0
3539 1 1.1166460610113580e+00 8.4136207562372327e+00 -1.2428743139680942e-01 1 -2 0
1900 1 8.0478714381904091e+00 5.2449842175707397e+00 2.5021330128082928e+00 -1 -1 0
6618 1 8.2257056565054327e+00 5.0484555215465559e+00 -1.3851709544723700e-01 1 0 1
4798 1 1.0304375439054551e+01 6.7169391691784792e+00 3.7129270302068820e+00 -2 0 1
4858 1 1.3741189849931328e+00 8.2060679717488387e+00 2.6004895549290263e+00 3 -2 1
2063 1 3.5087919274902877e+00 9.9794312669670084e+00 3.5219345196729250e+00 -1 2 0
571 1 3.6522931396221701e+00 1.2353245427059493e+01 2.4261988074843277e+00 1 -3 1
3362 1 3.3296506396632712e+00 1.2519615959085032e+01 -2.7693135042620975e-01 0 -1 1
6362 1 5.8485997369436813e+00 8.6751783068888937e+00 3.0008314278334480e+00 -3 -3 1
6672 1 6.0594671831240436e+00 8.8220396526602816e+00 2.6029128888317865e-01 -2 0 0
3968 1 8.0370534027712957e+00 1.0349275875323249e+01 3.5730094286348857e+00 4 0 1
3686 1 1.0437439121169730e+01 9.0512191764342624e+00 3.3745043877684533e-01 -2 3 1
2166 1 1.0595209959003350e+01 9.1886771077583465e+00 2.9836569242656381e+00 0 0 0
6757 1 1.0104833865133345e+00 1.5843226422670561e+01 2.3633158564647125e+00 0 2 1
3755 1 1.0763632960293998e+00 1.5925485085510212e+01 -1.9817824763120540e-01 1 -1 0
2313 1 5.5708987754053707e+00 1.6256070968280273e+01 -2.7193413988730653e-02 0 1 1
2179 1 5.3994862047569443e+00 1.6191691269346379e+01 2.4509764853010276e+00 2 0 0
91 1 8.3941881067733757e+00 1.2653143393828971e+01 2.6075090901764892e+00 0 0 0
2211 1 3.3770675510226362e+00 1.9683674796104263e+01 -3.2754405035091538e-01 0 -1 0
3952 1 2.9378818772507538e+00 1.9813170781082004e+01 2.2211950846844388e+00 1 3 1
304 1 7.8100623617515748e+00 2.0116093462088113e+01 2.6171207337261970e+00 -2 2 0
1405 1 7.4345492529303936e+00 2.0175746508071125e+01 1.2489474783109122e-01 -1 0 1
6761 1 9.9122635040662708e+00 1.6568125307088412e+01 -2.1854186544857290e-01 0 1 0
1332 1 1.0013759753121327e+01 1.6850592451578258e+01 2.4928997529122499e+00 3 0 0
3081 1 9.8036117626260832e+00 2.4105180732779161e+01 9.7004751026685057e+00 -1 2 1
3908 1 9.3254197476850875e-01 2.0943844274513847e+01 -5.3227280936232391e-01 0 0 0
87 1 6.0221103175272028e-01 2.0908149945225677e+01 3.0440569526264256e+00 0 -1 0
5296 1 4.8310466384685374e-01 2.3177099143575592e+01 9.8282669795572684e+00 1 1 0
6463 1 5.1931489839444307e+00 2.3653815317485108e+01 2.3518819172886292e+00 -1 -1 1
3086 1 5.3947787015857447e+00 2.3481677073099295e+01 -4.2711432883968559e-01 0 -2 1
4009 1 9.7431301995055417e+00 2.4180790227247083e+01 2.6639713452887004e+00 1 -1 1
4955 1 9.7506033712013860e+00 2.1567645176894210e+01 3.6583601787883762e+00 1 -1 1
266 1 9.7614736221323550e+00 2.4021248716314034e+01 -2.3851406512056883e-01 -1 0 0
4922 1 3.5543926998101285e+00 2.2241198913789098e+00 3.4667911151843134e+00 0 0 1
150 1 3.6873212418526879e+00 2.0086355423857585e+00 6.2318980351325060e+00 -2 3 0
1938 1 1.4875020122148535e+00 8.5431449842014862e-01 7.1116192288418461e+00 0 2 0
4702 1 6.1463606170776286e+00 1.3018710688838313e+00 7.0038505003329679e+00 3 1 1
6577 1 8.5178071194470313e+00 2.5709811308928070e+00 6.3713000993527125e+00 2 0 1
3758 1 8.1755253328555391e+00 3.0098611932467465e+00 3.8808367072646588e+00 2 -2 0
3277 1 1.0744485763300238e+01 1.6483861640126236e+00 7.1162475070641369e+00 0 -1 0
3576 1 1.5309686183464026e+00 5.8607043933351912e+00 3.5493468259404546e+00 0 -2 0
3893 1 1.5094599064123924e+00 5.9449510690638458e+00 6.2122181562991035e+00 2 -1 1
555 1 3.8799304509172678e+00 4.7741438198901243e+00 6.8890993659268958e+00 1 1 1
72 1 5.7153815142310975e+00 6.2411162513884539e+00 3.7742531250154503e+00 4 1 0
3743 1 6.0553008563958883e+00 5.9731849863554078e+00 6.4391088062700312e+00 -2 0 0
5198 1 8.4925631340718226e+00 5.0150731344302244e+00 7.3227660315135186e+00 0 2 0
445 1 1.0394246300810666e+01 6.6811934620906790e+00 6.1482970834993242e+00 -1 -1 0
6486 1 1.2740247976651646e+00 8.7767977372523127e+00 7.1256814252247329e+00 0 0 1
5652 1 3.6710867370918887e+00 9.6738643407534042e+00 6.2505952546128256e+00 -3 -1 1
4738 1 3.4448360797858935e+00 1.2174302380904184e+01 7.3630419270800225e+00 -2 0 0
3171 1 5.9594715684657729e+00 8.6256104870337413e+00 7.2870495974691547e+00 -3 -2 1
6756 1 8.3090289229054513e+00 1.0207432669390125e+01 6.4870022886936543e+00 2 3 1
1399 1 1.0658381370448188e+01 9.3545944639200584e+00 6.9100386177588202e+00 -2 1 1
1445 1 1.1777480551598338e+00 1.3143231923921679e+01 3.3238350620711090e+00 0 -3 1
5620 1 1.1363548658710529e+00 1.2992375528325081e+01 6.0026346954234793e+00 1 -1 1
5092 1 7.8470003028931723e-01 1.5776854143099630e+01 6.8476351552124557e+00 1 3 0
1 1 6.0128182247210304e+00 1.3645216163139656e+01 3.4086963055298369e+00 -1 -2 0
5410 1 5.8868021978758174e+00 1.3576274965254067e+01 6.0226589126837018e+00 0 1 1
1580 1 5.3912787575931391e+00 1.6129804292982627e+01 6.6953802058475995e+00 0 1 1
5141 1 8.3898940962305240e+00 1.3037472918246324e+01 6.9077569569137873e+00 0 -3 0
6706 1 1.0370050533395158e+01 1.4379485954153285e+01 3.3538544269660697e+00 1 2 1
2284 1 1.0655264680478714e+01 1.4136236365154986e+01 6.0922643260220868e+00 -2 -2 1
1572 1 2.9557702464639135e+00 1.7358432355014109e+01 3.5024835864735735e+00 -2 -1 0
5325 1 2.9366975186417341e+00 1.6934544357791374e+01 6.0315396988920211e+00 0 3 0
607 1 2.9183721973260353e+00 1.9710601049376290e+01 6.6631266562750593e+00 0 -1 1
272 1 7.6108022089220269e+00 1.7777630051724127e+01 3.3713585908248049e+00 -1 1 0
4992 1 8.0066050955822021e+00 1.7505632984209814e+01 6.1485723828502188e+00 2 1 1
556 1 7.6769841054386410e+00 2.0203890767083529e+01 6.9523224984551621e+00 1 1 1
3618 1 1.0231202084686300e+01 1.6715812167908595e+01 6.9173991519185369e+00 -1 0 0
5476 1 8.0060309839342985e+00 1.2738793910393442e+01 -8.0114981505279736e-02 0 1 0
3175 1 4.5374015770317566e-01 2.3601356428921793e+01 2.6855017600081412e+00 1 1 0
5474 1 5.3906738880101823e+00 2.1185618590327913e+01 3.1217013647933238e+00 1 2 0
3189 1 4.9189895222440780e+00 2.3572557797964166e+01 7.1879105915545569e+00 -1 1 1
3883 1 5.1857586053529321e+00 2.0885177292601149e+01 5.8791665682739609e+00 1 0 0
207 1 9.8317361055346080e+00 2.1433826562157897e+01 6.3002416546983042e+00 3 2 0
2016 1 9.6495357455081709e+00 2.4042108763199749e+01 7.0045330892260349e+00 -1 3 0
1527 1 1.7481085723143437e+00 6.8966270727613255e-01 9.7344800466382164e+00 0 -1 1
3949 1 1.4853515063062748e+00 3.3167547235612460e+00 1.0300491355998705e+01 0 0 1
2345 1 6.4159230780166165e+00 1.0638138567851840e+00 9.6332567285342172e+00 -1 1 0
5003 1 5.8380272106782654e+00 3.5310241702582212e+00 1.0620541401080864e+01 2 0 1
4795 1 1.2154069214557882e+01 1.8122574999024671e+01 3.5830140188780266e+00 1 4 1
1372 1 1.1032868728341077e+01 1.8206237346208916e+00 9.8056473916732347e+00 -1 -2 1
250 1 3.9669810923811437e+00 7.4423129071041112e+00 1.0616936935168532e+01 0 -1 0
1536 1 3.6060969697239962e+00 4.6870453920592912e+00 9.6713278087494334e+00 1 -2 1
5089 1 8.3240536957662457e+00 5.2409859939922807e+00 1.0194828941960326e+01 0 0 1
3786 1 8.4004773451775527e+00 7.8798388292546209e+00 1.0306518235959123e+01 0 -2 0
4974 1 1.0969325073053723e+01 4.4177413680953457e+00 1.0519000504739180e+01 -2 1 0
6611 1 1.3967485612558082e+00 8.5974429745124379e+00 9.9472416815741873e+00 1 1 0
3794 1 9.1277221663282493e-01 1.1104441036414457e+01 1.0634937783512465e+01 2 -1 0
3964 1 3.1322722565706647e+00 1.2196064756614518e+01 1.0123454334920682e+01 0 0 1
5235 1 5.9392186478415185e+00 8.8524599964349182e+00 9.7516178906125113e+00 0 -1 0
3045 1 5.9884082365488194e+00 1.1701772343200581e+01 1.0178121584666128e+01 2 1 1
1886 1 1.0798073068134364e+01 9.4463647407783817e+00 9.5266838635979489e+00 -1 -1 0
6541 1 1.0743959459350307e+01 1.1751111968320206e+01 1.0636787069267978e+01 1 -1 1
1682 1 1.0039907323387118e+00 1.5448604691839147e+01 9.3368696374187028e+00 0 1 1
42 1 3.2902728791627611e+00 1.4835244911606727e+01 1.0453940402647417e+01 0 -2 0
2098 1 8.4303635433145132e+00 1.2834780709635552e+01 9.5199702721303172e+00 0 1 0
5062 1 7.8319672584877305e+00 1.5526542101367868e+01 1.0607966448686263e+01 1 0 0
4950 1 5.2398051835182509e+00 2.3602529860921170e+01 9.8815863293326345e+00 -1 -1 1
3344 1 1.0207746793607607e+01 1.6571343211425152e+01 9.8086581203677099e+00 2 2 0
5628 1 1.0309481491147374e+00 1.7912121981496966e+01 1.0410308049834940e+01 2 -1 1
6676 1 2.8435283178871118e+00 1.9935746569151000e+01 9.4534911713418452e+00 3 2 1
2001 1 7.4105148268890906e+00 2.0359583825145940e+01 9.6156473161098415e+00 -1 -1 0
359 1 5.2858055481456807e+00 1.5960460985166666e+01 9.4832721149094503e+00 0 0 0
36 1 5.4875831280013294e+00 1.8786085866038665e+01 1.0528711953718210e+01 1 1 0
3409 1 9.6497889608789222e+00 1.9231271358521198e+01 1.0261586941863678e+01 -1 -1 0
1548 1 2.9973409741796311e+00 2.2333179616018754e+01 1.0434015845451382e+01 0 1 1
3318 1 6.5888462108367096e-01 2.0837141142452346e+01 5.8823653289411162e+00 1 0 1
6608 1 7.6798217814847529e+00 2.2682118817233341e+01 1.0718963064001088e+01 0 0 1
3403 1 1.2364295805372683e+01 2.0729949398059667e+01 2.6645359452779505e+00 0 -1 1
3339 1 5.4014116314540483e-01 2.3138120730421814e+01 6.9766192872566632e+00 2 0 1
2077 1 1.2022605675501730e+01 2.0739757909426583e+01 9.6665225675979087e+00 2 0 0
6539 1 1.2323682801770094e+01 2.0556026742077929e+01 7.0435634994013503e+00 -1 -1 1
3102 1 1.2159935993138347e+01 2.3323854341373039e+01 1.0837272614778698e+01 -1 -1 1
5344 1 2.7993849495094287e+00 2.4466670413939685e+01 6.1569488425065444e+00 1 1 0
3167 1 8.4920959337432200e-01 2.3648990908857630e+01 3.5626134615487248e-02 0 0 1
6415 1 8.2405993801037383e+00 1.0010107659479486e+01 -5.7483884044913225e-01 0 -1 1
6614 1 1.0302683007261097e+01 6.4353513889496998e+00 -6.9993728720191939e-01 2 -1 1
4855 1 1.6503729503203317e+00 3.5185745545076577e+00 1.2948640084075960e+01 1 -1 1
3399 1 3.7566449867916170e+00 2.4559730585274120e+00 1.4316555136420893e+01 -1 1 1
5593 1 6.1005763535316140e+00 3.9940032273038684e+00 1.3473838552324635e+01 -1 0 1
6652 1 1.2250871835703114e+01 1.7649802424369838e+01 1.7039394145040795e+01 0 -1 1
3029 1 8.6569030952284756e+00 3.1722770702919849e+00 1.4099267905725311e+01 -2 1 1
5611 1 1.1024151345092324e+01 4.3598722778139800e+00 1.3153258384535462e+01 1 2 1
2332 1 1.6559154665047835e+00 6.1491405948186779e+00 1.4021057900414357e+01 3 -1 1
4016 1 3.8623333535151732e+00 7.6385461225696991e+00 1.3089030566249402e+01 -2 2 1
3745 1 5.9896778330839178e+00 6.6198204919449140e+00 1.4107306067078946e+01 0 1 0
3033 1 8.3258121382367385e+00 7.6046722997355642e+00 1.3179993651523725e+01 0 3 1
3719 1 1.0855208840477038e+01 6.9230881234794763e+00 1.4187494010680368e+01 1 0 0
5004 1 1.2242026332306553e+00 1.1173438200083257e+01 1.3302583438809124e+01 3 0 1
1434 1 3.4619794287646064e+00 1.0001693516805679e+01 1.4095711068140577e+01 1 1 1
1402 1 5.9836897278579881e+00 1.1490457214238544e+01 1.2964460851487516e+01 2 1 1
5043 1 8.2142411333452934e+00 1.0244394352381095e+01 1.4340600434355672e+01 0 2 1
3305 1 1.0223784313863748e+01 1.1645592749259508e+01 1.3394006988559275e+01 0 1 1
5131 1 3.9855789540974662e-01 2.0973243492671813e+01 1.6880465551307207e+01 1 2 0
1394 1 3.2102384633977477e+00 1.4857440751813026e+01 1.3351436163392375e+01 -3 1 1
1348 1 8.8229737402668784e-01 1.3583202364381412e+01 1.4292668862031517e+01 -2 0 1
333 1 5.5436310525073145e+00 1.3745923904616815e+01 1.3968360269726876e+01 0 2 0
3129 1 7.8491041520101783e+00 1.4960666318547901e+01 1.3251713283577512e+01 -1 2 1
5457 1 9.4189581346075890e+00 2.1119837064771801e+01 2.0724193585654930e+01 1 0 0
6685 1 1.0310254435514285e+01 1.4180168042817371e+01 1.3934428443074804e+01 -1 1 1
5098 1 3.0176617295399919e+00 1.7524705213897491e+01 1.4152046454156485e+01 0 1 0
6480 1 8.8788755691918886e-01 1.8499230711517750e+01 1.2955320002191502e+01 1 2 1
2215 1 5.4286101214045228e+00 1.8458051346271876e+01 1.3283974954950212e+01 1 0 1
3261 1 7.8721780671444561e+00 1.7562495896165718e+01 1.4058615622607364e+01 -1 0 1
3429 1 9.9025936030628756e+00 1.9039748126831157e+01 1.3354259532200954e+01 1 1 0
6634 1 3.7855840776760163e+00 5.0032335310148959e+00 2.3169730008041373e+01 1 0 1
6364 1 2.8784270536363792e+00 2.2149070169182529e+01 1.3308210702828102e+01 -2 0 1
410 1 1.1252395715074668e+01 1.6972386115895508e+00 2.3563570103340432e+01 -2 -1 0
3499 1 5.3419925796114986e+00 2.1206575874312581e+01 1.3952393092720081e+01 0 -2 0
368 1 7.4761952019858064e+00 2.2571061264053689e+01 1.3397007398114159e+01 -1 1 0
3828 1 9.6486346664029803e+00 2.1593365725358204e+01 1.4158259910926571e+01 1 1 0
6526 1 1.3188182621636486e+00 1.2131329471987668e+01 2.3502564514454811e+01 1 0 1
1848 1 1.3794772992054956e+00 3.6906195981983325e+00 1.8144888038324684e+01 0 2 0
125 1 3.7463540920330169e+00 2.5288673427153912e+00 1.7117371381694774e+01 1 2 0
5617 1 3.8569071690589918e+00 7.8113173742434023e+00 2.3752632853579385e+01 -1 5 0
4779 1 6.2018922765636555e+00 4.0864299561888044e+00 1.7745077879824454e+01 -1 0 1
86 1 8.6417009976556418e+00 3.1909670290175489e+00 1.6595757841414770e+01 3 -2 1
3813 1 1.0831115959891664e+01 4.2838567946764119e+00 1.7737584401204579e+01 0 0 0
317 1 1.0620548323150395e+01 9.9068130447813925e+00 2.3684813271589316e+01 1 1 0
2087 1 1.7075719487952037e+00 5.9265780262671335e+00 1.6729502723878987e+01 0 -1 0
3580 1 3.6701738853952213e+00 7.6087415210042781e+00 1.7584853942567186e+01 0 1 1
3331 1 6.0559283275792115e+00 6.6094162910519998e+00 1.6849285391964873e+01 1 1 0
3092 1 8.3762773993459270e+00 7.9409546006686318e+00 1.7710510143557944e+01 0 1 1
6420 1 1.0791425706178611e+01 6.6723766640996320e+00 1.6799343143731726e+01 -1 0 1
4763 1 3.4537032083135060e+00 1.0058555960191194e+01 1.6828339693643674e+01 -1 0 1
5465 1 9.5784660268606880e-01 1.0751552907232723e+01 1.7663245659407981e+01 0 0 0
3891 1 5.6289841385441646e+00 1.1629929402204944e+01 1.7927259009497430e+01 1 3 0
3798 1 7.9324713146789163e+00 1.0677961782813814e+01 1.7013246487317492e+01 2 -2 1
331 1 5.4591781286876380e+00 1.2206481082979964e+01 2.0254468109627833e+01 3 2 0
278 1 1.0193532177025725e+01 1.1715180507138369e+01 1.7842349812271372e+01 1 -4 0
3034 1 2.9272473852954173e+00 1.4794906856028241e+01 1.7658994763960155e+01 1 3 1
3048 1 8.3817439282181638e-01 1.3471292523210336e+01 1.7082398602860504e+01 -1 -1 1
3553 1 5.2096137421546187e+00 1.3871841348847822e+01 1.6842146568254147e+01 0 2 1
3103 1 7.6219992024372623e+00 1.5075979537133138e+01 1.7783757711595360e+01 0 2 1
5231 1 1.0299681100176356e+01 1.4490274133519486e+01 1.6947452863103248e+01 0 1 0
1597 1 2.4228855802728448e+00 2.4358183875506263e+01 2.0945796014367779e+01 -2 1 1
5239 1 3.1324383670974485e+00 1.7352210685968878e+01 1.6809355894799154e+01 -1 4 1
470 1 7.8009326709696469e-01 1.8368752519906103e+01 1.7402171088439712e+01 -2 -1 0
2072 1 5.3002244425831337e+00 1.8369922190969714e+01 1.7521495900354338e+01 -2 0 0
2106 1 7.9261211956305235e+00 1.7518380701428569e+01 1.6571893167732217e+01 1 2 0
183 1 1.0112708678079564e+01 1.8998242958394105e+01 1.7503037413736433e+01 1 0 0
4783 1 2.8969199133571997e+00 2.2062044310018198e+01 1.7745594600351225e+01 1 -1 1
3473 1 6.6139289157383159e+00 1.4422834541505334e+00 2.3478901901135590e+01 -2 1 0
1984 1 5.0732070086288266e+00 2.0935574091771461e+01 1.6755664468707181e+01 0 1 0
4759 1 7.2369638030672867e+00 2.2264092909519473e+01 1.7505826576214581e+01 0 1 1
3113 1 9.7439475079777338e-01 1.7342441417781302e+01 2.3528074684656545e+01 -2 0 1
3105 1 9.8538810613396635e+00 2.1515042256866447e+01 1.6859914161328987e+01 0 2 1
177 1 2.0216620359868975e+00 1.1507379526840573e+00 2.0923622021977902e+01 0 2 0
5129 1 1.6471595393773804e+00 3.9719560403024889e+00 2.0728525550009170e+01 -1 -1 0
2254 1 1.2145402693634921e+01 2.3008390441874038e+01 1.3456593931982717e+01 -1 -2 1
1586 1 6.9420946828230994e+00 2.2201219283294222e+01 2.0146128804187839e+01 1 2 1
3360 1 6.3780163888320498e+00 1.5174418929486504e+00 2.0697280795015939e+01 -1 1 0
5641 1 6.2613862990807654e+00 4.2415412645955790e+00 2.0491573360137046e+01 0 1 0
315 1 5.5545818756023957e-01 1.7831527917934181e+01 2.0333850174075661e+01 -3 -1 0
3960 1 5.5883756064528010e+00 1.8391494551793766e+01 2.0300328577854199e+01 -2 -2 1
4813 1 1.1066337173443005e+01 1.7994310821363440e+00 2.0763136022258539e+01 3 0 1
3158 1 9.6985708544390636e+00 2.1088906986430594e+01 2.3456612669018966e+01 -2 0 1
161 1 3.8891002352848392e+00 5.4185735425840029e+00 2.0574927613387406e+01 -1 -3 1
1759 1 3.6345290404120880e+00 8.1760316050237520e+00 2.0520876122747747e+01 2 0 0
1760 1 5.0998950378548269e+00 2.0691471155780558e+01 2.1428975182482962e+01 -4 3 0
6452 1 8.6627851784898819e+00 5.5733348493219328e+00 2.1177010846164624e+01 0 -1 1
5221 1 1.0815639405415469e+01 4.4834840019873452e+00 2.0361560679463580e+01 3 1 0
3673 1 8.1100066412708582e-01 9.3819012437345286e+00 2.0874015949518910e+01 0 2 0
1535 1 1.0008509231549869e+00 1.1903563055600150e+01 2.0236952152639894e+01 3 -2 1
1599 1 2.6551264337651199e+00 2.1643439440016000e+01 2.0583523741561333e+01 0 0 1
6414 1 8.4139522919396814e+00 8.1963910271206100e+00 2.0310370242054827e+01 1 1 1
5389 1 6.0683507683545574e+00 9.5626905299994398e+00 2.1309633977578642e+01 1 4 0
5097 1 1.2198434459512621e+01 1.7118100200198203e+01 2.3665034860785116e+01 1 0 1
3207 1 1.0757493504935741e+01 9.7157892233230925e+00 2.0872576766541343e+01 0 2 1
5674 1 7.8453781597069971e+00 1.6654246557316817e+01 2.0768726821896273e+01 0 -3 1
6432 1 3.2064563649471212e+00 1.3731441848382012e+01 2.0657265653420350e+01 2 2 1
6720 1 3.1781788661570030e+00 1.6677921102115157e+01 2.0769440438759304e+01 3 0 1
1566 1 7.7092684981303936e+00 1.3681471585216276e+01 2.0398419062816661e+01 0 3 1
3055 1 8.3727797582594814e+00 5.5442129375453530e-01 1.7707240711625680e+01 0 1 1
5693 1 1.0146902464273309e+01 1.8435343684912265e+01 2.0112469556213000e+01 0 1 1
1624 1 3.2624039913476921e-01 2.0365026649462695e+01 2.1251278663698223e+01 2 2 1
3316 1 1.0596087013224317e+01 1.2631640458260009e+01 2.0963738568709708e+01 1 2 1
3533 1 8.7851844963308157e+00 3.3434601984317036e-01 2.0493188318506224e+01 1 0 0
2161 1 1.2267314615527086e+01 1.7378798676016832e+01 2.0812531456249790e+01 1 1 0
5279 1 8.2014160883254306e+00 3.8095216622768235e-01 1.3344909839226730e+01 -1 3 1
3941 1 3.5377450213732362e+00 1.6822946937818379e+01 2.3379519074461577e+01 -1 2 0
1619 1 3.6965664292139859e+00 1.4007821781285815e+01 2.3725924273690339e+01 0 2 1
4727 1 7.8779303623392476e+00 1.6704484919422551e+01 2.3404526561603472e+01 1 -3 1
4957 1 1.5188241627143362e+00 9.2177241066644804e+00 2.3685458259347218e+01 -2 0 0
1960 1 1.1660862177640837e+01 2.2592404849959358e+01 2.0203889645732033e+01 1 1 0
3614 1 1.2075688403667415e+01 2.2962137910579095e+01 1.7603928053262720e+01 -3 1 0
1850 1 6.1614269790503338e+00 9.5124055610639449e+00 2.3821368448409679e+01 0 0 0
5405 1 5.2542252931399167e+00 2.0797768574849659e+01 2.3818928329414142e+01 0 -1 0
1542 1 5.9960453954904995e+00 1.2401595939559691e+01 2.3718622016184337e+01 0 1 1
597 1 7.9741694387764781e+00 1.3907555731459894e+01 2.3719857105168238e+01 0 -1 1
623 2 2.4041386731800785e-01 3.0533926167463075e+00 2.6744313025049166e+01 0 0 0
625 2 2.4041386731800785e-01 2.3943519399869473e-01 2.6744313025049166e+01 0 0 0
627 2 1.4588931739518196e+00 9.4292454968559791e-01 2.6744313025049166e+01 0 0 0
634 2 1.4588931739518196e+00 2.3499032610589290e+00 2.6744313025049166e+01 0 0 0
636 2 2.6773724805856314e+00 3.0533926167463075e+00 2.6744313025049166e+01 0 0 0
638 2 2.6773724805856314e+00 2.3943519399869473e-01 2.6744313025049166e+01 0 0 0
640 2 3.8958517872201637e+00 9.4292454968559791e-01 2.6744313025049166e+01 0 0 0
655 2 3.8958517872201637e+00 2.3499032610589290e+00 2.6744313025049166e+01 0 0 0
5503 1 1.0616094925155954e+00 1.5966968758266191e+01 3.5521918206444909e+01 3 -3 -1
657 2 5.1143310938532549e+00 3.0533926167463075e+00 2.6744313025049166e+01 0 0 0
659 2 5.1143310938532549e+00 2.3943519399869473e-01 2.6744313025049166e+01 0 0 0
661 2 6.3328104004866130e+00 9.4292454968559791e-01 2.6744313025049166e+01 0 0 0
684 2 6.3328104004866130e+00 2.3499032610589290e+00 2.6744313025049166e+01 0 0 0
686 2 7.5512897071223195e+00 3.0533926167463075e+00 2.6744313025049166e+01 0 0 0
688 2 7.5512897071223195e+00 2.3943519399869473e-01 2.6744313025049166e+01 0 0 0
6518 1 8.2775665885018572e+00 4.7322397415091215e+00 3.6034345947699777e+01 0 -1 0
690 2 8.7697690137539954e+00 9.4292454968559791e-01 2.6744313025049166e+01 0 0 0
721 2 8.7697690137539954e+00 2.3499032610589290e+00 2.6744313025049166e+01 0 0 0
723 2 9.9882483203885020e+00 3.0533926167463075e+00 2.6744313025049166e+01 0 0 0
725 2 9.9882483203885020e+00 2.3943519399869473e-01 2.6744313025049166e+01 0 0 0
727 2 1.1206727627019468e+01 9.4292454968559791e-01 2.6744313025049166e+01 0 0 0
766 2 1.1206727627019468e+01 2.3499032610589290e+00 2.6744313025049166e+01 0 0 0
768 2 1.2425206933655218e+01 3.0533926167463075e+00 2.6744313025049166e+01 0 0 0
770 2 1.2425206933655218e+01 2.3943519399869473e-01 2.6744313025049166e+01 0 0 0
1077 2 7.5512897071223195e+00 2.1344115864611251e+01 3.3317686974965923e+01 0 0 0
628 2 2.4041386731800785e-01 7.2743287508691887e+00 2.6744313025049166e+01 0 0 0
630 2 2.4041386731800785e-01 4.4603713281191633e+00 2.6744313025049166e+01 0 0 0
632 2 1.4588931739518196e+00 5.1638606838095500e+00 2.6744313025049166e+01 0 0 0
647 2 1.4588931739518196e+00 6.5708393951821993e+00 2.6744313025049166e+01 0 0 0
649 2 2.6773724805856314e+00 7.2743287508691887e+00 2.6744313025049166e+01 0 0 0
651 2 2.6773724805856314e+00 4.4603713281191633e+00 2.6744313025049166e+01 0 0 0
653 2 3.8958517872201637e+00 5.1638606838095500e+00 2.6744313025049166e+01 0 0 0
676 2 3.8958517872201637e+00 6.5708393951821993e+00 2.6744313025049166e+01 0 0 0
433 1 1.2032162324922739e+01 2.2323842572132868e+01 2.4018131461004543e+01 0 -2 0
678 2 5.1143310938532549e+00 7.2743287508691887e+00 2.6744313025049166e+01 0 0 0
680 2 5.1143310938532549e+00 4.4603713281191633e+00 2.6744313025049166e+01 0 0 0
682 2 6.3328104004866130e+00 5.1638606838095500e+00 2.6744313025049166e+01 0 0 0
713 2 6.3328104004866130e+00 6.5708393951821993e+00 2.6744313025049166e+01 0 0 0
715 2 7.5512897071223195e+00 7.2743287508691887e+00 2.6744313025049166e+01 0 0 0
717 2 7.5512897071223195e+00 4.4603713281191633e+00 2.6744313025049166e+01 0 0 0
719 2 8.7697690137539954e+00 5.1638606838095500e+00 2.6744313025049166e+01 0 0 0
758 2 8.7697690137539954e+00 6.5708393951821993e+00 2.6744313025049166e+01 0 0 0
760 2 9.9882483203885020e+00 7.2743287508691887e+00 2.6744313025049166e+01 0 0 0
762 2 9.9882483203885020e+00 4.4603713281191633e+00 2.6744313025049166e+01 0 0 0
764 2 1.1206727627019468e+01 5.1638606838095500e+00 2.6744313025049166e+01 0 0 0
805 2 1.1206727627019468e+01 6.5708393951821993e+00 2.6744313025049166e+01 0 0 0
807 2 1.2425206933655218e+01 7.2743287508691887e+00 2.6744313025049166e+01 0 0 0
809 2 1.2425206933655218e+01 4.4603713281191633e+00 2.6744313025049166e+01 0 0 0
1056 2 5.1143310938532549e+00 2.1344115864611251e+01 3.3317686974965923e+01 0 0 0
1093 2 9.9882483203885020e+00 2.4158073287355855e+01 3.3317686974965923e+01 0 0 0
641 2 2.4041386731800785e-01 1.1495264884989146e+01 2.6744313025049166e+01 0 0 0
643 2 2.4041386731800785e-01 8.6813074622396318e+00 2.6744313025049166e+01 0 0 0
645 2 1.4588931739518196e+00 9.3847968179324699e+00 2.6744313025049166e+01 0 0 0
668 2 1.4588931739518196e+00 1.0791775529304973e+01 2.6744313025049166e+01 0 0 0
670 2 2.6773724805856314e+00 1.1495264884989146e+01 2.6744313025049166e+01 0 0 0
672 2 2.6773724805856314e+00 8.6813074622396318e+00 2.6744313025049166e+01 0 0 0
674 2 3.8958517872201637e+00 9.3847968179324699e+00 2.6744313025049166e+01 0 0 0
705 2 3.8958517872201637e+00 1.0791775529304973e+01 2.6744313025049166e+01 0 0 0
6511 1 1.0457127232322474e+01 1.2560886859916460e+01 2.3897507211997148e+01 -2 2 1
414 1 8.4371863219269638e+00 8.1131041885377044e+00 2.3992305817948907e+01 1 1 0
707 2 5.1143310938532549e+00 1.1495264884989146e+01 2.6744313025049166e+01 0 0 0
709 2 5.1143310938532549e+00 8.6813074622396318e+00 2.6744313025049166e+01 0 0 0
711 2 6.3328104004866130e+00 9.3847968179324699e+00 2.6744313025049166e+01 0 0 0
750 2 6.3328104004866130e+00 1.0791775529304973e+01 2.6744313025049166e+01 0 0 0
752 2 7.5512897071223195e+00 1.1495264884989146e+01 2.6744313025049166e+01 0 0 0
754 2 7.5512897071223195e+00 8.6813074622396318e+00 2.6744313025049166e+01 0 0 0
756 2 8.7697690137539954e+00 9.3847968179324699e+00 2.6744313025049166e+01 0 0 0
797 2 8.7697690137539954e+00 1.0791775529304973e+01 2.6744313025049166e+01 0 0 0
799 2 9.9882483203885020e+00 1.1495264884989146e+01 2.6744313025049166e+01 0 0 0
801 2 9.9882483203885020e+00 8.6813074622396318e+00 2.6744313025049166e+01 0 0 0
803 2 1.1206727627019468e+01 9.3847968179324699e+00 2.6744313025049166e+01 0 0 0
844 2 1.1206727627019468e+01 1.0791775529304973e+01 2.6744313025049166e+01 0 0 0
846 2 1.2425206933655218e+01 1.1495264884989146e+01 2.6744313025049166e+01 0 0 0
848 2 1.2425206933655218e+01 8.6813074622396318e+00 2.6744313025049166e+01 0 0 0
662 2 2.4041386731800785e-01 1.5716201019109553e+01 2.6744313025049166e+01 0 0 0
664 2 2.4041386731800785e-01 1.2902243596365704e+01 2.6744313025049166e+01 0 0 0
666 2 1.4588931739518196e+00 1.3605732952052724e+01 2.6744313025049166e+01 0 0 0
697 2 1.4588931739518196e+00 1.5012711663420976e+01 2.6744313025049166e+01 0 0 0
699 2 2.6773724805856314e+00 1.5716201019109553e+01 2.6744313025049166e+01 0 0 0
701 2 2.6773724805856314e+00 1.2902243596365704e+01 2.6744313025049166e+01 0 0 0
703 2 3.8958517872201637e+00 1.3605732952052724e+01 2.6744313025049166e+01 0 0 0
742 2 3.8958517872201637e+00 1.5012711663420976e+01 2.6744313025049166e+01 0 0 0
1105 2 1.1206727627019468e+01 2.3454583931663336e+01 3.3317686974965923e+01 0 0 0
4705 1 7.2504872765118105e+00 2.2361804046748031e+01 2.4040372252859626e+01 -1 -1 1
744 2 5.1143310938532549e+00 1.5716201019109553e+01 2.6744313025049166e+01 0 0 0
746 2 5.1143310938532549e+00 1.2902243596365704e+01 2.6744313025049166e+01 0 0 0
748 2 6.3328104004866130e+00 1.3605732952052724e+01 2.6744313025049166e+01 0 0 0
789 2 6.3328104004866130e+00 1.5012711663420976e+01 2.6744313025049166e+01 0 0 0
791 2 7.5512897071223195e+00 1.5716201019109553e+01 2.6744313025049166e+01 0 0 0
793 2 7.5512897071223195e+00 1.2902243596365704e+01 2.6744313025049166e+01 0 0 0
795 2 8.7697690137539954e+00 1.3605732952052724e+01 2.6744313025049166e+01 0 0 0
836 2 8.7697690137539954e+00 1.5012711663420976e+01 2.6744313025049166e+01 0 0 0
838 2 9.9882483203885020e+00 1.5716201019109553e+01 2.6744313025049166e+01 0 0 0
840 2 9.9882483203885020e+00 1.2902243596365704e+01 2.6744313025049166e+01 0 0 0
842 2 1.1206727627019468e+01 1.3605732952052724e+01 2.6744313025049166e+01 0 0 0
878 2 1.1206727627019468e+01 1.5012711663420976e+01 2.6744313025049166e+01 0 0 0
880 2 1.2425206933655218e+01 1.5716201019109553e+01 2.6744313025049166e+01 0 0 0
882 2 1.2425206933655218e+01 1.2902243596365704e+01 2.6744313025049166e+01 0 0 0
691 2 2.4041386731800785e-01 1.9937137153242116e+01 2.6744313025049166e+01 0 0 0
693 2 2.4041386731800785e-01 1.7123179730480569e+01 2.6744313025049166e+01 0 0 0
695 2 1.4588931739518196e+00 1.7826669086173798e+01 2.6744313025049166e+01 0 0 0
734 2 1.4588931739518196e+00 1.9233647797537643e+01 2.6744313025049166e+01 0 0 0
736 2 2.6773724805856314e+00 1.9937137153242116e+01 2.6744313025049166e+01 0 0 0
738 2 2.6773724805856314e+00 1.7123179730480569e+01 2.6744313025049166e+01 0 0 0
740 2 3.8958517872201637e+00 1.7826669086173798e+01 2.6744313025049166e+01 0 0 0
781 2 3.8958517872201637e+00 1.9233647797537643e+01 2.6744313025049166e+01 0 0 0
783 2 5.1143310938532549e+00 1.9937137153242116e+01 2.6744313025049166e+01 0 0 0
785 2 5.1143310938532549e+00 1.7123179730480569e+01 2.6744313025049166e+01 0 0 0
787 2 6.3328104004866130e+00 1.7826669086173798e+01 2.6744313025049166e+01 0 0 0
828 2 6.3328104004866130e+00 1.9233647797537643e+01 2.6744313025049166e+01 0 0 0
830 2 7.5512897071223195e+00 1.9937137153242116e+01 2.6744313025049166e+01 0 0 0
832 2 7.5512897071223195e+00 1.7123179730480569e+01 2.6744313025049166e+01 0 0 0
1076 2 7.5512897071223195e+00 2.4158073287355855e+01 3.3317686974965923e+01 0 0 0
834 2 8.7697690137539954e+00 1.7826669086173798e+01 2.6744313025049166e+01 0 0 0
870 2 8.7697690137539954e+00 1.9233647797537643e+01 2.6744313025049166e+01 0 0 0
872 2 9.9882483203885020e+00 1.9937137153242116e+01 2.6744313025049166e+01 0 0 0
874 2 9.9882483203885020e+00 1.7123179730480569e+01 2.6744313025049166e+01 0 0 0
876 2 1.1206727627019468e+01 1.7826669086173798e+01 2.6744313025049166e+01 0 0 0
904 2 1.1206727627019468e+01 1.9233647797537643e+01 2.6744313025049166e+01 0 0 0
908 2 1.2425206933655218e+01 1.7123179730480569e+01 2.6744313025049166e+01 0 0 0
728 2 2.4041386731800785e-01 2.4158073287355855e+01 2.6744313025049166e+01 0 0 0
730 2 2.4041386731800785e-01 2.1344115864611251e+01 2.6744313025049166e+01 0 0 0
732 2 1.4588931739518196e+00 2.2047605220292461e+01 2.6744313025049166e+01 0 0 0