LAMMPS data file via write_data, version 29 Oct 2020, timestep = 100000

6750 atoms
2 atom types

0.3002560240130556 48.91974397598656 xlo xhi
0.29903374609952493 48.72060218431045 ylo yhi
-0.14550469850979297 60.207504698509666 zlo zhi

Masses

1 18.015
2 12.01

Atoms # atomic

2222 1 20.718875193125545 2.04140094574051 0.9410700255478028 0 1 1
3653 1 21.68338983272828 22.08053327649361 19.930397500916932 1 0 0
6474 1 4.446567873461719 2.9092379441774603 1.661981753994868 0 1 1
1338 1 1.22530892165646 11.918289896676747 10.403793657962227 1 0 1
3521 1 20.456884171256117 1.0950823950435997 18.214549035906213 0 0 1
378 1 9.685873141700753 1.4474097371757768 2.1193449389271692 -1 1 1
3161 1 16.799479641032022 3.2132921003039887 2.738690646893364 -1 -1 1
1781 1 18.313603327707735 21.073173905504294 0.564644553071786 1 0 1
5669 1 10.32512400075432 24.48756468980679 15.89337580656856 1 2 1
2143 1 20.244730335298776 24.342980297043006 10.649073128432818 0 0 0
141 1 20.33189834857403 4.302210035271119 4.441952946174021 -1 -1 0
5570 1 23.283445570381392 4.6056393487825495 0.9843759331980686 -1 2 1
3188 1 16.525100087945187 13.023956424500417 0.4192420258409819 1 0 0
2096 1 3.0994183526494785 5.101696487861603 2.8602510031029436 1 1 0
1412 1 6.233211204744305 7.777940906539584 1.8886210013327425 1 0 1
194 1 9.262310118995833 14.293429235284488 19.01315471012997 1 0 1
3165 1 6.583610585314913 4.097948958664219 3.979013935765262 2 0 1
3977 1 9.623871563794818 3.9213686907695395 3.6277848811498274 0 0 1
5319 1 10.487335322144661 7.611611541064718 3.1881628441806247 0 0 0
48 1 8.39775197171517 5.977964476122093 1.6492068050163349 0 0 0
1890 1 14.206778065067404 2.7593860597086404 3.956765960669971 1 1 0
5292 1 10.671723631856132 8.341294958157714 0.5383609746038094 1 1 0
5286 1 15.150842174568856 6.154247534002602 1.0973002524382185 1 2 0
2139 1 13.367106806840432 3.950957630728453 0.5193593209384744 0 0 0
6373 1 15.310373805796207 7.587073675919364 3.49366800695943 1 1 1
6571 1 19.745649041062972 6.399910497523297 0.6776017084828548 0 -1 0
3412 1 3.0799261449932667 10.399780108836186 0.2973965139641599 1 0 0
1341 1 24.245201871164685 7.631223333315878 1.1765595803145443 0 0 1
1567 1 22.457268934116726 9.954683318610993 4.591727294232165 -1 0 1
3990 1 3.843252860335596 11.080809820912169 3.9818345642595228 -2 0 1
1731 1 21.475851698657134 13.440672399898508 0.16245788546714046 1 1 0
6544 1 12.432177970987553 14.158449558752789 0.8857605136486049 0 0 1
11 1 7.407404827761348 8.74797879635545 5.839986698643034 0 1 0
1792 1 7.9289832137474985 10.060769906359642 1.3170394347021706 0 -1 0
6586 1 9.20759129360087 9.726258558783371 4.04039782286654 1 0 0
4780 1 13.670276387407664 12.386956105627041 3.3260682405947524 0 -1 1
2071 1 0.4484898095289655 0.8170555870668356 6.997866078629403 -1 1 0
6733 1 17.145663145766186 9.681811701150147 2.857092126038568 -1 0 0
4800 1 19.15311772482445 12.470719938935009 1.155571106260267 -1 -1 1
3421 1 19.620076979332232 9.82640467210087 1.2136283338848144 -1 -1 0
4958 1 23.7456611957852 10.776231573672863 15.003879035186346 -1 1 1
4715 1 22.2845998711395 9.262017191107175 1.931868343909783 0 0 1
1516 1 15.74898838308404 24.13215319767916 1.5587100554251399 -1 0 1
5265 1 16.375367461539412 23.199853344457832 8.245295677639623 0 -1 1
510 1 6.684946922719385 23.042391841012563 12.54175162186963 1 0 0
6707 1 7.819153629567243 12.739913555662138 0.46024009919290443 1 2 0
5093 1 10.185505883812974 14.946007288363395 1.7754693148776046 0 1 1
4959 1 23.47020874792265 16.064765803149733 17.06359038159141 -2 0 1
55 1 13.970829614044689 17.40098553020792 2.2834252179392163 1 1 1
6637 1 19.02311843051104 13.449399262745438 3.6139209409709125 0 0 0
1935 1 10.650685181398103 18.857023836152305 19.91456407729801 -1 0 0
4852 1 2.845004030470583 0.998681618000742 17.751319426389024 0 1 1
1822 1 22.780705811962328 15.544602380716782 1.6705878214760825 0 1 0
412 1 3.3476757479791304 17.136899277485952 1.3996075143592663 0 0 0
6336 1 0.9015910387972826 20.745406685353526 1.5623830359431035 1 1 1
3921 1 18.8172078019244 2.139917004124282 4.243374465093523 1 0 0
4828 1 9.750318739128327 17.58592735347043 1.299977968711412 -1 1 1
1827 1 12.75180716774877 19.32311020760624 3.7387415457025406 0 1 1
3378 1 2.009151745152221 14.087106914330558 12.153242833672156 1 0 1
6600 1 18.05895177190803 23.748843297043567 17.60354531281687 0 -1 0
1938 1 12.84527001884281 15.187951364132301 3.8914117209307735 0 0 0
2117 1 14.726427108804401 16.441905355084103 5.86210255849722 0 1 0
5240 1 17.0455089837048 15.646188586009249 4.559747973085131 1 2 0
5492 1 18.491923512122654 18.09155601121278 4.110254797429297 1 0 0
1741 1 19.354695177361364 18.528676847498172 1.447980962000148 -2 1 1
2266 1 24.358768365352944 6.173212090092086 17.237972976411292 0 0 1
3108 1 22.61409399751356 19.49003984145579 3.9678493909666077 -2 -1 1
2159 1 22.109817584009843 18.170975074910245 1.7360881947095745 1 1 0
5530 1 2.228135462172616 6.129923514889471 0.44834593993231 0 1 0
5303 1 3.442811602622814 21.211383159298105 1.3925009765621432 3 1 0
487 1 19.3501414229939 15.778881792901181 0.4891844717070931 1 0 0
5434 1 8.915005987730163 21.898763841430455 0.46122882973495394 0 0 0
1783 1 7.100685956986061 18.659678540782124 2.9306987399415094 0 0 0
5573 1 13.28920819186557 21.5612015032969 2.137352106670859 1 1 0
3643 1 12.974684470507112 23.045013042909037 5.4590785510670585 0 0 1
2064 1 21.856757187493056 0.8370717248239516 3.241053513113699 -1 0 0
36 1 15.648626887999468 21.262435351279194 1.2722559659427295 0 1 0
3110 1 17.36446607779218 22.710628307856936 5.143338470838629 1 0 1
4760 1 5.433007823735996 12.234004412696304 19.22336374383752 -1 0 1
276 1 22.97176118076686 21.54706827829424 1.484821678271946 0 0 0
4701 1 18.750021302988067 22.705326491036583 2.501670869218141 1 -1 1
3221 1 1.4574262463312715 4.038362255831653 4.40139757973204 1 1 1
93 1 7.518356785231471 2.5687959861303895 6.07265496213586 1 1 0
3566 1 5.153699807860634 2.069599011885926 7.436869571065936 0 -1 0
3787 1 10.03575767635799 4.391212744409251 6.546776404333167 -1 1 0
3676 1 11.323540719128893 2.1516230289561453 7.670647464705095 1 0 0
4985 1 16.57412956719918 15.301136873768833 1.6972795364878561 -1 1 1
2180 1 13.960248031523752 2.8128132172017635 6.715105366835757 -1 1 0
3134 1 1.9008528805740765 1.6023739560379442 0.8559710346982325 0 2 1
4815 1 4.67813248309879 1.2351267655811387 3.9206304455950605 1 0 1
1719 1 20.284234573171616 5.006772537741553 6.936565140333025 0 0 0
252 1 5.838024008925926 18.011334998720777 18.998347958356355 0 -1 0
1423 1 2.32536266639338 8.894496849893098 4.102814997065618 1 1 1
199 1 4.54087497594836 7.28209452356009 3.7022254142754916 -1 2 0
5463 1 3.7800398196666087 6.479548787123399 7.720509348798188 -1 -1 0
5528 1 5.757896359567917 6.461475147202156 5.67248972294065 1 1 0
5601 1 9.267845868304384 5.538194061802263 8.974817528284913 0 1 1
1776 1 12.90293765971824 8.038049786556087 4.6408712774860446 0 0 1
5401 1 12.482880632710486 4.569394692852801 3.3836328310349866 0 0 0
532 1 16.714288678315434 5.550563929709999 4.39974302600054 0 1 0
3705 1 14.362962069361053 5.35761470737714 7.817554425014305 0 0 0
3918 1 12.210337129787543 6.093375694832805 6.366104470340576 1 0 0
409 1 19.145163387836586 6.425562523680601 3.2487446838300675 1 0 1
6518 1 19.717436440318906 9.016297420958441 4.724065679332097 0 0 1
4962 1 21.338922484999866 7.673536938245938 8.107663026192633 2 -1 1
2014 1 22.918704084925114 3.4441800244913865 3.5774663612475535 -1 1 0
6411 1 24.27502452523456 3.193619280473505 6.2910805644875305 0 0 1
1807 1 21.133034240679805 22.618342365201233 3.355432800319253 0 0 0
6676 1 1.5198792162583024 10.793440362581455 7.200426454344966 -1 1 1
1387 1 5.72266394646979 11.05783610298782 5.765712837697552 0 0 1
1993 1 8.70920309949407 7.978243029977932 7.9395765040814545 1 0 0
5393 1 12.717223253610536 9.723495193178266 6.996876686011278 0 0 0
2032 1 11.293401843062563 11.298756306970928 4.660229812365513 1 1 0
1825 1 17.778853406669114 11.612489020505999 4.939903146709955 1 1 0
3725 1 14.177067796541108 12.057661849840295 7.6913148843468475 1 -1 0
3959 1 19.60453845985922 9.899926948256054 7.276084679132963 0 1 1
2031 1 17.353904366554403 8.814063760726656 8.275017020120249 0 0 0
1670 1 21.19057293346185 12.243908872290943 7.897584131718498 0 0 1
357 1 12.277062346602554 24.34661111994417 2.5492323477463175 0 -1 0
2326 1 2.208980349140486 12.69420448768642 5.325745915185167 0 0 1
1759 1 6.9360319979507565 13.780985191182925 2.8897394793309212 0 1 0
4942 1 7.847099434687605 12.959893459760789 6.090027641966992 0 0 0
3839 1 9.923112092647525 13.599651459757817 4.433451453720202 1 0 0
6525 1 10.720704006276973 15.286278748947518 6.572044434518732 0 0 0
504 1 15.611359205214827 13.232277859321705 5.343084204291586 1 0 1
3581 1 12.209167013647518 13.870652032432114 8.664062329334447 0 0 1
2191 1 16.047327659197908 12.01603416795155 9.595664435124172 -1 1 0
1965 1 21.576103773890768 14.580804466332971 4.074059843780741 -1 0 0
2095 1 18.627510854723685 13.08671545532179 8.669313107195027 0 -1 0
3735 1 22.405777041867886 12.52874416497332 5.326324644868317 0 1 0
5151 1 0.5777523128980506 22.137755888754267 18.47639006774099 0 0 0
3159 1 3.0818122672080546 14.501923818829015 0.30255722025300125 1 1 1
3799 1 3.658097770595024 14.989368119064835 5.758505917695397 0 2 1
3162 1 2.69045466702285 17.025584953627455 4.474091041526277 0 1 1
5485 1 4.929860816968729 18.913869080793262 5.1603944045811625 0 1 0
6356 1 7.399674126561388 18.509659638347767 6.737141147690176 1 0 1
3325 1 10.236338038697955 18.786586949477513 3.9999908310573282 0 1 1
4948 1 5.714643824255159 16.261882975338047 3.275452371275692 0 0 1
3892 1 13.597546039916068 20.36587016109619 6.041165377222923 -1 0 1
1912 1 12.181088653019318 19.20898832020548 7.913438624140182 1 2 0
3458 1 15.879703905609508 18.89340480807103 6.470958318997784 -1 1 0
1854 1 19.185414056451457 16.27340027407558 9.261839484796818 -1 1 0
83 1 22.164558073568397 16.2521302673228 5.9165240309129565 -1 0 0
3820 1 20.68977833430413 18.705846892215096 5.74403957365797 -1 1 0
5575 1 12.809227929731767 11.511561403260396 18.705188232844115 1 0 0
6551 1 15.828535257549637 0.31498047223247594 16.689833458636244 0 1 1
3856 1 4.802838101498786 21.427620038303147 3.8454924173740994 1 1 0
3256 1 7.215602809861015 23.18750415886886 4.657294704030304 2 1 1
116 1 8.5991937294035 21.24587366646924 3.4135714590811994 0 0 0
34 1 10.114218186636926 22.958397953142168 5.991123792259675 1 1 0
6688 1 11.152809805389456 23.267151593901183 8.938654477711292 0 0 0
3463 1 22.132267134662232 17.611647776079742 18.668496794348016 0 -1 0
3905 1 16.540164872898405 20.285874013917784 4.300666093316074 0 1 0
5459 1 19.231083646011975 22.90603631113078 8.343070399944006 0 0 0
1664 1 20.508605430832613 20.564428190454677 7.919404668494158 -1 0 1
1498 1 2.6198614533705715 0.532583283112684 10.951064737141447 1 0 0
1976 1 23.246671728420644 21.158286272957017 8.118471937257654 -1 0 0
3555 1 2.3255695287122693 3.129204220364549 9.728250632825278 1 0 0
18 1 0.8952894654847988 13.403068105729627 0.7913067439666862 1 1 0
4881 1 4.605060469300899 4.171510616181317 8.804652262004266 0 0 1
1977 1 6.448112051453877 5.321262802139816 10.422629570437481 0 1 0
456 1 15.176361708781986 14.28384062317426 19.608960586651826 0 -1 0
1720 1 9.217754149812713 2.7530464228667535 10.52251850644689 2 1 0
6404 1 11.97371954658134 2.407010825878497 10.449810057700107 0 0 0
318 1 21.76826601291527 11.99731114193128 19.074405057398234 -1 1 0
5398 1 15.29345109097684 11.124834273445638 1.6194035371158055 1 1 0
5508 1 17.683922692123986 1.4321198302093194 11.34759761957412 0 0 0
142 1 24.59348674957092 3.027548117793847 9.690321095306983 -2 0 0
5403 1 23.0782264594198 23.622566205293367 9.690107418778815 0 0 0
4683 1 21.83448282855724 2.627233476888012 10.09126068518656 0 1 1
6380 1 13.650039333961956 24.27048814334186 7.9672067728704405 0 0 1
1872 1 1.2300078619541135 7.313943817535203 11.86788898304878 1 2 1
2147 1 4.201587698149361 8.997443749671017 9.236220518763162 0 0 0
6647 1 6.520613917571258 7.9376853464111825 9.923165101287605 0 1 0
3946 1 11.497919380237184 6.927721491162544 9.865554282287603 -1 -1 1
1702 1 13.286281130657468 5.058247339545106 10.729871030245432 -1 0 1
465 1 15.952360418008807 5.729450507163399 10.77935185760472 -1 0 0
1604 1 13.828352042687774 9.825957825533818 11.040376171160215 -1 0 0
6621 1 17.034589049786952 4.781689798070505 6.917395632668442 1 0 0
1527 1 18.03029735940866 6.189193368437791 8.95984885470754 0 1 0
3639 1 20.31225552606117 5.257073690229326 10.871538525115284 0 0 0
2311 1 3.337154885812098 23.821485379804482 0.6192204583928341 0 0 1
566 1 21.66158160774573 2.890710149043317 7.341121945933522 1 1 1
527 1 2.7590552385412184 9.56368202426456 11.227207651978922 0 1 0
173 1 1.3205207568632555 14.115029230304815 8.5168902803462 0 -1 0
342 1 1.2324839231736386 1.36610718161122 15.246864660129425 1 2 0
3052 1 4.391913332784789 11.341466179270155 7.850274139250297 -1 1 1
5101 1 6.793790269194234 9.252693812341425 12.258542640355737 -1 1 0
3638 1 10.210811688094717 9.946072569966837 8.210678550734881 -1 1 0
1779 1 11.09375808586476 9.822996565925521 10.836976218906106 1 0 0
444 1 14.44625682417367 8.244684055628495 8.692872104526383 -1 0 0
438 1 13.290585846961987 14.133892400820866 11.370667106380056 0 -1 0
1766 1 17.057148668689777 7.661456957230533 12.603326600038423 0 1 0
2160 1 12.852938073872947 12.513861407912 13.674967578571861 0 0 0
241 1 17.69245723021249 9.537302102215557 10.740074725527593 0 0 0
2250 1 20.826660521559848 9.793418705100695 11.482082416373661 -1 0 1
399 1 23.424988664230163 20.637989610698217 17.218279909735255 0 -1 0
5342 1 23.504973128033708 8.13058485928785 6.564095501287518 0 0 0
4963 1 22.019352679955198 7.515913000145711 10.775033334532477 -2 0 1
3088 1 4.151369220386066 14.832972396598135 8.874216438731228 0 1 0
6628 1 6.575002673003753 15.1625421682351 6.07689061143805 0 1 1
6460 1 5.787722308901315 12.632775890532951 9.448983398681532 1 -1 0
3366 1 8.431306874790977 12.039016287010655 8.71979149216934 1 -1 1
3755 1 9.908568872032427 13.560982176699623 10.359925904736839 1 0 0
473 1 12.806642812130452 16.875068330649114 12.21138489521183 0 0 1
6562 1 8.314058204811937 16.038353026118386 10.42026794559717 1 -1 0
3186 1 15.996896710687825 14.288348882261827 11.876655396017313 -1 1 1
4857 1 21.664490820654446 12.082973386508609 11.053187159073824 0 0 1
6488 1 21.80257925422868 15.340984720306105 8.437913912136116 -1 1 1
5124 1 23.943279520017647 11.687012567454225 9.512868108484122 1 1 1
256 1 18.016221200210623 1.9772562683266273 7.018506354073728 0 0 0
6645 1 6.845536557500738 17.95479616322062 0.039622139991095956 1 0 0
6533 1 4.393448170897749 12.372690650761486 1.65597630389065 0 -1 1
5258 1 2.1834101320551342 19.22137405236831 7.209624249669378 -1 0 0
1787 1 4.728322401107886 18.306015600899432 8.963524875458264 1 1 0
1394 1 6.540339412818573 16.365547969206066 8.368168824853582 1 2 1
1730 1 10.008297535820796 17.942923238359132 6.433547935530332 0 0 0
2017 1 8.987988882569386 18.47835479511223 13.440449696810827 -1 0 0
3101 1 13.560914475637915 16.565761118056077 8.854398873298088 0 0 1
5304 1 16.11624613602828 16.748377690485974 10.411288692098998 0 1 0
1891 1 16.86220711995052 18.992237410089302 9.060115308936458 -1 1 0
2079 1 20.051622507982938 18.750283853870553 10.009285323730035 -2 0 0
5284 1 17.43221800692824 4.794672263567256 0.16808611010575947 1 0 0
3369 1 0.6914400458297737 18.08266108448106 0.4377925396845026 2 1 0
2018 1 7.14371448247001 7.334282874707034 19.69387210573408 -1 1 0
5612 1 3.345354083814734 22.758865352665474 5.93401157909505 1 2 0
6698 1 4.754754155580015 23.421074016453872 8.398815261462154 2 2 1
6381 1 4.516090639854992 22.832830560986363 11.043858985478249 0 -1 1
1464 1 6.083983344308433 20.03007278631776 10.728776738754561 0 0 0
4771 1 7.855113488850655 20.348503301841376 8.64000778290357 1 -1 1
281 1 7.553190024587969 22.59680320573581 7.612096584776085 0 -1 0
3297 1 10.350542764440593 20.679116617788882 9.80563272332729 2 0 1
3724 1 6.896342103350872 1.0170842298336848 11.116708431851348 -1 0 0
4956 1 19.96200390884203 24.2638011394481 5.925199113965312 1 0 1
3201 1 11.433410900230545 24.257289735298677 -0.10585336369635837 1 0 1
1606 1 13.144712293034871 21.72268771657992 10.994756545822613 0 0 1
6625 1 15.782320722282359 21.298520961094233 10.096892034071852 -1 1 1
45 1 18.31336393397116 21.387654932081436 11.214418003137322 0 0 0
1372 1 19.32034832672026 19.302755489746087 13.047701880296694 0 0 1
3624 1 24.467113273982758 7.6091774090406235 12.002294853091167 -1 0 0
1986 1 22.956757494668125 19.031957549148288 10.307508098570425 0 -1 0
1328 1 0.36619335003237197 12.071142827148629 14.579367045557257 0 -1 1
190 1 2.930240445267109 3.5695104754116085 15.158966638010005 0 0 0
2006 1 5.290776674917436 3.085358425262396 13.940847933607534 -1 1 0
3283 1 7.791979531972954 4.157899659007157 12.718837115599456 0 0 0
6391 1 9.59517409076087 2.239599120005229 15.69351117886248 0 1 1
3858 1 13.758127441992253 1.7436687795675987 15.415080637051563 0 0 1
3222 1 8.515546540288716 21.02488014187611 17.640874755516073 2 0 0
2072 1 14.990577236531301 3.980399472397304 14.753773530630669 0 1 0
3424 1 18.948028492086387 1.3540994147090606 13.81503845835047 0 0 1
6346 1 17.66613924223307 9.145986748030733 19.170556152707338 0 0 1
4695 1 24.208762449541634 12.144407746555775 0.6554276992038179 1 0 1
6435 1 1.200287755463195 23.578158972453252 16.333005936135304 1 0 1
5442 1 1.599656138356932 6.560527510614484 14.995031708264627 0 0 0
5323 1 1.8494031877477022 4.474216008380993 12.236998724265877 0 1 0
6454 1 0.4122152312110088 13.688061565198712 19.39748443898139 0 1 1
6482 1 4.528060727358566 5.5447620648271565 12.76226473647052 0 0 1
39 1 3.236110821162824 9.665406877930733 14.598552203412012 -1 -1 0
1696 1 9.988308318549326 4.6581389473173616 14.437684460879321 0 0 0
3111 1 12.572831210826692 5.393634931893032 13.867173148170005 0 1 1
6580 1 16.68038687071967 3.893653189280009 12.556065211820542 0 0 1
3693 1 15.232261133837689 7.627861642839566 18.538283092990405 0 0 0
6747 1 18.90134932683662 5.231972336002528 13.160235458513933 0 0 1
1386 1 22.381428138669346 4.6312453354530225 13.216866276021378 -1 0 1
5214 1 20.935008396351748 21.788505672729062 17.03191758325111 -1 1 1
315 1 21.53183763391644 2.1262643715389515 13.97920972746234 0 0 0
2089 1 17.258959286063956 22.732775867655914 14.885947847970739 1 1 0
5122 1 3.5306203405707026 11.894544969628456 13.502608509335266 1 0 0
3506 1 21.455661130624232 0.5325311064154887 6.032894931474532 0 0 0
4848 1 5.996776091829851 12.047825487919479 12.227401032418513 0 1 1
4749 1 5.74467948664339 7.666132494483091 14.387140257228616 0 -1 1
2314 1 9.329286701890295 10.378134897655851 13.16726996800838 1 1 1
3822 1 13.180205797988572 7.885806374880202 12.976714480945162 1 -1 0
5340 1 10.3106236392256 12.272953912559615 17.497728560551614 2 0 0
6731 1 15.207117003100306 8.103344854278298 14.897530140144607 1 0 1
1895 1 11.961266181960296 10.20130796176401 14.358062870407789 -1 1 0
1427 1 18.980097084727362 11.368315906603135 15.186449357572934 1 -1 1
1406 1 21.261052362298937 9.924563609051926 14.315789637735852 0 0 1
1674 1 20.847157908847883 7.741183959742308 15.75193927046297 0 1 1
3503 1 19.450018454689758 23.565836863831553 13.236338658555942 0 0 0
1663 1 3.603478211337201 16.808032561988973 11.407989393490041 0 0 1
4995 1 6.650198840201209 9.397271805906263 17.187767464630358 1 0 0
6573 1 7.127012826958326 14.120971897114313 13.956938597082464 0 0 1
2184 1 6.304352325407666 16.372979224564766 12.761821729373374 1 -1 0
1738 1 9.462769515105936 12.987784432099527 12.799386657804725 -1 0 1
6603 1 12.507276615775769 16.17885609284553 14.974243310451936 0 -1 1
5001 1 8.365412407123594 15.315570595680088 16.224597152983037 1 1 1
231 1 15.50248389632822 10.69605079725506 13.681671354606982 0 0 1
4897 1 10.929628873016751 13.642591596228034 15.18097825397718 0 -2 1
3507 1 17.749183270624425 12.013764253844425 12.891001095078858 0 0 0
1859 1 22.81086167911052 13.176686760966042 14.1058636854814 -1 0 0
3764 1 22.680575400050316 16.206870086081167 13.158913546054324 0 0 0
5136 1 1.4025582457086194 18.144970891786077 9.934279098015873 0 1 1
211 1 2.198950573058605 17.362419268286335 13.875135987552147 0 -1 0
4756 1 6.313283661322923 19.66296840437019 13.863853656786892 1 -1 1
6462 1 10.440393985887011 17.894727648316437 11.156817314882987 0 1 1
464 1 11.671413772974223 19.089564191370275 17.371525971019942 -1 0 0
5077 1 10.12719505416964 17.276116296788324 15.664193211521123 1 1 1
4729 1 19.534881166263947 13.942301844648073 11.238017364653023 1 0 1
5267 1 16.39451825991023 16.716922351576233 14.960576957211313 2 0 0
1396 1 20.01046816241011 16.186784776345938 13.14271849802227 0 0 1
3469 1 15.555021539665535 18.024588821565196 12.59828894326259 -1 1 0
2081 1 4.988280213640284 0.688865267700125 12.824602813783363 0 0 0
1588 1 23.51637501972317 18.434565604302378 15.221789143840384 -1 0 1
1512 1 23.65506929016376 16.21832996462274 10.12693031862313 0 -2 1
1728 1 21.889372200309012 20.008880504492435 13.304501920559634 0 -1 0
5531 1 3.6871932324445744 23.641999535248523 17.545565034744556 -1 -1 0
3878 1 2.5856445265540686 20.506097907471162 11.57177019907737 1 0 1
1630 1 1.4227379497526644 22.502724672997196 13.642368804401007 0 -1 1
1360 1 13.097812386547005 24.148310479754663 12.511137233796147 0 0 1
3340 1 9.654027896582706 24.154638378790267 19.016425665611923 -1 1 1
1478 1 6.473957914297407 21.239405689760787 16.030908703317724 0 -1 0
1868 1 10.576838392125802 20.565939682577547 13.887025950210122 -1 0 0
3620 1 14.781264571525817 20.179688857283338 15.484298273070701 1 -2 0
6470 1 13.301490460497941 20.002729654126284 13.1200131463827 0 0 1
140 1 14.866935869497873 24.22862661004037 14.353120127530424 0 -1 0
4728 1 17.51935380118337 19.66612969979044 15.253285206303245 1 0 1
152 1 18.637885551332452 20.164149231607123 17.515943533604446 -1 1 1
2003 1 14.088241208298225 22.518344223247695 17.34092110745421 1 -2 0
2190 1 3.437539232433894 3.503423132817392 18.12335068315656 -1 1 0
3675 1 1.4682918080222869 5.720157043076595 19.389461848341263 1 1 0
6741 1 23.52175758344946 21.94963741805524 5.378782236188902 2 1 0
5050 1 19.385830301606994 14.356528120464617 19.508278486548278 0 0 0
4813 1 6.999757834782224 2.393102640804975 15.852295542968706 1 1 1
2045 1 13.225121473298143 9.929739312248195 0.4766472550406924 1 -1 1
3869 1 10.606064678053928 2.4191301052466123 18.145221567740077 0 0 0
380 1 13.17047713405438 2.387715909669821 18.012937143190484 1 0 0
3414 1 18.234868074119703 2.0536374675479556 16.699294652948705 1 1 0
102 1 21.37383614351795 22.343135873925583 14.302915098903494 0 -1 0
1399 1 19.603658174439868 17.43591296310124 17.69948683949835 0 0 1
203 1 23.75534944283676 10.275303337020727 17.786021368132495 1 -1 0
2252 1 22.46461627553508 1.9770233766292742 16.80882928173055 -2 1 1
478 1 2.6800785146555897 7.09927969494359 17.29811343333528 -1 1 0
5568 1 1.5112314155436863 5.3879181158691845 6.813350695767409 2 1 0
6508 1 5.619814497972688 6.68480920670356 17.17745971365638 0 -1 1
3455 1 6.205175521044555 4.001723006598187 17.767782750026868 1 -1 1
3224 1 9.242532000859967 4.755899377610336 18.751957814516317 0 1 1
3430 1 8.628087685519784 6.288076844236698 16.104988832618936 1 -1 0
1810 1 10.200472122974578 8.21336223007897 17.079509581351743 0 0 0
3231 1 2.2620557680906166 17.533798856307566 18.368117397598507 1 1 0
61 1 16.197571150648997 5.385944969963752 17.04958939014955 2 1 1
5123 1 19.09401486013139 4.534608768197593 17.397541323597736 -1 1 0
1756 1 18.288366458276236 6.9818345142782565 15.80890091549198 -1 1 0
5419 1 21.528041750351264 5.242398254840301 16.051039346077125 1 0 0
1836 1 22.819865996540134 4.14339885000065 18.895808574915932 2 1 0
6674 1 2.1498484054053577 9.51860327974499 18.178661512403163 1 0 1
1928 1 11.977876418470954 22.56011567381447 19.42649259433477 0 0 1
3217 1 1.5882367430013806 21.44955509153493 8.325760187586457 0 1 1
2114 1 4.436785649857077 11.012449794993486 17.034377510187884 1 0 0
2295 1 2.9295566583864354 2.0372515240461855 5.679008741665238 0 0 1
5092 1 8.986037065871047 10.55554888338326 16.153868904600454 0 1 0
1368 1 12.73642565258067 9.333325068530142 16.68642410005623 0 0 1
6745 1 15.277594643129726 10.947200382460379 17.05219967847658 1 1 0
3703 1 9.573190276473984 22.41130548816217 12.15243911371745 1 0 0
5156 1 17.703567317639067 9.507456049095033 16.32735269631471 1 0 0
1590 1 16.16140062405327 13.47216436801168 17.126887049494083 1 0 0
101 1 11.102464351714232 21.74164430802963 16.491990095062935 0 0 1
1898 1 3.675388169150124 24.370373286237683 13.563644651874911 0 0 0
3228 1 22.466130665467308 8.12488891551224 17.972308803756594 0 1 1
4764 1 2.6109250707802873 15.467039166380538 16.507793811871668 0 1 1
1818 1 5.012472891988783 13.425035793456741 15.84518168008985 -2 1 0
2073 1 17.97752285558222 16.6713242621281 19.733700775810252 0 0 0
1631 1 6.000317791499878 16.046319279891026 17.147535760921944 0 0 1
3171 1 23.19713006625946 23.989814909133788 14.727422232856291 0 1 1
5475 1 14.923197724814175 14.272009211534801 14.732808600425331 1 2 0
6333 1 19.23174006877393 13.607339549104772 16.672053258560595 0 -2 1
5090 1 2.0109909591995683 20.044463731769408 17.103838222644438 0 0 0
5203 1 15.355074513308065 16.940050670187183 19.083049973933374 0 0 0
3734 1 22.255739895543886 13.756030602399491 16.89407854015187 1 0 0
1691 1 1.2132478908272355 19.531657328044695 14.533321598955993 0 0 1
4976 1 16.496904552336023 21.56377439074398 18.678868361661117 0 -1 1
5032 1 4.862901395873279 17.526326866778227 14.995649488866245 1 1 0
3750 1 7.200938932192523 1.839058083002127 1.282089448761853 2 1 0
596 1 0.5220572609699157 0.6229685028766699 19.396838098588237 0 0 1
3749 1 14.088362078233866 17.85544766054341 16.60458244637734 0 0 0
3753 1 1.35259738907857 8.446621428881079 1.6301403492974953 2 1 0
372 1 18.745816934228426 16.05997286553969 15.606064889769945 0 0 1
1381 1 4.610801861491427 20.082538638781916 17.69396678235013 0 1 0
6632 1 15.704028925547583 0.7631039408400592 7.263648685781726 0 1 1
3968 1 14.89243428480502 4.293280766197393 19.942050641744803 0 1 1
3936 1 0.40257228784378524 22.366376792968 5.85956889150252 1 1 1
5499 1 5.8624915879207995 23.696006807532 15.031009018634988 1 0 0
1408 1 24.357657890670225 24.42706712403202 0.2517301802002201 0 0 1
3666 1 10.784243589295903 5.111853669317923 -0.017647051623794624 1 1 0
4838 1 7.196488536807222 4.1790599029128455 -0.14211570624559045 1 0 1
1357 1 4.679069422988267 1.9024289467640323 23.092325567704645 0 0 1
324 1 3.495806346364112 13.372726484159369 20.470041195822883 1 0 0
1643 1 23.8236645473922 0.6377593540565838 39.68722047291206 0 0 0
5162 1 8.947240723494867 3.160675401288422 23.47907769642156 1 0 1
423 1 8.145495592234663 2.960278733564219 20.998692562899045 0 0 1
2285 1 7.912230878681535 19.245750460235726 20.66105360705578 0 0 0
5164 1 11.98871216870967 0.8221925310227216 22.46621116513485 0 2 0
2174 1 13.660376423958747 3.1854455269164186 22.72930756211527 0 1 0
2137 1 16.94283848780707 3.138251906510005 20.72045355768842 0 0 0
5505 1 15.645218863964628 2.261195750790921 24.05372812660559 1 0 0
3322 1 10.352560597355604 3.7844179147361445 39.4822505960185 2 2 0
1967 1 20.98666094305381 2.394331487646579 21.261669768851963 1 0 0
3308 1 5.49153449312613 22.81482929366923 39.14451939404914 0 0 -1
5486 1 24.07540099466701 4.276690504119925 24.348360341806547 1 1 0
1901 1 24.25533867341011 1.4524180252919838 23.387676500686332 0 1 0
5399 1 22.241807718387875 8.747577782563686 20.73499612284012 -1 2 0
1576 1 1.6364530785441889 2.823713166023368 20.784324576245947 1 1 1
6527 1 2.134024599254153 2.871529753052633 23.464443008968914 1 1 1
3125 1 6.070379509234362 6.532616488642143 23.990756343873375 0 0 1
6339 1 5.3979430550870715 5.576081653881997 21.279552704208015 1 0 1
5226 1 5.4433942386958005 2.6790307910866353 20.430809973475252 0 0 0
12 1 10.475435779753782 5.744000654756272 23.086392052861083 0 0 0
2126 1 10.974212828575624 6.064112043164963 20.456790065896097 1 2 0
2074 1 13.350273554011116 6.020632764991549 23.438006421824156 0 -2 0
4972 1 16.709938205655774 1.2491674288791255 36.936447079154505 -1 1 0
3124 1 17.548896418279302 3.9311305751712315 23.283857706789156 1 0 1
6497 1 23.354185817765448 0.8671814569041703 36.7253444007559 1 3 -1
1840 1 16.513656865327324 6.760531798072311 23.299139533666825 0 0 0
3116 1 19.85920161715916 10.20254530945836 20.991814879745093 -1 -1 1
425 1 17.86406858163105 20.535165846957426 21.306499838494595 1 0 0
3786 1 21.705490373754472 5.8841927767603 20.679786408708 0 0 0
2195 1 21.47882856961076 5.422337846369622 23.63413252286713 0 0 0
2257 1 2.936002562885941 9.414077145400388 20.6977324982135 0 0 1
228 1 3.7545154438367088 7.856468058800154 24.210581519446514 0 0 1
3948 1 6.420471998675087 10.319208196615998 23.430159949165304 0 1 1
6463 1 1.8996437549694465 23.920793634336526 20.428007222735324 1 1 0
3435 1 6.931585773236749 14.912784319012731 23.125434030697836 1 0 1
4843 1 5.912595028077664 9.889485940149537 20.542208524346112 1 1 1
5369 1 11.173643900312516 10.603232977080264 21.108548930074317 0 1 0
4798 1 8.248391509734898 12.389327292762935 22.81858032973596 1 1 1
5661 1 0.3791706495786384 15.537561755358817 24.533934914941888 0 -1 1
1491 1 13.9911535855219 9.431166228364175 21.27632267481776 0 0 1
3770 1 16.167369698450337 11.55737278319892 20.400433749076253 0 1 0
5113 1 17.29224921103265 9.605364351280645 24.032077961796023 0 1 1
4750 1 20.09104896980036 10.121946645891187 23.906252671641973 -1 1 1
3416 1 23.014071170323078 12.676839885464187 23.546499543088633 0 -1 0
6400 1 17.329989507270767 6.921336296681052 20.664406700940358 1 0 1