LAMMPS data file via write_data, version 16 Mar 2018, timestep = 100000

6750 atoms
2 atom types

0.0000000000000000e+00 4.9219999999999999e+01 xlo xhi
0.0000000000000000e+00 4.9019635930410494e+01 ylo yhi
2.9285273878610951e-01 5.9769147261214101e+01 zlo zhi

Masses

1 18.015
2 12.01

Atoms # atomic

3675 1 1.1678608398771239e+01 1.3370508182850966e+01 5.8224219892214704e+00 1 1 0
1903 1 3.0748479968353865e-01 1.4601467404995834e+01 6.4425652420404518e+00 1 0 0
1877 1 7.4671851188353218e+00 2.8233650196862201e+00 2.4665896765301691e+00 1 -1 0
1664 1 1.2104600840466903e+01 1.5540714490886160e+01 1.5855158645587071e+00 -1 0 1
3995 1 8.2806238395819953e+00 7.0011975256109826e+00 6.3312503502447921e+00 0 0 1
3543 1 9.9001797204505557e+00 2.6733505029612150e+00 1.5525898068306914e+00 0 1 0
3583 1 1.3534115475387050e+00 6.4536091911626758e-01 3.2119398742201986e+00 0 1 1
1895 1 1.8706505619160341e+00 1.3686311788777068e+01 1.1135976087939538e+01 -1 1 0
4893 1 3.3376742204753005e+00 2.4949970660017371e+00 1.6159728038981964e+00 0 0 1
3138 1 4.8288036155334453e+00 6.4607086195338228e+00 3.1907443962539044e+00 0 0 0
1310 1 1.0880019945318576e+01 5.2715484635958640e+00 1.9952273588990979e+00 0 1 1
3250 1 9.4984339772483359e+00 6.9026772725627801e+00 3.6449904492932914e+00 1 1 0
1880 1 2.5493662158748713e+00 9.5474272330717103e+00 1.2690634031952950e+00 0 0 0
6468 1 5.4726877437065555e+00 9.0507166770146288e+00 2.6182949969092388e+00 0 1 1
3599 1 8.3565495195373263e+00 8.8059526500987921e+00 2.3679280145450909e+00 1 0 0
2072 1 1.1475429853976848e+01 1.1460655044012899e+01 2.7106020456866862e+00 0 1 0
3224 1 7.4383169068553201e+00 1.2954920176711804e+01 1.2063343907309017e+00 0 1 1
1676 1 4.5987673594721761e+00 1.3880692143250915e+01 2.0232813511770527e+00 1 1 1
3305 1 3.4741064023950425e+00 1.3331585996640984e+01 4.3950660878933867e+00 0 0 1
3412 1 8.7084707520544971e+00 1.1468418840120615e+01 3.0657232917370583e+00 1 0 0
5044 1 1.0130822209972122e+01 1.5480436158842400e+01 9.2680927480011821e+00 1 0 1
2171 1 1.0809663425218312e+00 4.2619058944684589e+00 1.0786193974079570e+01 1 0 0
2009 1 4.2486689851831203e+00 3.9345856825740895e+00 6.1205215823408219e+00 1 3 0
3647 1 2.4971005157259025e+00 6.9070467706299450e+00 4.1801631725644678e-01 -1 1 0
2103 1 1.0234557898942258e+01 1.5929320980491719e+01 6.3800685654071323e+00 0 0 0
5336 1 3.8361842317167603e+00 1.2424813457650405e+00 4.5209597312599739e+00 1 1 0
241 1 7.4699143171535667e+00 8.4620713357458333e-01 6.0703978482134699e+00 0 0 0
1872 1 4.4609223575241153e+00 6.3265461350087027e-01 7.6878298621904433e+00 1 2 1
3672 1 7.1508104022233425e+00 3.7712521613987748e+00 6.3805238950592988e+00 0 1 0
3415 1 1.0374437340935604e+01 9.4290909226647268e-01 5.6132373319067552e+00 1 1 1
6713 1 7.7421923742131691e+00 1.5506603109485010e+01 1.0828351436255224e+01 0 0 1
5122 1 2.3198628514234363e+00 5.8035204036812660e+00 4.8471638943193263e+00 1 0 0
3684 1 3.1194495847952473e+00 3.9216519173318760e+00 8.8894682463471071e+00 1 0 0
6609 1 7.0953630294103220e+00 4.8026110170042831e+00 3.8506088900222015e+00 0 0 0
5205 1 1.0100417424053029e+01 3.8368567038433352e+00 6.5277080777565093e+00 1 2 0
6647 1 7.4171150686346383e+00 4.8364490307375556e+00 8.8936208608261964e+00 0 1 0
6414 1 4.0668397847432596e+00 1.0653814338159037e+01 8.2757014202582990e+00 0 -1 1
5633 1 1.3608186223235230e+00 4.4598334578514995e+00 1.1211731597880144e+00 0 0 1
63 1 2.2816606576063059e+00 8.7509281686553635e+00 3.9959699727111073e+00 1 0 1
1555 1 6.2968106122307290e+00 1.1029370045611268e+01 5.1546883863706743e+00 0 0 0
3778 1 6.7807651408529814e+00 8.9643513884266053e+00 7.4172138000768673e+00 0 -1 0
5092 1 3.8394165810649588e+00 1.0640033530712261e+01 5.2133629629795797e+00 0 1 0
5515 1 1.1476080189511046e+01 9.1530383720681048e+00 4.5004875495729593e+00 0 0 0
3555 1 2.5096127689508307e-02 8.2642817468239294e+00 8.4318584278312088e+00 1 0 0
1422 1 6.2924974044756601e+00 1.4233628794552665e+01 8.8626395930150021e+00 0 2 1
5556 1 3.5093501455574541e+00 1.4837535099675806e+01 6.5894525192467945e+00 0 -1 1
2117 1 5.7254588847829195e+00 1.6014378362824555e+01 4.6614960778679908e+00 0 1 0
4694 1 8.5223038012734378e+00 1.4470660119749017e+01 4.9908346695738812e+00 0 1 1
1376 1 6.6954573413346434e+00 1.6029656809067614e+01 2.2234638558799169e+00 0 1 1
1710 1 7.5375601101241374e+00 1.2868072323302954e+01 6.9490208656218853e+00 -1 0 1
157 1 1.7733732263247615e+00 1.5774335260105203e+00 8.2937960720263337e+00 0 0 0
249 1 5.4327652483093054e+00 5.7951649356447987e+00 6.2191899867880429e-01 0 0 0
6678 1 5.6277894558792916e+00 3.3906652760984390e+00 1.0535839087384257e+01 0 1 1
4896 1 5.9601966787145315e+00 9.1945653387765469e-01 1.0268307112050213e+01 0 0 1
3430 1 1.1701726015524214e+01 1.6186106138585899e+01 1.1266780161893449e+01 1 -1 0
501 1 1.0225219934971330e+01 2.5633498530685994e+00 8.9518218798666140e+00 0 0 0
6520 1 8.5134776314569010e+00 9.0499688369671816e-01 9.8860419055723625e+00 1 1 1
5145 1 3.2332552128343579e+00 7.2612459093149901e+00 9.9306835971033873e+00 1 1 0
4732 1 1.1669020946690592e+01 9.9324730343043710e-01 3.0401777755392918e+00 0 -1 1
1864 1 2.0151471199620019e+00 6.2285461954081054e+00 7.4849565935084987e+00 0 1 0
6454 1 5.9918298412695856e+00 7.2234409866018847e+00 9.3952010687885892e+00 0 1 1
5173 1 1.0824601879409869e+01 6.3210516102323471e+00 7.6590275118267268e+00 0 1 0
3390 1 9.8420792461787698e+00 5.2855447317851665e+00 1.0296709146944131e+01 0 0 1
354 1 4.8893492410486701e+00 1.1023049044182269e+01 6.2948524491043445e-01 1 2 0
3455 1 1.7928624891032552e+00 9.7109964686160009e+00 9.6398222279157562e+00 1 -1 1
1668 1 8.0638744050435811e+00 1.0323632448326947e+01 9.7069242078946338e+00 1 0 1
2151 1 5.8014071516003485e+00 1.1431204088855251e+01 1.0528007780083026e+01 1 1 0
5011 1 1.0549827594800778e+01 1.1446249864555309e+01 1.1269742050632573e+01 0 0 0
3905 1 1.0058532934466454e+01 1.2389784241450684e+01 8.5303054798033902e+00 0 1 0
5151 1 3.4709710315744080e+00 1.3347139223341401e+01 9.0581496477762453e+00 0 0 0
1824 1 5.7939180098640772e+00 2.8664939876092279e+00 6.2339602506960778e-01 2 1 1
1403 1 6.5566214180358584e-01 1.2973841630227154e+01 4.4901719071936590e+00 1 0 1
5126 1 1.1724085063063857e+01 1.0782164938315516e+01 6.9696977163834326e+00 2 -2 0
3331 1 7.8370722571289368e+00 7.8786557594157731e+00 1.1120394488805909e+01 0 0 1
6542 1 6.4140078955384752e+00 4.1754934387616127e-01 3.5297621720720564e+00 3 0 1
5449 1 1.2148884515159983e+01 5.8524474999986085e+00 1.1851780680781825e+01 1 0 0
6606 1 1.0377178715524593e-01 1.0873992185346388e+01 5.7882442001470458e-01 0 0 1
1412 1 1.0610974164747233e-01 5.0312236544571762e+00 3.4592750644122576e+00 1 0 1
3533 1 4.8433754166502752e-02 8.3917087462754800e+00 5.5834882227601756e+00 -1 1 0
17 1 1.3775983512489796e+00 1.1053233459294807e+01 1.1670277415801067e+01 0 0 1
4981 1 1.1373340439000081e+01 7.1648002982135228e+00 3.1484268488422629e-01 1 0 1
1368 1 5.6291517484389439e+00 4.2059842743571529e-01 1.5494342759985173e+01 0 1 1
1870 1 5.9427960791449674e+00 1.2113953674633729e+01 2.4055942020512937e+01 0 0 0
5496 1 1.2062944122212993e+01 8.3988625864949675e+00 1.2371053484506390e+01 1 0 1
230 1 2.4031800102779162e+00 2.4857124111591678e-02 2.0828383637646027e+01 1 1 1
6527 1 8.7085578184714212e+00 2.4258940850296118e+00 1.4284084612185021e+01 1 1 1
236 1 3.9289893843686841e+00 2.5328230321376748e+00 1.4674583590084676e+01 0 1 0
6397 1 1.1022285166452210e+01 3.8177927211300684e+00 1.5108723958283772e+01 -1 1 0
1570 1 1.6744663331311815e+00 8.0418175505237830e+00 1.3816601536685726e+01 -1 0 0
3827 1 1.1147088673101731e+01 1.2391136519362389e+01 2.2713402603499116e+01 1 1 1
5228 1 6.3503835469232266e+00 5.9763461727854734e+00 1.4904817854975363e+01 0 0 0
5413 1 7.8230100106597744e+00 8.6830150694930115e+00 1.3579498519759827e+01 0 1 0
604 1 8.1321884285186439e+00 4.8210652352495851e+00 1.2701466465957955e+01 0 1 1
3719 1 1.0178278785269574e+01 9.8890000347011124e+00 1.3825739565877120e+01 1 -1 0
3804 1 3.0488443069836908e+00 1.0204104489491582e+01 1.3990245131018849e+01 2 0 0
538 1 1.1754358552706046e+01 1.4028329148119882e+01 1.2970496049870828e+01 1 0 0
442 1 6.1580233860783107e+00 1.2700442758552089e+01 1.3517169827871662e+01 2 0 0
6610 1 4.2521621268665521e+00 2.6799009391986056e-01 2.3391444669598680e+01 -1 1 1
2052 1 1.1811519087388474e+01 1.3844570905607391e+01 1.8841044355865456e+01 -1 0 0
3620 1 4.8389010779882318e+00 4.5786430542432717e+00 1.3053301052054632e+01 1 -1 0
1606 1 1.0361386833303563e+01 1.2481463629525788e+01 1.5802667564598488e+01 0 0 1
4999 1 1.1818095985559445e+00 5.1140724168553868e+00 1.6439226996263574e+01 1 1 1
5072 1 6.6652712513943539e+00 3.2914535833459952e+00 2.3862742235508456e+01 1 1 1
3463 1 3.9160802926491867e+00 1.4506438046065407e+01 1.2962947107684945e+01 0 -1 0
5520 1 6.6564657630000799e+00 1.3188576534683930e+01 1.6271582396464161e+01 0 0 0
1313 1 9.4461773764381114e+00 1.5069973493734341e+01 1.4243429475212855e+01 0 0 1
6582 1 7.7431440676270418e+00 2.3618267901757828e+00 1.7074243699262844e+01 1 0 1
3697 1 4.7507557679202506e-01 1.0817608347597758e+00 1.6580633627067840e+01 0 -1 0
6738 1 3.9556330674925073e+00 3.4670807563312498e+00 1.7246358547628017e+01 1 0 1
2076 1 5.6783739884572579e+00 1.8451137470452661e+00 1.8843067896382713e+01 1 0 0
5189 1 5.3669844224893772e+00 1.0152768443563421e+01 1.3455288166929254e+01 1 1 0
4880 1 1.1143440930080830e+01 1.9459193309440781e+00 1.7295629881651404e+01 1 0 0
414 1 9.4591560009401956e+00 1.1320661301383310e+00 1.9244774348211443e+01 0 1 0
380 1 5.0742124455012307e+00 6.0600883733238637e+00 1.7325253549659632e+01 1 0 0
5244 1 7.7181773797994966e+00 5.1324398124770285e+00 1.7694874479732857e+01 1 -1 0
3791 1 6.8845289299411450e+00 5.1723532891413306e+00 2.0391862067582750e+01 1 2 0
4755 1 9.8785298503357488e+00 6.5962181042275994e+00 1.4798232504814994e+01 1 1 1
3339 1 9.0637797620109382e+00 7.4907088791227068e+00 1.7317047906138221e+01 1 0 1
3243 1 9.5453185878907298e+00 5.5325041432864985e+00 2.1069009588473516e+01 0 0 1
3480 1 1.8372358324299498e+00 1.2257934810995931e+01 1.5545391080193601e+01 1 -1 0
5159 1 2.6121179267967505e+00 7.6716391503190646e+00 1.6428825410167246e+01 1 1 0
3803 1 1.4971181938697520e+00 8.1913374096733200e+00 1.9082419206128616e+01 1 0 0
6445 1 7.4661387566172586e+00 9.4557403132131697e+00 1.6417251748560606e+01 1 1 1
4889 1 4.9899931699104156e+00 9.2728962837723543e+00 1.7627807844311398e+01 0 1 1
6403 1 8.4143601377879893e+00 1.1734856950162541e+01 1.7732730689082111e+01 0 1 1
3103 1 9.2999095938698630e+00 1.1933530403204765e+01 2.0545060127046863e+01 0 1 1
4879 1 1.9844421133485237e+00 1.4989134574100959e+01 1.4722980320727130e+01 1 0 1
1826 1 1.4358140826383190e+00 1.2857809981540804e+01 1.9229467487502077e+01 1 1 1
3118 1 3.8762037738278048e+00 1.2136628935623472e+01 1.7690124047041628e+01 0 0 1
4696 1 1.8443132484187088e+00 1.5170331404813208e+01 2.3381346452444912e+01 0 0 1
5316 1 1.2192422001037698e+01 1.5120185999233604e+01 1.6419668883013802e+01 0 0 0
228 1 8.2147831380611365e+00 1.5361738478675896e+01 1.6615370424189784e+01 0 0 1
218 1 5.0942565267286333e-01 4.9720434698702718e+00 1.9298137616553909e+01 0 1 0
6379 1 1.9404149392270198e+00 2.0456189810146905e+00 1.8541313880773505e+01 1 1 1
6494 1 5.0016786176040959e+00 1.2791724935719490e+01 2.1263553774848326e+01 1 0 1
3525 1 1.0130538755747642e+01 2.7553493352948433e+00 2.1268792648862924e+01 1 1 0
3725 1 8.6202675854034361e+00 1.3888356936745438e+00 2.3388203318162500e+01 1 -1 0
3124 1 1.0066442079286984e-01 3.2406788445493460e+00 1.4683851465715756e+01 1 0 1
3780 1 2.7141182344047632e+00 1.4686010474541183e+01 2.0618907095342298e+01 1 0 0
3663 1 3.3677518465691838e+00 7.0817978919242215e+00 2.0937937553473116e+01 1 1 0
3513 1 7.4069031362977427e+00 1.4451314140714922e+01 2.3684926552969085e+01 1 0 0
1859 1 2.6143226233892638e+00 4.3374718710272413e+00 2.1053285515898761e+01 0 0 0
5658 1 5.2560389225777335e+00 3.1329853638982947e+00 2.1394425874729357e+01 0 1 1
3839 1 7.4727328835231166e+00 1.4232828717703677e+01 2.1074478889295140e+01 1 0 0
1843 1 1.0932225712703682e+01 7.2617387570902885e+00 1.9482019319621536e+01 -1 1 0
5132 1 3.0924202786631776e+00 1.2663896578204728e+01 2.3700213093018366e+01 2 0 0
3728 1 1.3560414369465179e+00 1.0522900895479733e+01 2.0667179362363981e+01 1 1 1
5306 1 2.1429509406250982e+00 1.0114691323469746e+01 2.3350808170787790e+01 1 1 0
1723 1 6.0835083333654314e+00 1.0705708813533562e+01 1.9970120115621565e+01 -1 0 0
3280 1 6.1482748069055102e+00 7.5268713029374537e+00 2.1056567800422364e+01 0 1 1
1355 1 2.9736881978520011e+00 2.5102039274371080e-01 1.3271601061987859e+01 0 1 1
2054 1 1.0032970827712516e+01 6.0598987702974521e+00 2.3656975369950040e+01 0 0 0
4750 1 3.4924075792738960e+00 7.8394571731514135e+00 2.3666574210581768e+01 0 1 1
5337 1 8.4557470361586375e+00 9.5579340146416332e+00 2.1402856669111916e+01 0 0 0
5537 1 9.0593697048027586e+00 1.2103465990674725e-01 1.2480848396166000e+01 2 1 0
4803 1 1.1706163388593039e+01 8.3772959253016417e+00 2.3575409957143364e+01 1 0 1
1530 1 1.9079029049489067e+00 3.1928281178774380e+00 2.3576615002305488e+01 1 0 1
2084 1 9.2843650644398643e+00 1.5136240439504409e+01 1.9215919999723074e+01 1 1 0
1571 1 9.2854487855768897e-01 2.0142747050693064e+00 1.2327362357193079e+01 1 0 1
252 1 8.4138397651677153e+00 1.3138602099343478e+01 1.2411013522683115e+01 0 -1 0
6479 1 1.1762894098437746e+01 9.6166744195098612e+00 2.0787174386014950e+01 0 1 1
3470 1 1.5459486382066665e+00 5.8435441844627620e+00 2.4058939430239057e+01 0 0 0
1796 1 6.4089343118108859e+00 7.6922852739717218e+00 2.3768325120389662e+01 0 1 0
2207 1 2.4164490036621586e+00 6.0112296226265780e+00 1.2350300486071697e+01 0 0 0
618 2 0.0000000000000000e+00 2.8417180249513345e+00 2.6797551485840533e+01 0 0 0
620 2 0.0000000000000000e+00 0.0000000000000000e+00 2.6797551485840533e+01 0 0 0
622 2 1.2305000000000001e+00 7.1042950623783474e-01 2.6797551485840533e+01 0 0 0
629 2 1.2305000000000001e+00 2.1312885187134998e+00 2.6797551485840533e+01 0 0 0
631 2 2.4610000000000003e+00 2.8417180249513345e+00 2.6797551485840533e+01 0 0 0
633 2 2.4610000000000003e+00 0.0000000000000000e+00 2.6797551485840533e+01 0 0 0
635 2 3.6915000000000004e+00 7.1042950623783474e-01 2.6797551485840533e+01 0 0 0
650 2 3.6914999999999996e+00 2.1312885187134998e+00 2.6797551485840533e+01 0 0 0
4775 1 1.0613974242917541e+01 1.0454756282543949e+01 2.4641137491932788e+01 0 2 1
652 2 4.9220000000000006e+00 2.8417180249513332e+00 2.6797551485840533e+01 0 0 0
654 2 4.9220000000000006e+00 0.0000000000000000e+00 2.6797551485840533e+01 0 0 0
656 2 6.1524999999999999e+00 7.1042950623783407e-01 2.6797551485840533e+01 0 0 0
679 2 6.1524999999999999e+00 2.1312885187134989e+00 2.6797551485840533e+01 0 0 0
681 2 7.3829999999999991e+00 2.8417180249513345e+00 2.6797551485840533e+01 0 0 0
683 2 7.3829999999999991e+00 0.0000000000000000e+00 2.6797551485840533e+01 0 0 0
427 1 1.1162398850474345e+01 1.3868812544560540e+00 2.4453596183980409e+01 0 0 1
685 2 8.6134999999999984e+00 7.1042950623783407e-01 2.6797551485840533e+01 0 0 0
716 2 8.6134999999999984e+00 2.1312885187135002e+00 2.6797551485840533e+01 0 0 0
718 2 9.8440000000000012e+00 2.8417180249513332e+00 2.6797551485840533e+01 0 0 0
720 2 9.8440000000000012e+00 0.0000000000000000e+00 2.6797551485840533e+01 0 0 0
722 2 1.1074500000000002e+01 7.1042950623783330e-01 2.6797551485840533e+01 0 0 0
761 2 1.1074500000000002e+01 2.1312885187135002e+00 2.6797551485840533e+01 0 0 0
5301 1 4.3608249138213901e+00 2.4656118012290120e+00 2.4784915418937480e+01 2 1 0
623 2 0.0000000000000000e+00 7.1042950623783341e+00 2.6797551485840533e+01 0 0 0
625 2 0.0000000000000000e+00 4.2625770374269996e+00 2.6797551485840533e+01 0 0 0
627 2 1.2305000000000001e+00 4.9730065436648339e+00 2.6797551485840533e+01 0 0 0
642 2 1.2305000000000001e+00 6.3938655561404980e+00 2.6797551485840533e+01 0 0 0
644 2 2.4610000000000003e+00 7.1042950623783341e+00 2.6797551485840533e+01 0 0 0
646 2 2.4610000000000003e+00 4.2625770374269996e+00 2.6797551485840533e+01 0 0 0
648 2 3.6914999999999996e+00 4.9730065436648339e+00 2.6797551485840533e+01 0 0 0
671 2 3.6914999999999996e+00 6.3938655561404980e+00 2.6797551485840533e+01 0 0 0
673 2 4.9220000000000006e+00 7.1042950623783341e+00 2.6797551485840533e+01 0 0 0
675 2 4.9220000000000006e+00 4.2625770374269978e+00 2.6797551485840533e+01 0 0 0
677 2 6.1524999999999999e+00 4.9730065436648339e+00 2.6797551485840533e+01 0 0 0
708 2 6.1524999999999999e+00 6.3938655561404980e+00 2.6797551485840533e+01 0 0 0
710 2 7.3830000000000009e+00 7.1042950623783341e+00 2.6797551485840533e+01 0 0 0
712 2 7.3829999999999991e+00 4.2625770374269996e+00 2.6797551485840533e+01 0 0 0
714 2 8.6135000000000002e+00 4.9730065436648339e+00 2.6797551485840533e+01 0 0 0
753 2 8.6135000000000002e+00 6.3938655561404980e+00 2.6797551485840533e+01 0 0 0
755 2 9.8440000000000012e+00 7.1042950623783341e+00 2.6797551485840533e+01 0 0 0
757 2 9.8440000000000012e+00 4.2625770374270004e+00 2.6797551485840533e+01 0 0 0
759 2 1.1074500000000002e+01 4.9730065436648339e+00 2.6797551485840533e+01 0 0 0
800 2 1.1074500000000002e+01 6.3938655561404980e+00 2.6797551485840533e+01 0 0 0
636 2 0.0000000000000000e+00 1.1366872099805333e+01 2.6797551485840533e+01 0 0 0
638 2 0.0000000000000000e+00 8.5251540748539991e+00 2.6797551485840533e+01 0 0 0
640 2 1.2305000000000001e+00 9.2355835810918343e+00 2.6797551485840533e+01 0 0 0
663 2 1.2305000000000001e+00 1.0656442593567498e+01 2.6797551485840533e+01 0 0 0
665 2 2.4610000000000003e+00 1.1366872099805333e+01 2.6797551485840533e+01 0 0 0
667 2 2.4610000000000003e+00 8.5251540748539991e+00 2.6797551485840533e+01 0 0 0
669 2 3.6915000000000004e+00 9.2355835810918343e+00 2.6797551485840533e+01 0 0 0
700 2 3.6914999999999996e+00 1.0656442593567499e+01 2.6797551485840533e+01 0 0 0
702 2 4.9220000000000006e+00 1.1366872099805333e+01 2.6797551485840533e+01 0 0 0
704 2 4.9220000000000006e+00 8.5251540748539991e+00 2.6797551485840533e+01 0 0 0
706 2 6.1524999999999999e+00 9.2355835810918343e+00 2.6797551485840533e+01 0 0 0
745 2 6.1524999999999999e+00 1.0656442593567499e+01 2.6797551485840533e+01 0 0 0
747 2 7.3829999999999991e+00 1.1366872099805333e+01 2.6797551485840533e+01 0 0 0
749 2 7.3830000000000009e+00 8.5251540748539991e+00 2.6797551485840533e+01 0 0 0
751 2 8.6134999999999984e+00 9.2355835810918343e+00 2.6797551485840533e+01 0 0 0
792 2 8.6134999999999984e+00 1.0656442593567498e+01 2.6797551485840533e+01 0 0 0
794 2 9.8440000000000012e+00 1.1366872099805333e+01 2.6797551485840533e+01 0 0 0
796 2 9.8440000000000012e+00 8.5251540748539956e+00 2.6797551485840533e+01 0 0 0
798 2 1.1074500000000002e+01 9.2355835810918343e+00 2.6797551485840533e+01 0 0 0
839 2 1.1074500000000002e+01 1.0656442593567498e+01 2.6797551485840533e+01 0 0 0
841 2 1.2304999999999998e+01 1.1366872099805333e+01 2.6797551485840533e+01 0 0 0
657 2 0.0000000000000000e+00 1.5629449137232333e+01 2.6797551485840533e+01 0 0 0
659 2 0.0000000000000000e+00 1.2787731112280996e+01 2.6797551485840533e+01 0 0 0
661 2 1.2305000000000001e+00 1.3498160618518829e+01 2.6797551485840533e+01 0 0 0
692 2 1.2305000000000001e+00 1.4919019630994494e+01 2.6797551485840533e+01 0 0 0
694 2 2.4610000000000003e+00 1.5629449137232328e+01 2.6797551485840533e+01 0 0 0
696 2 2.4610000000000003e+00 1.2787731112280996e+01 2.6797551485840533e+01 0 0 0
698 2 3.6915000000000004e+00 1.3498160618518829e+01 2.6797551485840533e+01 0 0 0
737 2 3.6915000000000004e+00 1.4919019630994494e+01 2.6797551485840533e+01 0 0 0
739 2 4.9220000000000006e+00 1.5629449137232333e+01 2.6797551485840533e+01 0 0 0
741 2 4.9220000000000006e+00 1.2787731112280996e+01 2.6797551485840533e+01 0 0 0
743 2 6.1524999999999990e+00 1.3498160618518829e+01 2.6797551485840533e+01 0 0 0
784 2 6.1524999999999990e+00 1.4919019630994494e+01 2.6797551485840533e+01 0 0 0
786 2 7.3829999999999991e+00 1.5629449137232333e+01 2.6797551485840533e+01 0 0 0
788 2 7.3829999999999991e+00 1.2787731112280996e+01 2.6797551485840533e+01 0 0 0
1060 2 1.1074500000000002e+01 1.3498160618518829e+01 3.3264448514161728e+01 0 0 0
790 2 8.6135000000000002e+00 1.3498160618518835e+01 2.6797551485840533e+01 0 0 0
831 2 8.6135000000000002e+00 1.4919019630994494e+01 2.6797551485840533e+01 0 0 0
833 2 9.8440000000000012e+00 1.5629449137232328e+01 2.6797551485840533e+01 0 0 0
835 2 9.8440000000000012e+00 1.2787731112280996e+01 2.6797551485840533e+01 0 0 0
837 2 1.1074500000000002e+01 1.3498160618518829e+01 2.6797551485840533e+01 0 0 0
873 2 1.1074500000000002e+01 1.4919019630994494e+01 2.6797551485840533e+01 0 0 0
619 2 0.0000000000000000e+00 1.4208590124756650e+00 3.0031000000000219e+01 0 0 0
621 2 0.0000000000000000e+00 0.0000000000000000e+00 3.0031000000000219e+01 0 0 0
628 2 1.2305000000000001e+00 3.5521475311891644e+00 3.0031000000000219e+01 0 0 0
630 2 1.2305000000000001e+00 2.1312885187134998e+00 3.0031000000000219e+01 0 0 0
632 2 2.4610000000000003e+00 1.4208590124756650e+00 3.0031000000000219e+01 0 0 0
634 2 2.4610000000000003e+00 0.0000000000000000e+00 3.0031000000000219e+01 0 0 0
649 2 3.6914999999999996e+00 3.5521475311891644e+00 3.0031000000000219e+01 0 0 0
651 2 3.6914999999999996e+00 2.1312885187134998e+00 3.0031000000000219e+01 0 0 0
653 2 4.9220000000000006e+00 1.4208590124756650e+00 3.0031000000000219e+01 0 0 0
655 2 4.9220000000000006e+00 0.0000000000000000e+00 3.0031000000000219e+01 0 0 0
678 2 6.1524999999999999e+00 3.5521475311891644e+00 3.0031000000000219e+01 0 0 0
680 2 6.1524999999999999e+00 2.1312885187134989e+00 3.0031000000000219e+01 0 0 0
682 2 7.3829999999999991e+00 1.4208590124756659e+00 3.0031000000000219e+01 0 0 0
684 2 7.3829999999999991e+00 0.0000000000000000e+00 3.0031000000000219e+01 0 0 0
715 2 8.6134999999999984e+00 3.5521475311891657e+00 3.0031000000000219e+01 0 0 0
717 2 8.6134999999999984e+00 2.1312885187135002e+00 3.0031000000000219e+01 0 0 0
719 2 9.8440000000000012e+00 1.4208590124756659e+00 3.0031000000000219e+01 0 0 0
721 2 9.8440000000000012e+00 0.0000000000000000e+00 3.0031000000000219e+01 0 0 0
760 2 1.1074500000000002e+01 3.5521475311891644e+00 3.0031000000000219e+01 0 0 0
762 2 1.1074500000000002e+01 2.1312885187135002e+00 3.0031000000000219e+01 0 0 0
624 2 0.0000000000000000e+00 5.6834360499026637e+00 3.0031000000000219e+01 0 0 0
626 2 0.0000000000000000e+00 4.2625770374269996e+00 3.0031000000000219e+01 0 0 0
641 2 1.2305000000000001e+00 7.8147245686161639e+00 3.0031000000000219e+01 0 0 0
643 2 1.2305000000000001e+00 6.3938655561404980e+00 3.0031000000000219e+01 0 0 0
645 2 2.4610000000000003e+00 5.6834360499026637e+00 3.0031000000000219e+01 0 0 0
647 2 2.4610000000000003e+00 4.2625770374269996e+00 3.0031000000000219e+01 0 0 0
670 2 3.6914999999999996e+00 7.8147245686161639e+00 3.0031000000000219e+01 0 0 0
672 2 3.6914999999999996e+00 6.3938655561404980e+00 3.0031000000000219e+01 0 0 0
674 2 4.9220000000000006e+00 5.6834360499026637e+00 3.0031000000000219e+01 0 0 0
676 2 4.9220000000000006e+00 4.2625770374269978e+00 3.0031000000000219e+01 0 0 0
707 2 6.1524999999999999e+00 7.8147245686161639e+00 3.0031000000000219e+01 0 0 0
709 2 6.1524999999999999e+00 6.3938655561404980e+00 3.0031000000000219e+01 0 0 0
711 2 7.3829999999999991e+00 5.6834360499026637e+00 3.0031000000000219e+01 0 0 0
713 2 7.3829999999999991e+00 4.2625770374269996e+00 3.0031000000000219e+01 0 0 0
752 2 8.6135000000000002e+00 7.8147245686161639e+00 3.0031000000000219e+01 0 0 0
754 2 8.6135000000000002e+00 6.3938655561404980e+00 3.0031000000000219e+01 0 0 0
756 2 9.8440000000000012e+00 5.6834360499026637e+00 3.0031000000000219e+01 0 0 0
758 2 9.8440000000000012e+00 4.2625770374270004e+00 3.0031000000000219e+01 0 0 0
799 2 1.1074500000000002e+01 7.8147245686161639e+00 3.0031000000000219e+01 0 0 0
801 2 1.1074500000000002e+01 6.3938655561404980e+00 3.0031000000000219e+01 0 0 0
637 2 0.0000000000000000e+00 9.9460130873296642e+00 3.0031000000000219e+01 0 0 0
639 2 0.0000000000000000e+00 8.5251540748539991e+00 3.0031000000000219e+01 0 0 0
662 2 1.2305000000000001e+00 1.2077301606043163e+01 3.0031000000000219e+01 0 0 0
664 2 1.2305000000000001e+00 1.0656442593567498e+01 3.0031000000000219e+01 0 0 0
666 2 2.4610000000000003e+00 9.9460130873296642e+00 3.0031000000000219e+01 0 0 0
668 2 2.4610000000000003e+00 8.5251540748539991e+00 3.0031000000000219e+01 0 0 0
699 2 3.6914999999999996e+00 1.2077301606043163e+01 3.0031000000000219e+01 0 0 0
701 2 3.6914999999999996e+00 1.0656442593567499e+01 3.0031000000000219e+01 0 0 0
703 2 4.9220000000000006e+00 9.9460130873296642e+00 3.0031000000000219e+01 0 0 0
705 2 4.9220000000000006e+00 8.5251540748539991e+00 3.0031000000000219e+01 0 0 0
744 2 6.1524999999999999e+00 1.2077301606043163e+01 3.0031000000000219e+01 0 0 0
746 2 6.1524999999999999e+00 1.0656442593567499e+01 3.0031000000000219e+01 0 0 0
748 2 7.3830000000000009e+00 9.9460130873296642e+00 3.0031000000000219e+01 0 0 0
750 2 7.3830000000000009e+00 8.5251540748539991e+00 3.0031000000000219e+01 0 0 0
791 2 8.6135000000000002e+00 1.2077301606043163e+01 3.0031000000000219e+01 0 0 0
793 2 8.6134999999999984e+00 1.0656442593567498e+01 3.0031000000000219e+01 0 0 0
795 2 9.8440000000000012e+00 9.9460130873296642e+00 3.0031000000000219e+01 0 0 0
797 2 9.8440000000000012e+00 8.5251540748539956e+00 3.0031000000000219e+01 0 0 0
838 2 1.1074500000000002e+01 1.2077301606043163e+01 3.0031000000000219e+01 0 0 0
840 2 1.1074500000000002e+01 1.0656442593567498e+01 3.0031000000000219e+01 0 0 0
658 2 0.0000000000000000e+00 1.4208590124756663e+01 3.0031000000000219e+01 0 0 0
660 2 0.0000000000000000e+00 1.2787731112280996e+01 3.0031000000000219e+01 0 0 0
693 2 1.2305000000000001e+00 1.4919019630994494e+01 3.0031000000000219e+01 0 0 0
695 2 2.4610000000000003e+00 1.4208590124756663e+01 3.0031000000000219e+01 0 0 0
697 2 2.4610000000000003e+00 1.2787731112280996e+01 3.0031000000000219e+01 0 0 0
738 2 3.6915000000000004e+00 1.4919019630994494e+01 3.0031000000000219e+01 0 0 0
740 2 4.9220000000000006e+00 1.4208590124756663e+01 3.0031000000000219e+01 0 0 0
742 2 4.9220000000000006e+00 1.2787731112280996e+01 3.0031000000000219e+01 0 0 0
785 2 6.1524999999999990e+00 1.4919019630994494e+01 3.0031000000000219e+01 0 0 0
787 2 7.3830000000000009e+00 1.4208590124756663e+01 3.0031000000000219e+01 0 0 0
789 2 7.3829999999999991e+00 1.2787731112280996e+01 3.0031000000000219e+01 0 0 0
832 2 8.6135000000000002e+00 1.4919019630994494e+01 3.0031000000000219e+01 0 0 0
834 2 9.8440000000000012e+00 1.4208590124756663e+01 3.0031000000000219e+01 0 0 0
836 2 9.8440000000000012e+00 1.2787731112280996e+01 3.0031000000000219e+01 0 0 0
872 2 1.1074500000000002e+01 1.6339878643470161e+01 3.0031000000000219e+01 0 0 0
874 2 1.1074500000000002e+01 1.4919019630994494e+01 3.0031000000000219e+01 0 0 0
876 2 1.2304999999999998e+01 1.4208590124756658e+01 3.0031000000000219e+01 0 0 0
947 2 0.0000000000000000e+00 2.8417180249513345e+00 3.3264448514161728e+01 0 0 0
948 2 0.0000000000000000e+00 0.0000000000000000e+00 3.3264448514161728e+01 0 0 0
949 2 1.2305000000000001e+00 7.1042950623783474e-01 3.3264448514161728e+01 0 0 0
953 2 1.2305000000000001e+00 2.1312885187134998e+00 3.3264448514161728e+01 0 0 0
954 2 2.4610000000000003e+00 2.8417180249513345e+00 3.3264448514161728e+01 0 0 0
955 2 2.4610000000000003e+00 0.0000000000000000e+00 3.3264448514161728e+01 0 0 0
956 2 3.6915000000000004e+00 7.1042950623783474e-01 3.3264448514161728e+01 0 0 0
964 2 3.6914999999999996e+00 2.1312885187134998e+00 3.3264448514161728e+01 0 0 0
965 2 4.9220000000000006e+00 2.8417180249513332e+00 3.3264448514161728e+01 0 0 0
966 2 4.9220000000000006e+00 0.0000000000000000e+00 3.3264448514161728e+01 0 0 0
967 2 6.1524999999999999e+00 7.1042950623783407e-01 3.3264448514161728e+01 0 0 0
979 2 6.1524999999999999e+00 2.1312885187134989e+00 3.3264448514161728e+01 0 0 0
980 2 7.3829999999999991e+00 2.8417180249513345e+00 3.3264448514161728e+01 0 0 0
981 2 7.3829999999999991e+00 0.0000000000000000e+00 3.3264448514161728e+01 0 0 0
982 2 8.6134999999999984e+00 7.1042950623783407e-01 3.3264448514161728e+01 0 0 0
998 2 8.6134999999999984e+00 2.1312885187135002e+00 3.3264448514161728e+01 0 0 0
999 2 9.8440000000000012e+00 2.8417180249513332e+00 3.3264448514161728e+01 0 0 0
1000 2 9.8440000000000012e+00 0.0000000000000000e+00 3.3264448514161728e+01 0 0 0
1001 2 1.1074500000000002e+01 7.1042950623783330e-01 3.3264448514161728e+01 0 0 0
1021 2 1.1074500000000002e+01 2.1312885187135002e+00 3.3264448514161728e+01 0 0 0
950 2 0.0000000000000000e+00 7.1042950623783341e+00 3.3264448514161728e+01 0 0 0
951 2 0.0000000000000000e+00 4.2625770374269996e+00 3.3264448514161728e+01 0 0 0
952 2 1.2305000000000001e+00 4.9730065436648339e+00 3.3264448514161728e+01 0 0 0
960 2 1.2305000000000001e+00 6.3938655561404980e+00 3.3264448514161728e+01 0 0 0
961 2 2.4610000000000003e+00 7.1042950623783341e+00 3.3264448514161728e+01 0 0 0
962 2 2.4610000000000003e+00 4.2625770374269996e+00 3.3264448514161728e+01 0 0 0
963 2 3.6914999999999996e+00 4.9730065436648339e+00 3.3264448514161728e+01 0 0 0
975 2 3.6914999999999996e+00 6.3938655561404980e+00 3.3264448514161728e+01 0 0 0
976 2 4.9220000000000006e+00 7.1042950623783341e+00 3.3264448514161728e+01 0 0 0
977 2 4.9220000000000006e+00 4.2625770374269978e+00 3.3264448514161728e+01 0 0 0
978 2 6.1524999999999999e+00 4.9730065436648339e+00 3.3264448514161728e+01 0 0 0
994 2 6.1524999999999999e+00 6.3938655561404980e+00 3.3264448514161728e+01 0 0 0
995 2 7.3830000000000009e+00 7.1042950623783341e+00 3.3264448514161728e+01 0 0 0
996 2 7.3829999999999991e+00 4.2625770374269996e+00 3.3264448514161728e+01 0 0 0
997 2 8.6135000000000002e+00 4.9730065436648339e+00 3.3264448514161728e+01 0 0 0
1017 2 8.6135000000000002e+00 6.3938655561404980e+00 3.3264448514161728e+01 0 0 0
1018 2 9.8440000000000012e+00 7.1042950623783341e+00 3.3264448514161728e+01 0 0 0
1019 2 9.8440000000000012e+00 4.2625770374270004e+00 3.3264448514161728e+01 0 0 0