
# Create simulation box and atoms

read_data data.graphite_substrate_500
  orthogonal box = (0 0 -0.518223) to (49.22 49.0196 60.5802)
  4 by 3 by 5 MPI processor grid
  reading atoms ...
  6750 atoms
  reading velocities ...
  6750 velocities
group water type 1
3990 atoms in group water
group graphite type 2
2760 atoms in group graphite

# Define potential

pair_style sw
pair_coeff * * mWC.sw mW C
Reading potential file mWC.sw with DATE: 2019-02-27


# Fix graphite atoms in place

fix 5 graphite setforce 0.0 0.0 0.0
velocity graphite set 0.0 0.0 0.0


# Equilibration of molecular water

# Add velocity/set timestep

velocity	    water create ${TEMP} ${SEED} rot yes dist gaussian
velocity	    water create 225 ${SEED} rot yes dist gaussian
velocity	    water create 225 17085 rot yes dist gaussian
timestep	    5.0

# Define output

compute			1 water msd
compute			3 water temp
thermo	    	50
thermo_style	custom step temp press vol etotal ke pe c_1[4] c_3

# Neighbor lists

neigh_modify    delay 0 every 1 check yes

# Set fixes

fix             1 water momentum 10 linear 1 1 1 rescale
fix             2 water nve
fix             3 water temp/csvr ${TEMP} ${TEMP} 500.0 ${SEED}
fix             3 water temp/csvr 225 ${TEMP} 500.0 ${SEED}
fix             3 water temp/csvr 225 225 500.0 ${SEED}
fix             3 water temp/csvr 225 225 500.0 17085
fix             4 water press/berendsen z ${PRES} ${PRES} 1000.0 modulus 20000
fix             4 water press/berendsen z -500 ${PRES} 1000.0 modulus 20000
fix             4 water press/berendsen z -500 -500 1000.0 modulus 20000

# Run 0.5 ns equilibration

dump		    1 all atom 2000 ${DIR}/eq.${NAME}-${TEMP}.dump
dump		    1 all atom 2000 run_2/eq.${NAME}-${TEMP}.dump
dump		    1 all atom 2000 run_2/eq.het_freeze_2-${TEMP}.dump
dump		    1 all atom 2000 run_2/eq.het_freeze_2-225.dump

reset_timestep  0

run	            100000
Neighbor list info ...
  update every 1 steps, delay 0 steps, check yes
  max neighbors/atom: 2000, page size: 100000
  master list distance cutoff = 7.76
  ghost atom cutoff = 7.76
  binsize = 3.88, bins = 13 13 16
  1 neighbor lists, perpetual/occasional/extra = 1 0 0
  (1) pair sw, perpetual
      attributes: full, newton on
      pair build: full/bin/atomonly
      stencil: full/bin/3d
      bin: standard
Per MPI rank memory allocation (min/avg/max) = 4.091 | 4.193 | 4.512 Mbytes
Step Temp Press Volume TotEng KinEng PotEng c_1[4] c_3 
       0    132.98637   -1273.0418    147415.06    -35990.25    2675.3515   -38665.602            0          225 
      50    171.87139   -1399.7581    146846.84    -36413.15    3457.6204   -39870.771   0.85270052    290.78967 
     100    164.46785    -1448.775    146473.01   -36866.244    3308.6798   -40174.924    1.8594639    278.26361 
     150    160.97537   -1507.1771    145970.14   -37223.564      3238.42   -40461.984    2.6602144    272.35468 
     200    155.03385   -1330.9876    145532.65   -37493.349    3118.8914   -40612.241    3.4730275    262.30219 
     250    156.45097   -1127.6937    145183.64   -37689.362    3147.4003   -40836.762    4.1931632    264.69982 
     300    151.12719   -1214.8877    144844.16   -37877.054    3040.2994   -40917.354    4.8877594    255.69251 
     350    147.87479   -1125.5419    144628.31   -38057.461    2974.8691    -41032.33    5.4311938    250.18975 
     400    145.81008   -1073.0899    144401.75   -38159.395    2933.3325   -41092.728    5.9434153    246.69648 
     450    146.18476   -845.03015    144288.03   -38284.245    2940.8701   -41225.115    6.4095196     247.3304 
     500    144.33899   -987.90733    144152.09   -38412.526    2903.7377   -41316.264    6.8851614    244.20753 
     550    141.96637   -803.34032    143993.06    -38546.66    2856.0066   -41402.666    7.3174154    240.19329 
     600    139.82284   -1107.4676    143913.95   -38681.266    2812.8842    -41494.15      7.71188    236.56665 
     650     138.9247   -1072.3169    143690.74   -38757.828    2794.8159   -41552.644    8.1104431    235.04708 
     700    137.48714   -855.33928    143568.33   -38863.507    2765.8958   -41629.402    8.5073549    232.61487 
     750    137.58987   -995.76127    143446.82    -38884.63    2767.9625   -41652.593    8.8232854    232.78868 
     800    136.10484   -874.44734     143268.8   -38916.742    2738.0874   -41654.829    9.0864606    230.27615 
     850    138.24931   -914.35205    143172.41   -38992.322    2781.2288   -41773.551    9.4377605    233.90439 
     900    136.84727    -994.3788     143061.4   -39027.293    2753.0232   -41780.317    9.9304985    231.53227 
     950    138.01272    -675.2861    143052.26   -39039.456    2776.4691   -41815.925     10.28698    233.50409 
    1000    133.07798   -773.58929    143029.66   -39101.733    2677.1945   -41778.928    10.646567      225.155 
    1050    135.59972   -835.14712    143000.41   -39145.983    2727.9256   -41873.909    10.968037    229.42154 
    1100    134.70097   -813.13868    142882.93   -39179.959    2709.8451   -41889.804    11.201933    227.90094 
    1150    135.29934   -696.75039     142785.3   -39144.602    2721.8827   -41866.484     11.50339    228.91332 
    1200    137.99244   -922.08034    142734.55   -39138.558     2776.061   -41914.619    11.716173    233.46978 
    1250    137.89286   -721.32009    142658.04   -39101.767    2774.0579   -41875.825    12.024588    233.30131 
    1300    136.60606   -731.38625    142588.14   -39161.439    2748.1706   -41909.609    12.397078    231.12416 
    1350    135.44766   -549.23186    142622.44   -39183.888    2724.8666   -41908.755    12.603941    229.16427 
    1400    134.45629   -688.43032    142706.89   -39208.305    2704.9226   -41913.228    12.813188    227.48696 
    1450    134.60426   -753.59608    142728.76   -39246.865    2707.8995   -41954.765    13.124768    227.73732 
    1500    133.80925   -953.46707    142609.86   -39271.695    2691.9058     -41963.6    13.527086    226.39223 
    1550    133.30441   -851.47185    142591.96   -39274.629    2681.7498   -41956.379    13.855098     225.5381 
    1600    134.67865   -683.53722    142602.43   -39332.362     2709.396   -42041.758    14.122869    227.86317 
    1650    133.64138   -790.54485    142626.75   -39352.751    2688.5288   -42041.279     14.26506    226.10822 
    1700    134.95909   -693.50803    142598.09   -39351.587    2715.0378   -42066.624     14.44104    228.33765 
    1750    133.20862   -480.68672    142640.15   -39374.904    2679.8226   -42054.727    14.656246    225.37602 
    1800    133.88296   -728.35695     142619.6   -39374.551    2693.3888   -42067.939    14.742069    226.51695 
    1850    134.57345   -672.58195    142632.99   -39369.087    2707.2795   -42076.366    15.002263    227.68518 
    1900    130.97307    -733.3102    142628.48   -39393.134    2634.8491   -42027.983    15.395336     221.5937 
    1950    131.71443     -844.836    142597.38   -39438.229    2649.7634   -42087.992    15.676063    222.84801 
    2000    135.80299   -822.46468    142490.64   -39413.017    2732.0149   -42145.032    15.898531    229.76545 
    2050    136.76895   -737.24082    142490.09   -39442.746    2751.4476   -42194.194    16.086824    231.39976 
    2100    136.43297   -708.79666    142550.97   -39413.134    2744.6884   -42157.822    16.362473    230.83131 
    2150    134.22617   -668.18306    142589.68   -39432.935    2700.2933   -42133.228    16.518404    227.09763 
    2200    129.90233   -745.44018    142487.53   -39519.626    2613.3084   -42132.935    16.827772    219.78211 
    2250     132.7366   -852.57122     142479.4   -39510.754    2670.3268    -42181.08    17.125148    224.57741 
    2300    130.99216    -682.0254    142478.08   -39481.843    2635.2331   -42117.076    17.323452      221.626 
    2350    135.21187   -727.74085    142453.35   -39470.745     2720.123   -42190.868    17.526701    228.76533 
    2400    136.60862   -1045.0603    142525.41   -39431.463    2748.2222   -42179.685    17.664587    231.12851 
    2450    134.84274   -714.84179    142514.85   -39462.804    2712.6971   -42175.501    17.766257     228.1408 
    2500    134.12358   -748.09096    142514.29   -39469.751    2698.2294   -42167.981    17.903757    226.92405 
    2550    133.68747   -621.82464    142504.87   -39463.133     2689.456   -42152.589    18.155805     226.1862 
    2600     137.0266   -583.79706    142560.23   -39451.245    2756.6308   -42207.876    18.296842    231.83568 
    2650    132.09796   -636.66773    142615.45   -39471.502    2657.4791   -42128.981    18.602012    223.49691 
    2700    133.82005   -565.26297    142619.32   -39499.834    2692.1231   -42191.957     18.77599    226.41051 
    2750    134.32159   -595.90935    142651.35    -39454.58    2702.2128   -42156.792    18.867031    227.25906 
    2800    133.02797   -618.00292    142577.17   -39478.645    2676.1884   -42154.833    19.116136    225.07038 
    2850    132.34352   -652.71217    142568.05   -39465.415     2662.419   -42127.834    19.302991    223.91236 
    2900    135.29902   -738.90209     142570.6   -39463.985    2721.8763   -42185.861    19.673675    228.91278 
    2950     134.8604   -770.37979    142496.09   -39430.846    2713.0523   -42143.898    20.031822    228.17068 
    3000    133.92282   -445.62421    142543.99    -39432.18    2694.1906   -42126.371    20.406465    226.58439 
    3050    131.56273   -516.89677    142597.99   -39466.102    2646.7116   -42112.813    20.621941    222.59135 
    3100    133.17903   -545.93894    142610.87   -39483.601    2679.2275   -42162.828    20.985024    225.32597 
    3150    136.83828   -700.44958    142679.18   -39470.013    2752.8423   -42222.855    21.192258    231.51706 
    3200    132.95485   -843.80023    142609.31   -39511.907    2674.7174   -42186.625    21.459995    224.94667 
    3250     131.9154   -751.30894    142551.36   -39586.775    2653.8064   -42240.582    21.767352    223.18803 
    3300    130.77987     -567.045     142614.4   -39617.513    2630.9624   -42248.476    21.933443    221.26682 
    3350    130.06386   -778.83084    142631.38   -39618.003     2616.558   -42234.561    22.158096     220.0554 
    3400    131.60218   -846.33886    142589.63    -39571.67    2647.5051   -42219.175    22.330607    222.65809 
    3450    131.96338   -684.90656    142515.12   -39596.162    2654.7716   -42250.934    22.729465     223.2692 
    3500     133.3508   -602.46958    142555.73   -39528.689    2682.6829   -42211.371     23.04385    225.61658 
    3550    133.04081   -547.58084    142470.87   -39498.667    2676.4468   -42175.114    23.483312    225.09211 
    3600    134.27701   -360.66204    142519.45   -39480.132    2701.3159   -42181.448    23.659946    227.18363 
    3650    133.35318   -572.13224    142561.18   -39505.773    2682.7308   -42188.504    23.851795     225.6206 
    3700    132.92431   -588.84346    142552.78   -39510.225     2674.103   -42184.328    23.979723      224.895 
    3750    135.17655   -608.05792    142622.06   -39505.274    2719.4125   -42224.686    24.030448    228.70558 
    3800     134.6813    -477.3279    142650.91   -39454.601    2709.4492    -42164.05    24.108596    227.86765 
    3850    132.65536   -426.44006     142695.8   -39507.648    2668.6926    -42176.34    24.208251    224.43997 
    3900    134.18445   -542.11091    142791.71   -39544.255    2699.4539   -42243.709     24.44393    227.02703 
    3950     132.1978   -472.21942    142827.09   -39506.247    2659.4876   -42165.735    24.609533    223.66582 
    4000    135.34888   -495.81574    142959.24   -39525.853    2722.8793   -42248.733    24.646382    228.99714 
    4050    136.83433     -760.228    143006.86   -39495.975    2752.7628   -42248.738     24.76679    231.51037 
    4100    136.35789   -604.84645    143028.01   -39557.001    2743.1781   -42300.179    24.975164    230.70429 
    4150    134.97164   -601.50791    143069.66   -39567.029    2715.2902   -42282.319    25.105627    228.35889 
    4200    132.69113   -822.82664    143098.43   -39563.204     2669.412   -42232.616    25.291243    224.50048 
    4250    133.75223    -852.6362    143165.33    -39619.59    2690.7588   -42310.349    25.507056    226.29577 
    4300    132.66757   -529.53841    143084.04   -39631.899    2668.9382   -42300.837    25.760752    224.46063 
    4350    133.04636   -571.09942    143045.97   -39614.077    2676.5585   -42290.636    26.078822     225.1015 
    4400    131.31143   -554.48773    143041.21   -39593.953    2641.6559   -42235.609    26.241061    222.16616 
    4450    131.79643   -547.16637    143062.79   -39603.601    2651.4129   -42255.014    26.317775    222.98674 
    4500    135.09068    -580.4434    143107.42   -39627.564     2717.685   -42345.249    26.541427    228.56029 
    4550    131.91969   -502.07578    143133.93   -39639.149    2653.8927   -42293.041    26.664106    223.19529 
    4600    133.08279   -581.56708    143145.63   -39614.738    2677.2913   -42292.029    26.788815    225.16313 
    4650    134.19995   -497.81115    143170.63   -39615.471    2699.7657   -42315.237    26.908677    227.05326 
    4700    131.66889   -577.21405    143228.39   -39653.527    2648.8471   -42302.374    26.988732    222.77095 
    4750    131.41741   -630.65036    143258.31   -39678.463    2643.7881   -42322.252    27.079327    222.34548 
    4800    132.76358   -722.71204    143212.76   -39699.458    2670.8697   -42370.327    27.306109    224.62307 
    4850    133.78041   -590.88453    143287.39   -39637.175    2691.3256   -42328.501    27.510194    226.34344 
    4900    132.70293   -534.14163    143369.62   -39631.329    2669.6494   -42300.978    27.763283    224.52044 
    4950     130.1725   -679.81473    143327.09   -39677.076    2618.7437    -42295.82    27.884411    220.23922 
    5000    132.72142    -581.2318    143346.46   -39673.594    2670.0214   -42343.616    28.120846    224.55173 
    5050     133.4999   -715.26154    143376.25   -39636.544    2685.6825   -42322.226     28.31786    225.86884 
    5100    135.11572   -666.87458    143353.48   -39618.155    2718.1888   -42336.344    28.421854    228.60266 
    5150    134.81905   -635.24474    143363.13     -39611.5    2712.2204    -42323.72    28.484582    228.10072 
    5200     132.4141   -663.71004    143368.93   -39652.972    2663.8389   -42316.811    28.805823    224.03178 
    5250     130.3725   -684.31187    143360.35   -39692.838     2622.767   -42315.605    28.972278    220.57759 
    5300    133.96475   -795.81949    143428.53   -39655.314    2695.0342   -42350.348    29.124761    226.65533 
    5350    132.32262     -760.893    143432.01   -39609.289    2661.9987   -42271.288    29.319882    223.87701 
    5400    137.46334   -749.75674    143504.88   -39613.423     2765.417    -42378.84    29.508266     232.5746 
    5450    133.70613    -733.7101    143481.79   -39630.034    2689.8314   -42319.866    29.806947    226.21777 
    5500    134.42854   -650.03673    143558.32   -39643.011    2704.3643   -42347.375    30.052226    227.44001 
    5550    135.82022   -887.45727    143513.02   -39616.037    2732.3614   -42348.399    30.113841     229.7946 
    5600    133.26231   -865.34516     143441.5   -39643.603    2680.9029   -42324.506    30.350543    225.46687 
    5650    131.58751   -896.61116    143415.21    -39679.36      2647.21    -42326.57    30.590868    222.63326 
    5700    130.88525   -885.74543    143365.72   -39653.938    2633.0824   -42287.021    30.705914    221.44511 
    5750    135.38368   -914.41937    143345.87   -39650.519    2723.5795   -42374.099    30.824405    229.05603 
    5800     132.8454   -708.52742    143427.67   -39652.669    2672.5155   -42325.185    30.977899    224.76149 
    5850    133.61122   -854.80007    143484.39   -39667.878     2687.922     -42355.8    31.035859    226.05719 
    5900    133.84322   -941.32353    143487.85   -39670.524    2692.5893   -42363.113    31.174899    226.44971 
    5950    134.53077   -761.63809    143499.06    -39672.91     2706.421   -42379.331    31.204771    227.61297 
    6000    132.67516   -839.00138    143483.52   -39729.423    2669.0908   -42398.514    31.409446    224.47346 
    6050     133.6417   -683.49125    143473.57   -39716.096    2688.5352   -42404.631     31.62372    226.10876 
    6100    135.13634   -869.21785    143481.87   -39707.334    2718.6035   -42425.938    31.679712    228.63753 
    6150     132.5735   -814.11549     143413.9   -39664.206    2667.0456   -42331.251     31.84847    224.30146 
    6200    132.50025   -881.24482    143392.13   -39677.634    2665.5721   -42343.206    32.024115    224.17754 
    6250    135.04711   -684.22855    143381.32   -39658.742    2716.8084   -42375.551    31.985922    228.48657 
    6300    132.83253   -856.82052    143309.15   -39694.314    2672.2567    -42366.57    32.282682    224.73972 
    6350    132.27356   -648.78218    143283.22   -39692.359    2661.0117   -42353.371    32.441024      223.794 
    6400    130.96696    -710.9423    143255.56   -39713.642    2634.7261   -42348.368    32.548378    221.58336 
    6450    132.49279   -691.04204    143227.38   -39677.903    2665.4219   -42343.325    32.746332    224.16491 
    6500    134.24827   -446.43092    143298.09   -39690.215    2700.7377   -42390.953    32.783143    227.13501 
    6550    132.57072   -568.78298    143382.72   -39692.379    2666.9897   -42359.369    33.019509    224.29676 
    6600    133.99567   -638.73659    143424.09   -39677.472    2695.6562   -42373.128    33.151042    226.70765 
    6650    131.96401   -859.80008    143406.27   -39697.024    2654.7843   -42351.809    33.305982    223.27028 
    6700    133.25369   -807.77793    143358.71   -39696.958    2680.7294   -42377.688     33.46755    225.45228 
    6750    135.01607   -532.89872    143360.28   -39660.204     2716.184   -42376.388    33.484546    228.43405 
    6800    133.07423   -687.12641    143373.75   -39655.281    2677.1191     -42332.4    33.787435    225.14865 
    6850    136.25326    -599.5487    143457.84   -39631.984    2741.0733   -42373.057    33.939618    230.52727 
    6900    134.00136   -721.19177    143502.13   -39619.666    2695.7707   -42315.437    34.202668    226.71727 
    6950    135.57034   -889.95681    143512.82   -39636.847    2727.3346   -42364.181    34.388609    229.37183 
    7000    133.12968   -822.41729    143450.34   -39641.947    2678.2346   -42320.181    34.829305    225.24247 
    7050    132.43141   -571.04275    143410.47   -39649.202    2664.1871   -42313.389    35.053561    224.06106 
    7100    130.56231    -720.4131    143517.88   -39703.311    2626.5855   -42329.897    35.120206    220.89872 
    7150    132.03741   -907.33986    143438.52   -39724.187    2656.2608   -42380.448    35.399658    223.39445 
    7200    133.08438   -810.36425    143399.57   -39681.724    2677.3232   -42359.047    35.564101    225.16582 
    7250    132.43246   -653.82792    143332.89   -39674.783    2664.2083   -42338.991    35.751292    224.06284 
    7300    131.21932   -632.16049    143287.92    -39717.93    2639.8029   -42357.733    36.019487    222.01032 
    7350    132.08111   -798.05898    143307.26   -39682.097    2657.1401   -42339.238    36.179736     223.4684 
    7400    132.94912   -728.20303    143256.48   -39685.635    2674.6021   -42360.238    36.346331    224.93697 
    7450    134.41522    -823.3287    143244.96   -39677.423    2704.0964   -42381.519    36.612262    227.41748 
    7500    132.95817   -830.64048    143242.02   -39697.581    2674.7842   -42372.365    36.767755    224.95229 
    7550    134.20398   -730.56664    143290.11   -39652.792    2699.8468   -42352.639    36.796306    227.06007 
    7600    132.69264   -834.51727    143317.57   -39644.594    2669.4424   -42314.036    37.042778    224.50304 
    7650    134.84239   -699.33345    143286.19    -39649.98      2712.69    -42362.67    37.262806    228.14021 
    7700    134.59946   -675.77739    143274.51    -39708.73    2707.8029   -42416.533    37.333185    227.72919 
    7750    134.35438    -999.0381     143259.9   -39707.632    2702.8725   -42410.505    37.424193    227.31454 
    7800    131.45429   -724.06632    143196.88   -39722.643      2644.53   -42367.173    37.573478    222.40787 
    7850    133.07795   -635.43031    143172.11   -39735.142    2677.1939   -42412.336    37.853165    225.15495 
    7900     133.9222   -662.11375    143186.03   -39761.431    2694.1782   -42455.609    37.982579    226.58334 
    7950    131.43926   -628.76645    143170.09   -39781.503    2644.2275   -42425.731    38.212512    222.38244 
    8000    130.60573   -636.62146    143176.48   -39778.383    2627.4591   -42405.842    38.627096    220.97219 
    8050    131.87869   -364.46391    143212.72   -39735.243    2653.0679   -42388.311    38.755953    223.12592 
    8100    130.47457   -647.13478    143279.12   -39799.027    2624.8205   -42423.847    38.702297    220.75028 
    8150      131.934   -591.52503    143288.09   -39762.422    2654.1806   -42416.603    38.745897     223.2195 
    8200    135.18872   -663.70568    143254.58   -39766.593    2719.6574    -42486.25    38.933804    228.72617 
    8250    131.32845   -638.98971    143296.52   -39712.291    2641.9983    -42354.29      39.0292    222.19496 
    8300    134.43651   -673.75957    143394.99   -39708.694    2704.5247   -42413.218    38.990867    227.45349 
    8350    135.51684   -479.73542    143469.31   -39698.937    2726.2582   -42425.195    39.044239    229.28131 
    8400    136.02524   -805.56388    143593.91   -39672.631     2736.486   -42409.117    39.071739    230.14148 
    8450     134.9839   -737.82754    143615.59   -39694.987    2715.5369   -42410.524    39.246584    228.37963 
    8500    136.69332   -646.30432    143597.59   -39706.929    2749.9261   -42456.855    39.450361     231.2718 
    8550    134.49067   -750.87761    143656.91   -39694.867    2705.6143   -42400.481    39.622599    227.54513 
    8600    134.11683   -850.69054    143658.23    -39709.44    2698.0936   -42407.534    39.807091    226.91263 
    8650    134.13194   -631.83654    143608.89   -39731.013    2698.3976   -42429.411    40.102927     226.9382 
    8700    133.81136   -578.75615    143712.05   -39736.561    2691.9483    -42428.51    39.994556    226.39581 
    8750    131.44028    -756.1774    143727.05   -39762.702    2644.2482    -42406.95    40.261497    222.38417 
    8800    132.26567   -647.14694    143692.45   -39727.667    2660.8529    -42388.52    40.335989    223.78065 
    8850    132.73106   -835.63288    143567.66   -39734.563    2670.2154   -42404.778    40.398351    224.56804 
    8900    131.02679   -682.46946     143532.2   -39769.539    2635.9297   -42405.469    40.515698    221.68458 
    8950    133.93652   -694.40291    143491.71   -39754.802    2694.4661   -42449.268    40.648685    226.60756 
    9000    132.40272    -481.9878    143459.23   -39765.581    2663.6101   -42429.191    40.838687    224.01253 
    9050    132.64928   -696.30939    143501.02   -39744.808    2668.5703   -42413.378     41.13341    224.42969 
    9100    135.71611   -670.46382    143516.14   -39708.831    2730.2672   -42439.099    41.403598    229.61846 
    9150    131.13029   -532.35562    143497.94   -39728.479     2638.012   -42366.491     41.57636     221.8597 
    9200    133.26863   -604.14946    143480.18   -39678.903      2681.03   -42359.933    41.749862    225.47757 
    9250    132.71521   -725.34407    143439.84   -39712.829    2669.8966   -42382.726    41.855325    224.54123 
    9300    132.96425   -519.11108    143466.17   -39736.076    2674.9065   -42410.982    42.026848    224.96257 
    9350    132.72423   -910.96076    143460.73   -39699.994    2670.0779   -42370.071    42.149921    224.55648 
    9400    135.27651   -637.34559    143522.45   -39690.454    2721.4235   -42411.877    42.264765     228.8747 
    9450    133.95043   -926.50949     143497.9   -39676.327     2694.746   -42371.073    42.391361     226.6311 
    9500    133.05908   -761.59218    143447.49   -39656.952    2676.8144   -42333.767    42.517316    225.12303 
    9550    132.81536   -798.28239    143382.92   -39675.633    2671.9112   -42347.544    42.642538    224.71066 
    9600    133.45754   -656.85886    143405.19   -39674.574    2684.8304   -42359.405    42.695854    225.79718 
    9650    132.42315   -838.22152    143447.19   -39669.953    2664.0209   -42333.974    43.074541    224.04708 
    9700    132.39479    -790.0326    143405.32   -39685.982    2663.4504   -42349.433    43.177528     223.9991 
    9750    129.45569   -716.59909    143429.33   -39710.893    2604.3232   -42315.216    43.259388    219.02644 
    9800    129.31419   -573.72201    143396.62   -39686.622    2601.4764   -42288.099    43.600981    218.78702 
    9850    131.62786   -620.40975    143414.13   -39661.814    2648.0218   -42309.836    43.798226    222.70154 
    9900    131.55659    -641.7888    143500.62   -39650.987    2646.5881   -42297.575    44.024934    222.58096 
    9950     134.0704   -686.75997    143521.58   -39710.847    2697.1596   -42408.006    44.253801    226.83408 
   10000    131.42118   -631.73356    143539.89   -39722.587    2643.8638    -42366.45    44.486107    222.35185 
   10050    130.85316   -729.67421    143486.37   -39760.891    2632.4367   -42393.328    44.685001    221.39081 
   10100     132.2762   -805.87358    143444.75   -39688.848    2661.0647   -42349.913    44.954694    223.79846 
   10150     131.7024   -685.81963    143445.14    -39695.71    2649.5213   -42345.231    45.154966    222.82765 
   10200    130.21642    -738.6023    143463.12   -39710.613    2619.6271    -42330.24    45.331164    220.31351 
   10250    133.22697   -632.23978    143527.19   -39688.697    2680.1918   -42368.889    45.336674    225.40707 
   10300    133.30002   -801.07558    143486.26   -39696.425    2681.6614   -42378.087    45.443449    225.53067 
   10350    133.02792   -717.56461    143414.44   -39720.077    2676.1874   -42396.265    45.567624     225.0703 
   10400    131.82846   -855.55481    143431.74   -39663.138    2652.0573   -42315.196    45.807157    223.04093 
   10450    131.73776   -735.11579    143443.77   -39610.767    2650.2326       -42261    45.868913    222.88747 
   10500    135.38447   -851.64743    143410.51   -39593.726    2723.5952   -42317.321    45.961738    229.05735 
   10550    134.31491   -760.18216    143413.99   -39563.356    2702.0784   -42265.434    46.082827    227.24776 
   10600    135.59212   -500.67374     143407.7   -39564.361    2727.7727   -42292.134    46.302818    229.40868 
   10650    134.49628   -731.94591    143448.16   -39603.013    2705.7271    -42308.74    46.579975    227.55462 
   10700    133.08483   -978.75987    143452.35   -39592.231    2677.3323   -42269.564    46.899253    225.16658 
   10750    130.53407   -882.50762    143378.49   -39620.264    2626.0174   -42246.281    47.257915    220.85095 
   10800    131.60101   -808.33835    143324.35   -39615.529    2647.4815   -42263.011    47.389149     222.6561 
   10850    136.21352   -498.85383    143354.08   -39547.311    2740.2738   -42287.585    47.645939    230.46003 
   10900    133.90288   -727.75974    143288.47   -39548.995    2693.7895   -42242.785    48.151724    226.55065 
   10950    131.30039   -826.98929    143232.19   -39613.305    2641.4338   -42254.739    48.515363    222.14748 
   11000    135.97537   -626.73773    143109.54   -39592.567    2735.4827    -42328.05    48.795572    230.05709 
   11050    134.46251   -657.09643    143126.87   -39594.496    2705.0478   -42299.544    48.903789    227.49749 
   11100     134.0796   -655.29759    143088.42   -39583.443    2697.3447   -42280.788    49.201057    226.84965 
   11150    132.36994   -660.91344    143046.17   -39584.402    2662.9506   -42247.352    49.483047    223.95707 
   11200    133.36036   -552.41393    143091.65   -39569.129    2682.8753   -42252.005    49.678076    225.63275 
   11250    133.79619   -546.72605    143173.09   -39568.615    2691.6432   -42260.258    49.800421    226.37014 
   11300    133.79287   -558.09996    143112.01    -39619.98    2691.5764   -42311.557    49.943814    226.36452 
   11350    132.71924   -640.86321    143042.79   -39631.566    2669.9776   -42301.544    50.252511    224.54805 
   11400    132.20781   -523.49925    143062.47   -39657.807    2659.6889   -42317.496    50.419575    223.68275 
   11450    130.75181   -783.36615    143065.44   -39734.927    2630.3978   -42365.325    50.542154    221.21934 
   11500    131.12447   -914.83051    143012.57   -39745.765    2637.8947   -42383.659     50.76662    221.84984 
   11550    132.52215   -727.36798    142982.04   -39721.488    2666.0125     -42387.5    50.897098    224.21458 
   11600    131.07663   -693.94631    142971.46   -39728.461    2636.9323   -42365.394    51.045394     221.7689 
   11650    130.58871   -867.09185    142900.78   -39725.275    2627.1167   -42352.392    51.061178    220.94339 
   11700    132.09566   -735.34382    142903.65   -39691.419    2657.4327   -42348.852    51.278611    223.49301 
   11750    133.81564   -714.34914     142971.7   -39661.769    2692.0344   -42353.804     51.56688    226.40304 
   11800    129.86586   -607.21017    143002.73   -39686.347    2612.5747   -42298.922    51.759399     219.7204 
   11850    131.22384   -659.68765    142951.97   -39660.026    2639.8939    -42299.92    52.024383    222.01798 
   11900    130.18398   -691.97915    142894.95   -39706.755    2618.9745   -42325.729    52.104572    220.25863 
   11950    131.41936   -465.18055    142914.09   -39662.077    2643.8272   -42305.904    52.271079    222.34877 
   12000    134.62882   -537.89367    142953.33   -39617.716    2708.3936   -42326.109    52.571492    227.77887 
   12050    136.25851   -744.63232    142945.24   -39617.162    2741.1789   -42358.341    52.698118    230.53615 
   12100     132.7871   -614.97295    142915.22   -39602.404    2671.3428   -42273.747    53.110707    224.66286 
   12150    134.61657   -688.48117    142837.28   -39587.164     2708.147   -42295.311    53.420198    227.75814 
   12200    135.23819   -668.47444    142834.26   -39574.812    2720.6526   -42295.465     53.47371    228.80987 
   12250    134.18498   -671.00132     142917.2   -39608.254    2699.4647   -42307.718     53.59586    227.02794 
   12300    131.52533   -625.08987    142963.26   -39679.306    2645.9591   -42325.265    53.533612    222.52806 
   12350    132.84184   -592.53676    143011.47     -39640.8     2672.444   -42313.244    53.707037    224.75547 
   12400    134.94766   -750.09595    143032.66   -39649.426    2714.8079   -42364.234    53.991208    228.31832 
   12450    131.19019   -809.23903    143008.63   -39650.789    2639.2169   -42290.006    54.089082    221.96103 
   12500    130.12802   -713.29265    142938.75   -39672.208    2617.8488   -42290.057     54.37934    220.16395 
   12550    131.69289   -603.77167    142936.63   -39671.113    2649.3301   -42320.443    54.482438    222.81157 
   12600    132.46681   -699.15244    142929.58   -39672.107    2664.8992   -42337.006    54.690654    224.12095 
   12650    133.62585    -671.1686    142953.41   -39665.487    2688.2164   -42353.703    54.837557    226.08195 
   12700    134.12673   -765.07304    143069.06   -39604.068    2698.2927   -42302.361    54.984757    226.92938 
   12750    132.19878   -720.84993    143086.15   -39631.896    2659.5072   -42291.404    55.048547    223.66748 
   12800    132.00599   -857.04148     143011.8    -39671.42    2655.6289   -42327.049    55.086526     223.3413 
   12850    129.86004   -711.66418    142996.33   -39710.484    2612.4577   -42322.942    55.218727    219.71056 
   12900    132.23514   -892.34324    142910.43   -39702.078    2660.2387   -42362.317    55.336368      223.729 
   12950     133.2147   -620.42963    142950.74   -39756.268     2679.945   -42436.213    55.379003    225.38632 
   13000    130.64529   -760.14732    142975.35   -39751.439    2628.2549   -42379.694    55.529284    221.03913 
   13050    131.45606   -922.53666    142956.39   -39704.941    2644.5655   -42349.507    55.753604    222.41086 
   13100    130.37664   -777.20926    142950.54   -39695.113    2622.8504   -42317.963    55.931077     220.5846 
   13150    130.32979     -787.341    142959.64   -39712.551    2621.9078   -42334.459    56.089714    220.50532 
   13200    134.05761   -639.80133    142944.51   -39662.894    2696.9022   -42359.796    56.270332    226.81243 
   13250    137.29161   -711.63062    142987.34   -39689.702    2761.9623   -42451.664    56.269679    232.28406 
   13300    132.42162    -614.0226    142983.33   -39717.177    2663.9902   -42381.168     56.48758     224.0445 
   13350    130.96051   -821.83754    142918.24    -39748.88    2634.5964   -42383.476    56.689247    221.57245 
   13400    133.02728   -717.46374    142906.84   -39719.075    2676.1746    -42395.25    56.928059    225.06922 
   13450    130.67533   -855.83629    142807.94    -39717.13    2628.8593   -42345.989    57.138751    221.08995 
   13500    131.24918   -771.89544    142755.03   -39687.595    2640.4036   -42327.999     57.04388    222.06084 
   13550    130.30797   -737.68113    142774.78    -39684.02    2621.4689   -42305.489     57.28773    220.46841 
   13600    132.64807   -709.22526    142773.67    -39728.06    2668.5457   -42396.605    57.342355    224.42763 
   13650    133.77371    -715.9034    142768.49   -39677.124    2691.1908   -42368.314    57.237649     226.3321 
   13700    133.41594   -749.77644    142779.28    -39622.36    2683.9934   -42306.353    57.227306    225.72679 
   13750    131.59374   -443.59348    142759.01   -39648.042    2647.3353   -42295.377    57.662928     222.6438 
   13800    132.64899   -690.88756    142781.21    -39642.95    2668.5642   -42311.514    57.980564    224.42918 
   13850    130.07298   -539.90244       142738   -39619.253    2616.7415   -42235.995     58.32235    220.07083 
   13900    134.26968   -642.69489    142734.38   -39620.585    2701.1685   -42321.754    58.496942    227.17124 
   13950    134.61716   -709.14416    142730.53   -39615.338     2708.159   -42323.497    58.649057    227.75915 
   14000    131.21926   -845.23965    142667.86   -39618.431    2639.8017   -42258.233    58.840911    222.01022 
   14050    132.98224   -657.83519    142591.58   -39607.648    2675.2686   -42282.916    58.974896    224.99302 
   14100    134.65632   -650.94446    142552.03   -39581.137    2708.9467   -42290.084    59.057574    227.82539 
   14150    132.98516   -638.56675    142545.64   -39567.936    2675.3272   -42243.263    59.271754    224.99796 
   14200    136.05905    -523.4565    142609.11   -39564.616    2737.1662   -42301.782    59.437554    230.19868 
   14250     131.6297   -575.66564    142694.91   -39602.628    2648.0587   -42250.686    59.689943    222.70464 
   14300    130.92105   -848.70533    142706.08   -39614.968    2633.8025    -42248.77    59.883115    221.50568 
   14350    131.34693   -754.09819     142668.9   -39554.056    2642.3702   -42196.426    59.987455    222.22624 
   14400    132.73083   -801.59339    142582.55   -39547.901    2670.2107   -42218.112     60.31723    224.56765 
   14450    134.12458   -429.89824    142727.47   -39574.173    2698.2495   -42272.422    60.534337    226.92574 
   14500    133.03716   -566.80983    142830.02   -39601.017    2676.3732    -42277.39    60.526301    225.08593 
   14550    132.23013   -723.52884    142744.83   -39575.872     2660.138    -42236.01    60.900095    223.72053 
   14600    134.29022   -622.26648    142717.61   -39554.598    2701.5818    -42256.18    61.287023    227.20599 
   14650    132.73932   -481.41068    142757.24   -39558.445    2670.3815   -42228.826    61.472729    224.58201 
   14700    130.11544   -556.07163    142769.18   -39580.248    2617.5957   -42197.844    61.455522    220.14267 
   14750    131.94207   -706.39775    142728.09   -39551.621     2654.343   -42205.964    61.446026    223.23316 
   14800    134.45896   -602.30144    142777.97     -39526.4    2704.9765   -42231.376    61.705551    227.49149 
   14850    132.24985   -625.16638    142837.94   -39579.436    2660.5346   -42239.971    61.885074    223.75388 
   14900    131.10216   -762.27132    142818.18   -39610.175     2637.446   -42247.621    62.009517     221.8121 
   14950    133.55698   -652.72128    142805.71   -39590.683    2686.8309   -42277.513    62.264185    225.96542 
   15000    133.83361   -513.20874    142800.61   -39598.292    2692.3958   -42290.688    62.489718    226.43345 
   15050    134.20617   -529.64302     142822.9   -39601.244    2699.8908   -42301.135    62.638039    227.06378 
   15100    130.57138    -685.1956    142743.96   -39621.036     2626.768   -42247.804      62.7431    220.91407 
   15150    134.02479    -630.6368    142799.41   -39585.719    2696.2419   -42281.961    62.877067     226.7569 
   15200    132.92873   -522.19189     142852.7   -39594.654     2674.192   -42268.846    63.051717    224.90248 
   15250    131.63581    -634.7662    142834.63   -39632.287    2648.1817   -42280.469    63.182246    222.71498 
   15300     134.4546   -482.53015    142892.24    -39560.03    2704.8887   -42264.919    63.421239     227.4841 
   15350    132.57128   -675.81898     142924.7   -39565.394    2667.0011   -42232.395    63.578216    224.29772 
   15400     134.3251   -511.53281    142899.22   -39532.304    2702.2834   -42234.588    63.673589      227.265 
   15450    132.50136   -593.79499    142926.34   -39560.507    2665.5944   -42226.101    63.764274    224.17941 
   15500     137.3741   -728.36379    142934.62   -39557.059    2763.6216   -42320.681    64.045415    232.42361 
   15550    133.99373   -791.79248    142981.16   -39601.199    2695.6171   -42296.816    64.296354    226.70436 
   15600    133.74872   -794.12623    142993.15   -39590.276    2690.6882   -42280.964    64.383716    226.28983 
   15650    134.76641   -768.30002    142994.96    -39613.46    2711.1615   -42324.621    64.728673    228.01166 
   15700    132.34197   -604.21092    142928.72   -39605.595    2662.3879   -42267.983    64.871885    223.90975 
   15750    134.73463   -550.42398    142940.49   -39581.216    2710.5221   -42291.738    65.079479    227.95788 
   15800    134.08281   -730.06122    143023.39   -39499.461    2697.4092    -42196.87     65.19976    226.85507 
   15850    133.34752   -654.21966    142956.22    -39551.98     2682.617   -42234.597    65.362813    225.61103 
   15900    131.82051   -566.85983    142978.55   -39612.172    2651.8975    -42264.07    65.606672    223.02749 
   15950    134.13569   -586.81158     142990.6   -39588.179     2698.473   -42286.652    65.742781    226.94454 
   16000    132.54333   -574.05243     143007.6   -39590.464    2666.4388   -42256.902    66.043506    224.25043 
   16050     134.8655   -614.11262     143030.6   -39552.609     2713.155   -42265.764    66.237921    228.17931 
   16100    133.25841   -749.59911    143033.16    -39589.41    2680.8244   -42270.234    66.470028    225.46027 
   16150    133.00941   -516.53741    143066.37   -39614.133     2675.815   -42289.948    66.516158    225.03898 
   16200    133.19976   -719.49465    143079.92   -39659.063    2679.6445   -42338.708    66.887373    225.36104 
   16250    133.35173   -754.16468    143116.84   -39629.827    2682.7016   -42312.529    67.299358    225.61815 
   16300    132.93435   -521.10795    143080.83   -39629.999     2674.305   -42304.304    67.426331    224.91199 
   16350    133.22854   -799.36254    143104.26    -39669.18    2680.2235   -42349.404    67.708808    225.40973 
   16400    131.07134   -841.19829    143039.65   -39720.537     2636.826   -42357.363    67.915462    221.75996 
   16450    131.71798   -649.31263    143025.42   -39722.965    2649.8348     -42372.8    68.081362    222.85402 
   16500    130.63827   -535.07163    143132.93    -39677.94    2628.1137   -42306.054    68.115618    221.02724 
   16550    130.58749   -784.37503    143122.45   -39700.856    2627.0921   -42327.948    68.408687    220.94133 
   16600    134.21054   -934.51627     143126.7    -39650.84    2699.9788   -42350.818    68.883665    227.07118 
   16650    131.63804   -797.97767    143032.41   -39651.371    2648.2266   -42299.597    69.023046    222.71877 
   16700    132.94962   -690.70849    143009.76   -39617.021    2674.6123   -42291.633    69.049693    224.93783 
   16750    134.86673   -650.62132    143040.31   -39594.569    2713.1796   -42307.748    69.203025    228.18138 
   16800    132.23339   -769.91411    143114.29   -39579.872    2660.2035   -42240.075    69.535897    223.72603 
   16850    132.39532   -829.92883    143100.07   -39615.128    2663.4611   -42278.589    69.662736          224 
   16900    132.06661   -793.65503    143070.78   -39661.461    2656.8482   -42318.309    69.852316    223.44385 
   16950    132.05969   -691.01069    143134.07   -39685.157     2656.709   -42341.866     69.94682    223.43214 
   17000    132.41682   -697.69073    143168.39   -39724.652    2663.8937   -42388.545    69.895595    224.03638 
   17050    133.04799   -617.89161    143203.88   -39675.375    2676.5912   -42351.966    69.834301    225.10426 
   17100    132.72224   -848.35264    143212.63   -39676.698     2670.038   -42346.736    69.982444    224.55312 
   17150    132.03244   -726.87241    143196.58   -39660.164    2656.1608   -42316.324     70.01489    223.38604 
   17200    133.53233   -668.28091    143191.15   -39600.745    2686.3348    -42287.08    70.259351    225.92371 
   17250    136.42787   -637.68761    143234.08   -39591.871     2744.586   -42336.457    70.393038    230.82269 
   17300    134.77816   -758.83911    143212.29   -39612.106    2711.3979   -42323.504    70.609257    228.03154 
   17350    133.43175   -723.10131     143193.6   -39625.109    2684.3114    -42309.42     70.79453    225.75354 
   17400    134.77366   -752.92333    143165.36   -39625.665    2711.3073   -42336.972    71.105416    228.02392 
   17450    133.04335   -395.56966    143218.21   -39643.345    2676.4979   -42319.843    71.382236    225.09641 
   17500    132.91989   -729.22038     143258.1   -39626.093    2674.0142   -42300.107    71.706395    224.88753 
   17550    132.46892   -552.52541    143267.98   -39627.329    2664.9419   -42292.271     71.81049    224.12453 
   17600    134.17201   -464.35564    143301.08    -39616.02    2699.2036   -42315.224    71.820615    227.00599 
   17650    134.92346   -454.37103    143377.98   -39640.309    2714.3209    -42354.63    71.866025    228.27737 
   17700    129.01013   -560.26557    143401.51   -39641.829    2595.3596   -42237.189    72.080011    218.27259 
   17750     134.5686   -550.43538    143395.29   -39656.509     2707.182   -42363.692    72.208545    227.67698 
   17800    132.63694   -682.75431    143388.98   -39670.325    2668.3219   -42338.647    72.369586     224.4088 
   17850     136.3496   -498.03618    143320.01   -39710.785    2743.0113   -42453.796    72.712955    230.69026 
   17900    134.54753   -694.91434    143309.45   -39685.379    2706.7581   -42392.138    72.901783    227.64133 
   17950    133.11207   -601.21723    143306.43   -39713.785    2677.8803   -42391.666    72.871044    225.21267 
   18000    135.81489   -563.72022    143316.35   -39633.833    2732.2544   -42366.088    72.955514    229.78559 
   18050     133.6344   -788.33385    143292.19   -39753.014    2688.3884   -42441.402    72.917233    226.09641 
   18100    133.75245   -738.76033    143263.43   -39688.844    2690.7631   -42379.607    73.276863    226.29613 
   18150    133.84139   -575.00299    143219.22   -39700.104    2692.5524   -42392.656    73.352927    226.44661 
   18200     131.3084   -680.92442    143274.36   -39727.777    2641.5951   -42369.372    73.545794    222.16104 
   18250     130.5592    -577.1751    143316.22   -39726.056    2626.5231   -42352.579    73.898138    220.89347 
   18300    131.53072   -504.52848    143369.33   -39724.047    2646.0676   -42370.114    73.949534    222.53719 
   18350    133.00552   -707.63222    143440.33   -39684.532    2675.7367   -42360.269    74.137505     225.0324 
   18400     134.3288   -629.90611    143415.54   -39632.544    2702.3579   -42334.902    74.340946    227.27127 
   18450    134.23948   -701.13235    143341.67   -39677.823    2700.5611   -42378.384    74.587718    227.12015 
   18500    130.41127   -552.19153    143400.06   -39651.995    2623.5471   -42275.542    74.622855    220.64319 
   18550    132.19447   -939.65228    143415.65   -39683.605    2659.4205   -42343.026    74.843299    223.66018 
   18600    134.81793   -601.78739     143463.1   -39618.033    2712.1979   -42330.231    74.695832    228.09882 
   18650    131.82122   -672.93324    143444.44   -39620.735    2651.9118   -42272.647    75.068111    223.02869 
   18700    135.15815   -450.07518    143468.06   -39597.024    2719.0424   -42316.066    75.026568    228.67445 
   18750    133.02623   -741.25059    143478.87   -39605.522    2676.1535   -42281.676    75.170468    225.06744 
   18800    132.44487   -755.05459     143474.8   -39613.498    2664.4579   -42277.956    75.372303    224.08383 
   18850    132.44556   -516.58514    143465.27   -39601.554    2664.4717   -42266.026    75.583424      224.085 
   18900    132.51182   -570.35844    143508.49   -39599.117    2665.8049   -42264.922    75.587111    224.19712 
   18950    133.83352   -705.74529    143498.63   -39611.321    2692.3941   -42303.715    75.846765     226.4333 
   19000    132.13552   -797.44306    143482.24   -39643.002    2658.2346   -42301.237    75.900551    223.56044 
   19050    131.04919   -718.26728    143485.62   -39693.686    2636.3803   -42330.066    76.106436    221.72248 
   19100    132.65779   -833.12335    143429.36   -39725.718    2668.7414    -42394.46    76.298051    224.44408 
   19150    129.61294    -453.1223    143486.58   -39725.145    2607.4867   -42332.632    76.447373    219.29249 
   19200    130.52162   -780.87089    143476.74   -39747.972     2625.767   -42373.739    76.679675    220.82988 
   19250    131.09848   -564.43053    143413.69   -39750.161    2637.3719   -42387.533    76.961182    221.80587 
   19300    130.32698   -573.61526    143464.28    -39690.41    2621.8513   -42312.261    77.134538    220.50057 
   19350    132.96408   -771.64638    143454.99   -39710.329    2674.9032   -42385.232    77.300577     224.9623 
   19400    132.75862    -655.7396    143387.25   -39733.101    2670.7698   -42403.871    77.611001    224.61467 
   19450    133.23144   -536.42586    143370.53   -39706.007    2680.2818   -42386.288    77.716997    225.41464 
   19500    132.59325   -518.98722    143460.39   -39697.168     2667.443   -42364.611    77.899323    224.33488 
   19550    135.11794   -640.13557    143519.16   -39675.941    2718.2334   -42394.175    78.053264    228.60641 
   19600    133.36284   -724.38779    143464.84   -39666.666    2682.9251   -42349.591    78.249594    225.63695 
   19650    136.82311   -728.08466    143477.55   -39631.184    2752.5372   -42383.721    78.560542     231.4914 
   19700    134.25843   -808.13916    143520.33   -39629.841    2700.9421   -42330.783    78.843597     227.1522 
   19750    133.27412    -685.8212    143521.07   -39672.474    2681.1403   -42353.614    79.060775    225.48684 
   19800    133.12141   -750.57523    143583.09   -39716.067    2678.0683   -42394.136     79.30223    225.22848 
   19850    131.89731   -691.33059    143543.48   -39737.592    2653.4424   -42391.035    79.379777    223.15742 
   19900    134.52716   -872.94982    143490.58   -39727.745    2706.3484   -42434.094    79.279251    227.60687 
   19950    132.47762   -835.77733     143422.9   -39724.459    2665.1167   -42389.575    79.440729    224.13924 
   20000    134.72773   -692.64129    143445.54   -39667.508    2710.3834   -42377.892    79.626555    227.94622 
   20050    131.49788   -706.87613    143393.51   -39733.123    2645.4069    -42378.53    79.907961    222.48162 
   20100    130.38422    -796.9781    143317.31   -39699.721    2623.0029   -42322.724    80.203413    220.59742 
   20150    132.40812    -775.4358    143251.55   -39680.872    2663.7187    -42344.59    80.455156    224.02166 
   20200    132.53788   -853.23229    143149.39   -39725.935     2666.329   -42392.264    80.626475     224.2412 
   20250    133.84619   -742.02391    143089.03   -39729.124     2692.649   -42421.773    80.601638    226.45474 
   20300    132.67867   -564.82873    143060.38   -39705.848    2669.1614   -42375.009    80.847641    224.47941 
   20350    133.58776    -493.9792    143192.02   -39717.228    2687.4499   -42404.678    80.859386    226.01749 
   20400    132.91313   -787.26503    143177.71   -39744.089    2673.8783   -42417.967    80.839901     224.8761 
   20450    134.86289   -629.53313    143145.38   -39760.158    2713.1024    -42473.26    80.937982    228.17489 
   20500    132.70962   -599.49534    143092.92   -39705.183    2669.7841   -42374.967    80.903412    224.53177 
   20550     133.3656   -687.31363     143106.9   -39668.503    2682.9807   -42351.484    81.377009    225.64162 
   20600    133.83739   -435.94051    143151.37   -39694.013    2692.4719   -42386.485    81.559663    226.43984 
   20650    134.68869   -799.83723    143251.01    -39657.66     2709.598   -42367.258    81.830624    227.88017 
   20700    134.05274   -637.17554    143255.83    -39687.65    2696.8043   -42384.454    82.171054     226.8042 
   20750    132.62669   -979.09191    143203.81   -39716.684    2668.1156     -42384.8    82.434395    224.39145 
   20800    131.87593   -748.30662    143087.84   -39674.625    2653.0124   -42327.637     82.53828    223.12125 
   20850    135.16936    -635.7634    143079.74   -39723.393    2719.2678   -42442.661    82.766873    228.69341 
   20900    136.03223   -467.88107     143115.4   -39690.881    2736.6267   -42427.508    82.835198     230.1533 
   20950    129.77207   -737.85533    143129.05   -39726.682    2610.6879    -42337.37    83.293919    219.56172 
   21000    131.08363    -754.7691    143039.96    -39724.14    2637.0732   -42361.214    83.471302    221.78075 
   21050    129.86338   -735.56414    142971.59   -39708.576    2612.5249   -42321.101    83.601815    219.71621 
   21100    130.63688   -717.32269    142951.28   -39713.617    2628.0857   -42341.702    83.641383    221.02489 
   21150    129.84266   -700.67035    142976.75    -39724.63     2612.108   -42336.738    83.949131    219.68115 
   21200    131.71476     -725.833    143031.99   -39726.099    2649.7701   -42375.869    84.004831    222.84857 
   21250    133.49515   -626.70866    143067.33   -39618.587    2685.5869   -42304.174    84.244723    225.86081 
   21300     131.9968   -696.03941    143123.11   -39646.407    2655.4438   -42301.851    84.579036    223.32574 
   21350    132.36661   -796.86867    143111.54   -39703.096    2662.8835    -42365.98    84.958148    223.95143 
   21400    135.36416   -627.47452    143092.78   -39620.004    2723.1868   -42343.191    85.198683      229.023 
   21450    132.76804   -659.17911     143193.1   -39648.833    2670.9594   -42319.793    85.526897    224.63062 
   21500    135.73008   -705.72213    143171.48   -39670.949    2730.5481   -42401.497    85.728804    229.64209 
   21550    131.98601   -343.74156    143215.34   -39679.913    2655.2268    -42335.14    85.982907    223.30749 
   21600    131.87033   -673.39129    143284.64   -39716.421    2652.8996   -42369.321    86.177583    223.11177 
   21650    132.33057   -761.29407    143258.57   -39685.888    2662.1585   -42348.046    86.508535    223.89045 
   21700    133.89724   -620.29107    143199.37   -39661.268    2693.6761   -42354.944    86.608674    226.54111 
   21750    135.26221   -513.54836    143146.07   -39652.262    2721.1357   -42373.398    86.601385     228.8505 
   21800    130.25424   -730.48371    143164.99   -39615.637     2620.388   -42236.025     86.70662    220.37751 
   21850    131.04993   -666.46372     143178.5   -39647.152    2636.3953   -42283.547    87.069015    221.72373 
   21900    131.79765    -799.9816    143145.05   -39625.152    2651.4376   -42276.589    87.402434    222.98881 
   21950    133.89042   -572.65519    143102.59   -39627.304    2693.5387   -42320.842    87.611215    226.52956 
   22000    131.79018   -912.54983    143122.75   -39699.131    2651.2872   -42350.418    87.928568    222.97616 
   22050    133.34102    -645.5732    143219.45   -39637.861    2682.4861   -42320.347    87.935717    225.60003 
   22100    134.36036   -700.56578    143260.63   -39604.661    2702.9928   -42307.653    87.861112    227.32466 
   22150    135.47861   -806.69228    143180.74   -39611.852    2725.4892   -42337.342    88.161118    229.21663 
   22200     136.7614   -733.92069    143172.43   -39518.005    2751.2957   -42269.301     88.35522    231.38699 
   22250    136.53387   -714.80445    143127.71   -39532.768    2746.7183   -42279.487    88.675935    231.00202 
   22300    135.19609   -536.60074       143194   -39566.436    2719.8057   -42286.242    89.016947    228.73864 
   22350    135.24213   -609.26693    143282.53   -39551.734    2720.7318   -42272.465    89.342189    228.81653 
   22400    133.79871   -577.60219    143289.41   -39553.614    2691.6939   -42245.308    89.541805    226.37441 
   22450    133.21577   -710.06474    143281.01   -39570.261    2679.9665   -42250.227    89.609371    225.38812 
   22500    131.69914     -735.937    143267.93    -39675.33    2649.4558   -42324.786    89.598809    222.82214 
   22550    131.36899   -624.98703    143271.19   -39712.868    2642.8139   -42355.682     89.84271    222.26355 
   22600    133.15677   -506.49648    143285.17   -39689.961    2678.7796    -42368.74    90.181458     225.2883 
   22650    131.93268   -586.91673    143338.03   -39687.208    2654.1541   -42341.362    90.484264    223.21727 
   22700    130.76862   -641.00736    143346.18    -39690.49     2630.736   -42321.226     90.56337    221.24778 
   22750     135.2459   -589.16096    143343.17   -39695.268    2720.8076   -42416.075    90.376767     228.8229 
   22800    132.99464   -769.91951    143372.33   -39700.629     2675.518   -42376.147    90.130126      225.014 
   22850    133.92844   -748.35714    143347.49   -39657.396    2694.3036     -42351.7    90.364935    226.59389 
   22900    132.88547   -672.51902    143310.14   -39658.059    2673.3217    -42331.38    90.639174    224.82929 
   22950    133.84413   -780.29735    143248.92   -39654.874    2692.6075   -42347.482      90.9272    226.45125 
   23000    131.99894    -605.1213    143281.98   -39617.591    2655.4869   -42273.078    90.997128    223.32936 
   23050     133.5356    -561.6694    143313.31   -39625.654    2686.4008   -42312.054    91.147549    225.92925 
   23100    133.71894   -674.69963    143349.37   -39628.314     2690.089   -42318.403    91.259539    226.23944 
   23150    132.29719   -541.50771    143337.99   -39709.251    2661.4871   -42370.738    91.400039    223.83398 
   23200    131.83925   -649.90041    143287.54   -39725.279    2652.2743   -42377.553    91.514566    223.05918 
   23250    131.25054   -739.20686    143251.94   -39719.957     2640.431   -42360.388    91.544583    222.06315 
   23300    129.90304   -614.96334    143203.57   -39712.013    2613.3227   -42325.336    91.797819     219.7833 
   23350    130.81934   -666.32572    143132.76   -39705.111    2631.7563   -42336.867    91.895863    221.33359 
   23400    135.38201   -653.13687    143085.28   -39621.119    2723.5459   -42344.665    91.766939     229.0532 
   23450    132.61899   -647.93569     143107.8   -39667.332    2667.9608   -42335.292    91.903483    224.37843 
   23500    131.45242   -743.82813    143109.87   -39692.575    2644.4923   -42337.067    92.123191     222.4047 
   23550    130.50185   -588.59114    143097.89   -39721.233    2625.3692   -42346.602    92.383595    220.79643 
   23600    130.04607    -650.8691    143056.67   -39750.092       2616.2   -42366.292    92.531425    220.02529 
   23650    132.04536   -586.24308     143106.5   -39683.048    2656.4209   -42339.469    92.515736    223.40791 
   23700    132.06051    -556.1265    143174.11   -39689.429    2656.7255   -42346.155    92.824352    223.43353 
   23750    132.13935   -432.58434    143201.77   -39692.224    2658.3116   -42350.536     92.99714    223.56692 
   23800    133.22736    -544.5544    143169.09   -39713.715    2680.1996   -42393.914    93.166936    225.40773 
   23850    133.96613   -589.99955    143174.36   -39672.104    2695.0619   -42367.166    93.268301    226.65767 
   23900     132.1394   -757.15712    143138.49   -39699.047    2658.3126   -42357.359      93.2718      223.567 
   23950    132.30035   -669.48385    143115.86   -39708.352    2661.5506   -42369.902    93.553749    223.83933 
   24000      134.961    -686.2777    143130.79   -39646.686    2715.0761   -42361.763     93.49699    228.34088 
   24050    133.85301   -609.67236    143171.13   -39620.344    2692.7862    -42313.13    93.666274    226.46628 
   24100    134.63649   -629.77292    143245.95   -39625.431    2708.5479   -42333.979    94.022787    227.79185 
   24150    135.70463    -624.0733    143308.99   -39582.424    2730.0361    -42312.46     93.95209    229.59903 
   24200    135.24506   -794.95979    143303.76   -39597.436    2720.7907   -42318.227    94.152103    228.82148 
   24250    132.53072   -673.44401    143326.03    -39631.71     2666.185   -42297.895    94.324683    224.22908 
   24300    133.25217   -674.00325    143337.55   -39654.384    2680.6987   -42335.083    94.543933     225.4497 
   24350    134.81756    -745.0642    143361.77    -39664.57    2712.1906   -42376.761    94.716332    228.09821 
   24400    131.81905   -731.97117    143337.29   -39701.978     2651.868   -42353.846     95.14706    223.02501 
   24450    130.78475   -685.25809    143306.41    -39706.84    2631.0604     -42337.9    95.192362    221.27507 
   24500    129.97806   -679.80153    143308.93   -39702.984    2614.8319   -42317.815     95.19377    219.91023 
   24550    133.22217   -607.65763    143377.25   -39633.059    2680.0953   -42313.154     95.27687    225.39895 
   24600    133.32791   -795.52605    143357.96   -39588.122    2682.2224   -42270.345    95.432414    225.57785 
   24650    131.33867   -507.72024     143345.8   -39615.076     2642.204    -42257.28    95.795451    222.21225 
   24700    134.34794   -663.72578    143334.78   -39611.777    2702.7429    -42314.52    96.434685    227.30364 
   24750    131.00324   -671.06981    143341.59   -39644.579     2635.456   -42280.035    96.818355    221.64474 
   24800    133.97078   -654.90788    143379.21   -39602.899    2695.1555   -42298.055     96.79984    226.66553 
   24850    133.45486   -690.61628    143379.15   -39641.228    2684.7764   -42326.005    97.188564    225.79264 
   24900    132.58842   -740.60688    143389.81   -39623.428    2667.3459   -42290.774    97.193436    224.32671 
   24950    131.49279   -779.80646     143424.7   -39679.596    2645.3045   -42324.901    97.488289    222.47301 
   25000    132.02201   -741.01584    143378.61   -39620.224     2655.951   -42276.175    97.647216    223.36839 
   25050    134.62626   -808.09138    143386.42   -39554.546    2708.3421   -42262.888    97.432532    227.77454 
   25100    132.17596   -898.74273    143306.32   -39577.437    2659.0482   -42236.485    97.519603    223.62887 
   25150    131.97887   -729.14294    143272.99   -39615.335    2655.0833   -42270.418    97.528737    223.29542 
   25200    135.36077   -628.60641    143267.34   -39556.888    2723.1186   -42280.006    97.414631    229.01726 
   25250     132.3904   -669.19088    143291.65   -39551.954    2663.3622   -42215.316    97.442926    223.99168 
   25300    132.10101   -916.77433    143247.38   -39573.695    2657.5403   -42231.235    97.575217    223.50205 
   25350    132.48893    -758.3025    143193.85   -39599.861    2665.3442   -42265.205    97.802532    224.15837 
   25400    133.69732   -780.99402    143156.47   -39639.396     2689.654    -42329.05    98.150166    226.20286 
   25450    132.75142   -700.96315    143154.16   -39629.345    2670.6249    -42299.97    98.482964    224.60249 
   25500    132.80081   -872.03587    143165.17   -39617.033    2671.6185   -42288.652    98.849798    224.68605 
   25550    133.93745   -565.61879    143150.02   -39593.913    2694.4848   -42288.398    99.056222    226.60913 
   25600      134.849     -579.937    143219.42   -39583.448     2712.823   -42296.271    99.272892    228.15139 
   25650    135.25399   -699.35304    143254.12   -39545.698    2720.9704   -42266.668    99.569158     228.8366 
   25700    135.07345   -713.32633    143239.05   -39551.221    2717.3384    -42268.56    99.447828    228.53114 
   25750    134.85676   -663.24568    143203.11    -39535.37    2712.9791    -42248.35    99.680123    228.16452 
   25800    132.38617    -729.2167     143210.9   -39521.328    2663.2771   -42184.605    100.17975    223.98452 
   25850    130.93267   -596.60196    143179.07   -39571.365    2634.0362   -42205.401    100.47601    221.52534 
   25900    132.68143   -674.40531     143247.4   -39540.141    2669.2169   -42209.358    100.40913    224.48407 
   25950    131.44412   -686.33664    143259.93   -39516.363    2644.3253   -42160.688    100.74596    222.39066 
   26000    135.14387   -648.36797    143290.42    -39472.36     2718.755   -42191.115    101.08369    228.65028 
   26050    136.50781   -795.95404    143231.71   -39439.871     2746.194   -42186.065    101.52923    230.95793 
   26100    134.72044    -910.0287    143082.31   -39428.571    2710.2368   -42138.808     101.9978    227.93389 
   26150     134.7764   -801.34712    143005.41   -39391.918    2711.3625   -42103.281    102.27285    228.02856 
   26200    132.29664   -662.85206    142928.34    -39418.22    2661.4759   -42079.696    102.41068    223.83304 
   26250    134.64968   -596.34288    142945.13    -39378.63    2708.8131   -42087.443     102.9238    227.81415 
   26300     135.3042   -560.49209    142876.08   -39376.665    2721.9805   -42098.646    103.22803    228.92155 
   26350    132.68972   -645.00911    142940.31   -39455.575    2669.3838   -42124.959    103.26566    224.49811 
   26400    134.74342   -567.02769    142908.19   -39400.554    2710.6991   -42111.253    103.32726    227.97277 
   26450    131.47207   -769.72668    142822.82   -39427.558    2644.8877   -42072.446    103.63664    222.43796 
   26500    133.98374   -913.21806    142729.47   -39426.949    2695.4161   -42122.365    103.71943    226.68745 
   26550     133.8312   -439.95138    142789.84    -39425.43    2692.3474   -42117.778    104.25967    226.42937 
   26600    134.84843   -888.93293    142823.74    -39476.66    2712.8116   -42189.471    104.52125    228.15043 
   26650    133.68453   -601.29754    142758.61   -39462.628    2689.3967   -42152.025    104.83166    226.18122 
   26700    136.52442   -757.88876    142724.67   -39449.922    2746.5283    -42196.45    105.08405    230.98604 
   26750    131.71082   -706.06335    142711.71   -39471.796    2649.6907   -42121.487    105.31463    222.84189 
   26800    136.15154   -599.98336    142715.98   -39428.959    2739.0268   -42167.985    105.54928    230.35516 
   26850    131.79116   -613.38804    142776.03   -39502.705     2651.307   -42154.012    105.68829    222.97783 
   26900    132.65293   -616.90571    142765.14   -39506.948    2668.6436   -42175.591    106.06874    224.43585 
   26950    135.50983   -436.15699    142770.64   -39504.768    2726.1173   -42230.885    106.26273    229.26946 
   27000    132.30086   -574.83806    142808.18   -39516.931    2661.5608   -42178.491    106.40715    223.84018 
   27050    132.78336   -838.90457    142792.45   -39524.281    2671.2676   -42195.549    106.55433    224.65653 
   27100    133.32978   -621.95752    142889.15   -39528.699    2682.2601   -42210.959    106.55616    225.58101 
   27150    132.41599   -653.20034    142957.42   -39552.578    2663.8769   -42216.455    106.95415    224.03497 
   27200    130.88805   -936.31814    142898.72   -39560.858    2633.1386   -42193.997    107.13457    221.44984 
   27250    134.36829    -589.0385    142829.54   -39569.769    2703.1522   -42272.921    107.49904    227.33807 
   27300     132.8422   -572.35872     142922.6   -39595.602    2672.4512   -42268.053    107.74055    224.75608 
   27350    131.61524   -488.73387    142961.49   -39583.369     2647.768   -42231.137     107.9328    222.68019 
   27400    133.23752   -590.18866    143007.91   -39593.097    2680.4042   -42273.501    108.31107    225.42493 
   27450    135.71614   -753.41477    143031.45   -39629.441    2730.2677   -42359.708    108.61615    229.61851 
   27500    133.11211   -705.09889     142968.8   -39672.318    2677.8812   -42350.199    108.86892    225.21275 
   27550    132.00524   -724.97517    143012.02   -39681.842    2655.6137   -42337.455    108.79847    223.34003 
   27600    132.72694   -658.95578    143018.49   -39653.966    2670.1326   -42324.099    108.94185    224.56108 
   27650    132.61878   -712.32564    142926.98   -39614.695    2667.9565   -42282.652    109.19565    224.37807 
   27700     133.4924   -818.68872    142957.89   -39609.789    2685.5317   -42295.321    109.41679    225.85616 
   27750    132.22151   -754.51498    143001.05   -39603.589    2659.9644   -42263.553    109.75503    223.70593 
   27800    135.61229   -817.33924    142929.75   -39591.438    2728.1784   -42319.617    109.97891     229.4428 
   27850    135.19149   -658.82905    142956.42   -39576.069     2719.713   -42295.782    110.11964    228.73084 
   27900    137.93342   -684.12214    143000.01   -39537.473    2774.8737   -42312.347    110.05875    233.36992 
   27950    133.92155   -673.80727    143000.25   -39529.964    2694.1651    -42224.13    110.30263    226.58224 
   28000     135.6395   -491.61955    143038.07   -39516.695    2728.7258   -42245.421    110.75507    229.48883 
   28050    138.70043   -632.05322    143082.58   -39492.978     2790.304   -42283.282    110.71956    234.66763 
   28100    136.75034   -825.68908     143080.2    -39509.36    2751.0731   -42260.433    110.68374    231.36827 
   28150    135.23277   -655.58033    143092.27   -39510.015    2720.5435   -42230.558     110.3775    228.80069 
   28200    133.72533   -820.72473    143041.78   -39525.664    2690.2177   -42215.881    110.82485    226.25026 
   28250    133.20677    -701.3466    143036.78   -39570.606    2679.7855   -42250.391    111.31806     225.3729 
   28300    136.89175   -759.56768    142955.41   -39550.008     2753.918   -42303.926    111.70641    231.60752 
   28350    135.96932   -489.87564    142891.05   -39536.374     2735.361   -42271.735    111.71352    230.04686 
   28400    133.25233   -674.35078    142877.35   -39577.954     2680.702   -42258.656    111.94694    225.44998 
   28450    133.56931   -534.67485    142853.53   -39621.716    2687.0788   -42308.795    112.08197    225.98628 
   28500    133.99275   -560.55052    142903.42   -39602.363    2695.5975   -42297.961    112.58708    226.70271 
   28550    136.78637   -714.62704    142871.59    -39564.87    2751.7981   -42316.668    112.75284    231.42924 
   28600    133.13016   -578.87802    142926.67   -39629.245    2678.2443    -42307.49    112.99483    225.24329 
   28650    135.83639   -633.01329    142883.85   -39608.916    2732.6869   -42341.603    112.97557    229.82196 
   28700    134.98114   -578.67825    142805.72   -39600.531    2715.4814   -42316.013    113.14427    228.37497 
   28750    132.19824   -434.92932    142830.93   -39613.215    2659.4963   -42272.712    113.55826    223.66656 
   28800    133.44095   -626.56661    142850.29   -39643.469    2684.4966   -42327.966    113.54614    225.76911 
   28850    131.49429   -665.56254     142835.6   -39638.226    2645.3346    -42283.56    113.73394    222.47554 
   28900     130.5042   -384.66073    142906.38   -39672.025    2625.4165   -42297.442    113.86233    220.80041 
   28950    133.79796   -553.55623    142988.36   -39637.327    2691.6786   -42329.005    113.96956    226.37313 
   29000    132.46641   -387.30368    143000.81   -39595.005    2664.8913   -42259.897    114.16928    224.12028 
   29050    134.39105   -558.47481    143040.22    -39669.23    2703.6103    -42372.84     114.1885    227.37659 
   29100    131.71653   -450.23219    143065.22   -39659.515    2649.8056   -42309.321    114.48009    222.85156 
   29150    133.20781   -712.44641     143130.8   -39654.192    2679.8064   -42333.999    114.52684    225.37466 
   29200    133.08884   -636.94309    143161.76   -39611.347    2677.4131    -42288.76    114.76056    225.17338 
   29250    135.46311   -663.06662    143150.53   -39575.832    2725.1773   -42301.009    114.82098     229.1904 
   29300    135.34193   -853.67571    143210.28   -39574.428    2722.7395   -42297.168     114.9305    228.98538 
   29350    131.49034    -602.9334    143187.28   -39592.095    2645.2553    -42237.35    115.15584    222.46887 
   29400    133.14468   -574.90027    143207.25   -39586.342    2678.5365   -42264.879    115.09102    225.26785 
   29450    133.63719   -505.47797    143334.43    -39534.19    2688.4444   -42222.634     115.2343    226.10112 
   29500    133.01946   -654.59535    143356.47   -39523.503    2676.0172    -42199.52    115.48564    225.05598 
   29550    133.92227   -651.34158    143373.46    -39499.02    2694.1796   -42193.199    115.49204    226.58346 
   29600    132.39883   -741.41529    143413.06    -39464.72    2663.5318   -42128.252    115.59264    224.00594 
   29650    132.04262   -779.39931    143333.91    -39510.79    2656.3656   -42167.156    115.68287    223.40326 
   29700    130.66561   -661.76332     143393.2   -39507.146    2628.6637    -42135.81    116.06218     221.0735 
   29750    131.31488   -568.49872    143374.23   -39534.685    2641.7253   -42176.411    116.31056      222.172 
   29800    130.31324   -514.79385    143313.61   -39532.621    2621.5749   -42154.196    116.66798    220.47732 
   29850    131.97665   -950.99716    143315.82   -39538.139    2655.0386   -42193.177    116.81578    223.29166 
   29900     134.0848   -607.91932    143251.99   -39529.825    2697.4492   -42227.274    117.03574    226.85844 
   29950    135.22985   -807.35919    143246.04   -39525.357    2720.4848   -42245.842    117.00228    228.79575 
   30000    133.21933   -765.06363    143284.08   -39510.089    2680.0382   -42190.127    117.12063    225.39415 
   30050    132.74987   -524.76241       143349   -39530.519    2670.5938   -42201.112    117.15992    224.59987 
   30100    131.62882   -636.52154     143375.4   -39573.784     2648.041   -42221.825    117.10203    222.70316 
   30150    130.62646   -723.92297    143440.59   -39603.316    2627.8762   -42231.192    117.49655    221.00727 
   30200    131.78174   -824.36568    143431.06   -39628.039    2651.1174   -42279.156    117.48778    222.96188 
   30250    132.15442   -868.57684    143429.04    -39660.37    2658.6147   -42318.985    117.70711    223.59242 
   30300    130.63839   -973.06079    143386.37   -39634.912    2628.1161   -42263.028    117.99762    221.02745 
   30350    130.77281   -954.48594    143385.78   -39650.731    2630.8203   -42281.551    118.33103    221.25487 
   30400    129.27781   -670.29183    143377.26   -39650.151    2600.7446   -42250.895    118.57868    218.72547 
   30450    133.87072    -760.3944    143443.85   -39612.997    2693.1425    -42306.14    118.80525    226.49624 
   30500    131.26576   -680.04279    143413.45   -39632.261    2640.7372   -42272.998    118.92721    222.08889 
   30550    133.98455   -633.17641    143448.14   -39628.585    2695.4324   -42324.017    119.15643    226.68882 
   30600    132.62727    -724.7844    143516.27    -39583.43    2668.1274   -42251.558    119.15805    224.39244 
   30650    134.96019   -551.04541    143624.32   -39501.166    2715.0599   -42216.226    119.23513    228.33952 
   30700     135.7185   -702.69937    143574.67   -39490.574    2730.3152    -42220.89    119.55326    229.62251 
   30750    138.81792   -614.89005    143611.81   -39437.343    2792.6678   -42230.011    119.79829    234.86642 
   30800    136.34165   -828.18612    143668.57   -39487.426    2742.8515   -42230.277    119.85652    230.67682 
   30850    137.15636   -634.42426    143710.13   -39483.491    2759.2412   -42242.732    119.97472    232.05521 
   30900    134.85615   -757.31534    143712.06   -39501.143    2712.9669    -42214.11    120.19056    228.16349 
   30950    135.39941   -598.08556    143742.02   -39500.248    2723.8959   -42224.144    120.40958    229.08263 
   31000    132.97827   -876.10772     143746.2   -39505.759    2675.1887   -42180.948    120.69383    224.98631 
   31050    133.97748   -840.29602    143566.74   -39552.633    2695.2902   -42247.923    120.53638    226.67686 
   31100    132.55252   -784.95403    143529.98   -39576.315    2666.6236   -42242.938    120.54123    224.26597 
   31150     132.2293   -717.63542    143557.38   -39555.471    2660.1212   -42215.592    120.48611    223.71911 
   31200    133.26284   -767.24029    143524.71   -39549.992    2680.9135   -42230.906    120.72247    225.46777 
   31250    135.31795   -813.95141    143528.94   -39548.303    2722.2571    -42270.56    120.79694    228.94481 
   31300    134.30073   -816.36471    143487.05   -39550.152    2701.7931   -42251.945    121.38814    227.22377 
   31350     132.7808   -822.65306    143421.44   -39574.082     2671.216   -42245.298    121.36682    224.65219 
   31400    132.01614   -748.28212     143345.9   -39629.785     2655.833   -42285.618    121.47721    223.35847 
   31450    134.16606   -818.74281    143375.48   -39593.982     2699.084   -42293.066    121.50129    226.99592 
   31500    135.60216    -690.0421     143384.6   -39552.219    2727.9747   -42280.194    121.61884    229.42567 
   31550    138.00125   -607.53765    143486.91   -39511.261    2776.2384   -42287.499    121.71445    233.48469 
   31600    134.08127   -753.97557     143526.9   -39552.517    2697.3782   -42249.895    121.76606    226.85246 
   31650     135.1149    -906.9343    143495.63   -39520.742    2718.1723   -42238.914    122.15403    228.60127 
   31700    133.57242    -803.6943    143412.81   -39492.151    2687.1415   -42179.293    122.27264    225.99155 
   31750    132.52813   -600.32346    143383.34   -39527.135    2666.1328   -42193.268    122.29036     224.2247 
   31800    136.65629    -699.3228    143457.85   -39493.525    2749.1811   -42242.706    122.42656    231.20915 
   31850    134.31739   -751.54979    143402.76   -39518.208    2702.1283   -42220.337    122.63131    227.25196 
   31900    134.00468   -660.98457    143312.05   -39512.752    2695.8375   -42208.589     122.6189    226.72289 
   31950    131.66211   -774.26498     143293.5   -39528.136    2648.7107   -42176.846    123.09758    222.75948 
   32000    130.99495   -935.85685    143283.33    -39537.53    2635.2893   -42172.819    123.41105    221.63072 
   32050    135.38656   -833.49088    143302.23   -39506.762    2723.6374     -42230.4    123.72028     229.0609 
   32100    134.18199   -553.94237    143383.49   -39519.911    2699.4045   -42219.315    124.11095    227.02288 
   32150    132.05591   -630.77551    143450.11   -39525.842    2656.6331   -42182.475    124.18318    223.42576 
   32200    132.07134   -740.14756    143429.46   -39525.181    2656.9434   -42182.124    124.12988    223.45186 
   32250    134.01181   -755.72778    143351.89   -39522.652    2695.9808   -42218.633    124.43809    226.73494 
   32300    136.31427   -680.84033    143410.44   -39466.736    2742.3005   -42209.037    124.62911    230.63048 
   32350    132.35384    -885.2968    143415.07   -39488.079    2662.6266   -42150.705    124.61025    223.92982 
   32400    134.29588   -791.49074     143385.1   -39473.741    2701.6957   -42175.437    124.96246    227.21557 
   32450    133.57596   -834.36418    143364.08   -39520.537    2687.2126   -42207.749    125.19042    225.99753 
   32500    133.78171   -785.46997    143384.44   -39548.575    2691.3519   -42239.927    125.40364    226.34565 
   32550    131.73696   -668.37194    143399.07   -39582.883    2650.2165   -42233.099    125.58721    222.88612 
   32600    135.45382   -802.58213    143389.64   -39570.997    2724.9904   -42295.987    125.84787    229.17468 
   32650    133.99616   -867.99373    143356.01   -39573.298    2695.6659   -42268.963    125.79714    226.70846 
   32700    133.03174   -690.37152    143263.36   -39571.422    2676.2644   -42247.686    126.30993    225.07677 
   32750    132.49659   -966.42316    143208.81   -39634.899    2665.4984   -42300.398     126.6219    224.17134 
   32800       134.25     -831.754    143132.22    -39627.28    2700.7725   -42328.052    126.78157    227.13793 
   32850    133.49518   -757.37751    143191.86   -39589.172    2685.5876    -42274.76    126.79535    225.86086 
   32900    131.53038   -789.47786    143177.62   -39637.818    2646.0607   -42283.878    127.08216    222.53661 
   32950    132.23953   -741.98342    143224.58   -39624.795    2660.3271   -42285.122    127.45292    223.73643 
   33000    135.13325   -880.47802    143238.32    -39618.02    2718.5414   -42336.561    127.60278    228.63231 
   33050    131.89544   -810.57497    143181.87   -39647.221    2653.4047   -42300.625    127.55727    223.15425 
   33100    132.73492   -797.88815    143113.26   -39646.107    2670.2929     -42316.4    127.89241    224.57457 
   33150    132.40182    -815.0039    143025.58   -39705.073    2663.5919   -42368.665    128.12178      224.011 
   33200    134.23845   -670.19977    143031.44   -39644.678    2700.5403   -42345.218    128.27828     227.1184 
   33250    132.55174   -658.65783    142977.72   -39592.252     2666.608    -42258.86    128.30971    224.26466 
   33300    133.96537   -585.05644    143016.98   -39586.653    2695.0466     -42281.7    128.17981    226.65638 
   33350    131.48302   -546.28866    143064.73   -39595.526    2645.1079   -42240.634    128.29898    222.45648 
   33400    132.83079   -628.21548    143088.57   -39625.153    2672.2217   -42297.374    128.22217    224.73678 
   33450    134.64982   -445.59124    143185.58   -39596.992     2708.816   -42305.808    128.41376     227.8144 
   33500    135.23098   -605.93948    143264.34   -39606.693    2720.5074   -42327.201    128.68052    228.79766 
   33550    135.67073   -636.26602    143243.35   -39644.576    2729.3542    -42373.93    128.80074    229.54168 
   33600    132.76183   -633.18994    143265.76   -39651.863    2670.8345   -42322.698    128.89832    224.62011 
   33650    132.49329   -622.19653    143205.94   -39647.051    2665.4321   -42312.483    129.31162    224.16577 
   33700    132.32029    -794.0542    143191.52   -39634.353    2661.9517   -42296.304    129.41518    223.87306 
   33750    134.24332   -712.70619    143182.55   -39661.279    2700.6382   -42361.917    129.61579    227.12664 
   33800    131.30799   -740.01682    143171.21    -39627.35    2641.5868   -42268.937    129.75851    222.16035 
   33850    131.43133    -692.8563     143122.7   -39666.361    2644.0681   -42310.429    129.84329    222.36902 
   33900    133.39801   -581.83979    143037.84   -39657.352    2683.6327   -42340.985    129.80689    225.69646 
   33950    131.78443   -776.30217    143022.22   -39648.788    2651.1716    -42299.96    130.37065    222.96644 
[...]
   92000    135.39033   -856.59137    143023.99   -39672.533    2723.7131   -42396.246    329.18145    229.06726 
   92050      131.727   -823.05601    142986.88   -39660.999    2650.0161   -42311.015    329.25051    222.86926 
   92100    131.57242   -763.70815    142938.67   -39671.847    2646.9064   -42318.754    329.53281    222.60774 
   92150    130.48111   -651.46728    142909.06    -39728.52     2624.952   -42353.472    329.64206    220.76134 
   92200    133.74862   -700.42108    142929.12   -39744.282     2690.686   -42434.968    329.64436    226.28965 
   92250    132.68281   -593.73086    142926.46   -39743.465    2669.2446   -42412.709    329.48352     224.4864 
   92300    131.98168   -806.64397     142950.2   -39751.223    2655.1397   -42406.363    329.23858    223.30016 
   92350    129.14685   -406.41117    142947.63   -39736.197      2598.11   -42334.307     329.1111     218.5039 
   92400    131.20927    -532.3225    143039.17   -39703.225    2639.6007   -42342.826     329.1011    221.99331 
   92450    132.07374   -709.63867    143023.12   -39700.777    2656.9918   -42357.769    329.41519    223.45593 
   92500     132.0468   -682.78926    142981.16   -39719.067    2656.4498   -42375.517    329.75866    223.41034 
   92550    131.84969   -647.54517    143004.06   -39680.463    2652.4844   -42332.947    329.88579    223.07685 
   92600    131.76921   -595.31585    142976.03    -39683.57    2650.8655   -42334.436    330.07903    222.94069 
   92650    130.83518   -666.45047    143003.96   -39688.858     2632.075   -42320.933    330.41448     221.3604 
   92700    130.69283   -448.99124    143097.79   -39714.842    2629.2113   -42344.053    330.13647    221.11955 
   92750    131.52326   -753.53803       143190   -39740.814    2645.9174   -42386.732    330.36732    222.52456 
   92800    131.11407   -880.60033    143200.94   -39733.093    2637.6856   -42370.779    330.74207    221.83225 
   92850    129.46394   -764.69461    143233.91   -39699.502    2604.4891   -42303.991    330.48518    219.04039 
   92900    132.53543   -722.50817    143146.98   -39688.508    2666.2797   -42354.787    330.21126    224.23705 
   92950    132.55889   -617.76461    143218.79   -39644.026    2666.7518   -42310.778    330.69224    224.27675 
   93000    132.08254   -843.85162    143272.62    -39643.45    2657.1688   -42300.619     330.9141    223.47082 
   93050    133.25516   -774.55631    143232.23   -39626.654    2680.7589   -42307.413    331.28155    225.45477 
   93100    132.86189   -714.90633    143207.55   -39580.319    2672.8474   -42253.167    331.19797     224.7894 
   93150    133.78532   -670.92099    143216.55   -39626.298    2691.4244   -42317.722    331.50586    226.35174 
   93200     132.0364    -748.4633     143180.2   -39628.887    2656.2405   -42285.128    331.79631    223.39274 
   93250    132.39709   -614.31688    143211.12   -39599.414    2663.4967   -42262.911    332.03254      224.003 
   93300    132.19902   -820.53493    143082.16    -39636.79    2659.5121   -42296.302    333.00217    223.66788 
   93350    132.15856   -650.79851    143044.78   -39590.633    2658.6981   -42249.332    333.14565    223.59943 
   93400     131.4542   -534.47501    143065.62   -39541.297    2644.5282   -42185.826    333.51099    222.40773 
   93450    134.44809   -536.55537    143122.43   -39545.673    2704.7577    -42250.43     333.9046    227.47309 
   93500    134.79177   -738.47351    143070.76   -39541.619    2711.6717   -42253.291    334.10623    228.05457 
   93550    133.27657    -562.1106     143102.7   -39544.067    2681.1896   -42225.257    334.60278    225.49099 
   93600    134.29356   -789.72991    143058.48   -39534.022     2701.649   -42235.671    334.98295    227.21164 
   93650    131.81056   -831.15258    142951.81   -39544.657    2651.6972   -42196.355    335.20263    223.01064 
   93700    136.55722   -868.06538    142880.75   -39548.049     2747.188   -42295.237     334.8815    231.04153 
   93750     135.0295   -725.42009    142942.75   -39537.846    2716.4541   -42254.301    335.05762    228.45677 
   93800     133.6403   -779.08864    142910.34   -39552.538    2688.5069   -42241.045    335.06257    226.10638 
   93850    136.22312    -664.3933       142887   -39574.165    2740.4669   -42314.632    335.31221    230.47627 
   93900    134.74582   -916.63476    142882.01   -39553.751    2710.7472   -42264.498    335.59062    227.97681 
   93950    133.71104   -692.62529    142830.85   -39505.206    2689.9301   -42195.137    335.55222    226.22607 
   94000    136.33054   -568.72847    142837.98   -39545.808    2742.6279   -42288.436    335.75492    230.65801 
   94050    133.07361   -522.07669    142829.57   -39565.547    2677.1067   -42242.653    335.74024    225.14761 
   94100    135.15078   -683.47236     142868.5   -39591.518    2718.8941   -42310.412    335.44329    228.66197 
   94150    134.39426    -620.4429    142845.35    -39587.64    2703.6747   -42291.315    335.88103    227.38201 
   94200     133.0188   -507.17352    142810.54    -39575.85    2676.0039   -42251.854    336.25562    225.05487 
   94250    133.19786   -632.86596    142909.43   -39598.866    2679.6062   -42278.472    336.14562    225.35782 
   94300     133.7633   -460.71659    142994.11   -39649.918    2690.9814     -42340.9    336.25261    226.31449 
   94350    130.09537   -621.96618    143039.69   -39688.877     2617.192   -42306.069     336.8172    220.10872 
   94400    134.71438   -654.61816    143107.31   -39684.101    2710.1148   -42394.215    336.81917    227.92363 
   94450    132.58323   -582.57332    143140.08   -39684.374    2667.2414   -42351.616    336.49357    224.31793 
   94500    132.64282   -658.58807    143130.87   -39718.122    2668.4402   -42386.562    336.64056    224.41875 
   94550    132.92044   -676.95696    143117.91   -39756.147    2674.0253   -42430.172    336.99878    224.88846 
   94600    130.95933   -587.18211    143125.31   -39762.013    2634.5725   -42396.586     337.4408    221.57044 
   94650    133.42046   -724.03017    143124.59   -39772.849    2684.0843   -42456.933    337.38161    225.73443 
   94700    128.89681   -592.52998    143201.17    -39779.41      2593.08    -42372.49    337.56711    218.08087 
   94750     133.8803   -849.98588    143308.32   -39776.414    2693.3353   -42469.749    337.65747    226.51245 
   94800    130.28978   -851.77077    143288.69   -39806.063     2621.103   -42427.166    337.45241    220.43764 
   94850    129.38508   -915.87171       143290   -39800.017    2602.9026   -42402.919    337.70651    218.90697 
   94900    133.26614   -838.47312    143186.76   -39746.105    2680.9798   -42427.085    337.69291    225.47334 
   94950    132.18514   -423.90475    143275.75   -39742.561    2659.2328   -42401.793    338.04765     223.6444 
   95000    130.36409   -564.31288    143322.24   -39769.866    2622.5979   -42392.464    338.04365    220.56336 
   95050    131.74084   -836.15929    143311.35    -39710.08    2650.2946   -42360.374     338.4659    222.89268 
   95100     130.7345   -784.98225    143211.75   -39672.823    2630.0496   -42302.873    338.57297    221.19006 
   95150    132.70885   -923.67329    143145.46   -39656.319    2669.7686   -42326.087    338.32121    224.53047 
   95200    133.70881   -641.14426    143173.83   -39651.616    2689.8853   -42341.502     338.6406    226.22231 
   95250     135.0303   -733.49465    143170.62   -39637.503    2716.4703   -42353.974    339.02376    228.45813 
   95300    132.71868   -832.05176    143112.99   -39667.778    2669.9663   -42337.744    339.48786     224.5471 
   95350    132.04165   -776.35758    143111.21    -39600.64    2656.3461   -42256.986    339.47169    223.40162 
   95400    133.80013   -610.04366    143175.83   -39595.093    2691.7224   -42286.816    339.73536    226.37681 
   95450    135.69178   -744.00711    143166.43   -39608.402    2729.7776    -42338.18    340.12156    229.57729 
   95500    135.40436   -723.24489    143137.89   -39595.075    2723.9954   -42319.071    340.34499      229.091 
   95550    133.59284   -771.09304    143100.41   -39574.798    2687.5522    -42262.35    340.27096    226.02609 
   95600    133.62423   -770.72674     143046.6   -39588.952    2688.1837   -42277.136     340.5049     226.0792 
   95650    135.98466   -809.37792    142956.64   -39594.404    2735.6696   -42330.074    340.40828    230.07281 
   95700    132.25178   -653.99687    142949.68   -39561.038    2660.5734   -42221.611    340.41185    223.75714 
   95750    131.07282   -865.74542     142898.4   -39600.296    2636.8557   -42237.152    341.14712    221.76246 
   95800    129.95738    -866.7393    142837.43   -39628.385     2614.416   -42242.801      341.676    219.87525 
   95850    133.00183   -694.75144    142776.77   -39663.719    2675.6627   -42339.382    341.59499    225.02617 
   95900    133.44233   -637.06591    142773.45   -39677.891    2684.5243   -42362.416     342.3696    225.77144 
   95950    133.15206   -599.86483    142792.95    -39630.79    2678.6849   -42309.475    342.25801    225.28034 
   96000    134.00656   -624.86399    142773.58   -39628.181    2695.8752   -42324.056    342.79455    226.72606 
   96050    132.98934   -609.31073    142865.52   -39600.838    2675.4113    -42276.25    343.53111    225.00502 
   96100    135.04757   -772.76572    142860.17   -39578.406    2716.8177   -42295.224    343.92847    228.48735 
   96150    131.83176   -543.64328    142867.92   -39596.426    2652.1238    -42248.55    344.00546    223.04652 
   96200    133.53654    -536.8338    142945.57   -39638.778    2686.4196   -42325.198    344.51868    225.93083 
   96250      133.442   -568.09126    143103.06   -39643.285    2684.5177   -42327.803     344.5693    225.77088 
   96300    132.65133   -622.21325    143245.62   -39649.745    2668.6114   -42318.357    344.82608    224.43315 
   96350    133.78793   -638.63783    143310.88   -39652.747    2691.4769   -42344.224    344.98934    226.35616 
   96400    133.01501   -749.45237    143304.16    -39633.66    2675.9278   -42309.587    345.23687    225.04846 
   96450    134.90174   -737.77115    143270.33   -39630.418    2713.8841   -42344.302    345.77122    228.24063 
   96500    132.90249   -951.00894    143203.68   -39659.575     2673.664   -42333.239    345.68198    224.85808 
   96550    132.39135   -650.29983    143195.71   -39684.207    2663.3812   -42347.588    345.66968    223.99328 
   96600    131.58138   -852.84151    143139.66   -39649.327    2647.0868   -42296.414    345.55923     222.6229 
   96650    132.67696   -773.39323    143076.75   -39663.108    2669.1271   -42332.235    345.64041    224.47651 
   96700    132.53698   -944.53551    143019.65     -39588.8     2666.311   -42255.111    346.09755    224.23968 
   96750    131.99864    -725.1619       142982   -39637.852    2655.4809   -42293.333    346.16149    223.32886 
   96800    133.91413   -636.24674    142970.58   -39658.924    2694.0158    -42352.94    346.30163    226.56968 
   96850    134.32718      -504.77    142998.73   -39619.041    2702.3252   -42321.366    346.57139    227.26852 
   96900    131.01994   -716.72052     143014.9   -39661.514    2635.7919   -42297.306    347.34838    221.67299 
   96950    132.87185   -678.20197    142981.39   -39626.831    2673.0478   -42299.879     347.0625    224.80625 
   97000    129.69626   -665.33692    142942.34    -39696.73    2609.1628   -42305.893    347.27992    219.43346 
   97050     129.9685   -431.92582    142927.71   -39662.084    2614.6396   -42276.724    347.50308    219.89406 
   97100    129.70738   -761.73397    142951.38   -39655.523    2609.3866    -42264.91    347.36345    219.45228 
   97150    130.83605   -466.64911    143007.79   -39669.669    2632.0925   -42301.761    347.57566    221.36187 
   97200    130.71263   -601.48394     143104.8   -39666.552    2629.6096   -42296.161    348.02935    221.15306 
   97250    130.82994   -729.44536    143147.48   -39670.814    2631.9696   -42302.783    348.48594    221.35153 
   97300      132.603   -687.29363    143088.44   -39619.538    2667.6391   -42287.178    348.64461    224.35138 
   97350    131.58074    -763.3417    143035.59   -39619.434    2647.0739   -42266.508    348.40149    222.62182 
   97400    134.06377   -596.16729     143013.5   -39539.523    2697.0261   -42236.549    348.06448    226.82286 
   97450    135.41946   -552.33231    143092.28    -39527.29    2724.2993   -42251.589      348.126    229.11656 
   97500    133.76315   -704.00223    143176.09   -39575.162    2690.9784    -42266.14    348.26331    226.31424 
   97550    130.08749    -867.1695    143097.29   -39617.467    2617.0333     -42234.5    348.40947    220.09537 
   97600     135.7525   -851.93174    143072.99   -39585.603    2730.9991   -42316.602    348.54603    229.68002 
   97650     133.5409   -836.20158    143059.44   -39576.616    2686.5073   -42263.123    348.48633    225.93821 
   97700    132.43239   -770.87817    143003.38   -39613.313    2664.2069    -42277.52    349.00187    224.06272 
   97750     132.1286   -682.29809    142920.77   -39668.746    2658.0953   -42326.841    348.20743    223.54873 
   97800    135.77134   -665.88763    142906.55   -39569.588    2731.3782   -42300.966     348.0475     229.7119 
   97850    134.52418    -883.3288    142853.88   -39619.587    2706.2884   -42325.875    348.42844    227.60182 
   97900    134.29126   -741.84247    142829.58   -39630.291    2701.6027   -42331.894    348.79112    227.20775 
   97950    133.44202   -747.88845       142855    -39619.02     2684.518   -42303.538    349.04238    225.77091 
   98000    132.98307   -594.83162    142824.56   -39625.741    2675.2852   -42301.026    349.04392    224.99442 
   98050     131.3825   -750.99249    142827.82   -39654.234    2643.0857   -42297.319    349.25816    222.28641 
   98100    133.43661    -863.8729    142812.34   -39652.431    2684.4093   -42336.841    349.54434    225.76177 
   98150    133.06662   -777.92136    142877.24   -39670.582    2676.9659   -42347.547     350.4569    225.13577 
   98200    129.07059   -870.11289    142806.42   -39716.521     2596.576   -42313.097    350.72925    218.37489 
   98250    134.37402   -549.26262    142796.64   -39665.156    2703.2675   -42368.423    350.63623    227.34776 
   98300    133.36356    -698.8034     142867.4   -39645.117    2682.9398   -42328.057    350.69682    225.63818 
   98350    132.49518    -647.0097    142864.02   -39674.739      2665.47   -42340.209    350.81338    224.16895 
   98400    134.70676   -697.96265    142901.13   -39659.971    2709.9615   -42369.933    350.77624    227.91074 
   98450    132.35053   -712.70175    142912.09   -39682.889      2662.56   -42345.449    350.99654    223.92422 
   98500    130.35535    -721.9901     142965.5   -39724.836    2622.4221   -42347.258    351.44766    220.54858 
   98550     132.4719   -569.09825    142979.51   -39677.379    2665.0018   -42342.381    351.48092    224.12958 
   98600    134.91026   -693.58992    143029.74    -39627.89    2714.0555   -42341.946    351.61367    228.25504 
   98650    134.08687    -567.8001    143087.92   -39615.657     2697.491   -42313.148    351.41977    226.86195 
   98700    133.92132   -618.44028    143223.36   -39556.719    2694.1604   -42250.879    351.54632    226.58185 
   98750    134.06546   -759.55488    143229.25   -39548.578    2697.0601   -42245.638    351.35301    226.82572 
   98800    134.04123   -737.89833     143226.7   -39609.884    2696.5727   -42306.457    351.72997    226.78473 
   98850     134.8367   -706.45462    143186.88   -39632.113    2712.5756   -42344.689    351.80877    228.13058 
   98900    133.89859   -711.38648    143174.47   -39598.882    2693.7031   -42292.585    351.79293    226.54338 
   98950    133.41525   -699.80779    143199.44   -39604.759    2683.9796   -42288.739    351.54816    225.72563 
   99000    132.01492    -598.1356    143315.56   -39651.079    2655.8085   -42306.888    351.65076    223.35641 
   99050    134.28825   -739.66122    143305.16   -39639.661    2701.5421   -42341.203     352.0734    227.20265 
   99100     133.3907   -731.81441    143329.71   -39654.813    2683.4858   -42338.299    352.39691     225.6841 
   99150    132.93042   -702.68389    143346.85   -39620.725    2674.2259   -42294.951    352.47801    224.90533 
   99200    132.25695   -739.33127    143314.67   -39609.021    2660.6775   -42269.698    352.64547    223.76589 
   99250    134.77984   -712.14019    143317.07   -39585.112    2711.4316   -42296.544    352.72998    228.03438 
   99300    134.37758   -720.42325    143340.52   -39606.457    2703.3393   -42309.796    352.29656     227.3538 
   99350    131.47884   -441.90596    143377.28   -39666.001    2645.0239   -42311.025    352.58737    222.44941 
   99400    132.94973   -782.12285    143376.42   -39675.214    2674.6145   -42349.829    352.85041    224.93802 
   99450    134.53774   -644.23832    143353.33   -39676.787    2706.5612   -42383.348    352.82709    227.62477 
   99500     132.6744   -622.56206    143389.33   -39657.658    2669.0754   -42326.733    353.07584    224.47217 
   99550    131.07404    -787.6382    143403.79   -39726.272    2636.8804   -42363.152    353.17628    221.76453 
   99600    133.88421   -595.75682    143391.37   -39632.399    2693.4139   -42325.813    353.70887    226.51906 
   99650    134.00045   -674.18001    143404.11   -39662.383    2695.7524   -42358.135    353.82096    226.71573 
   99700    132.36986   -684.26511    143438.88   -39670.912    2662.9489   -42333.861    354.27084    223.95692 
   99750    134.29276   -643.47341    143480.91   -39663.961    2701.6329   -42365.594    354.51637    227.21029 
   99800    132.61989   -692.47308    143427.06   -39679.814     2667.979   -42347.793    354.46491    224.37996 
   99850    133.34269   -705.98126    143433.56    -39668.27    2682.5198    -42350.79    354.77842    225.60286 
   99900    133.75039   -606.06914    143480.48   -39669.586    2690.7217   -42360.307    355.18613    226.29265 
   99950    132.66278   -704.36862    143472.14   -39737.317    2668.8418   -42406.159    355.66996    224.45253 
  100000     130.0193   -741.40338    143501.22   -39755.814    2615.6616   -42371.476    355.72899    219.98001 
Loop time of 224.751 on 60 procs for 100000 steps with 6750 atoms

Performance: 192.213 ns/day, 0.125 hours/ns, 444.936 timesteps/s
99.3% CPU use with 60 MPI tasks x no OpenMP threads

MPI task timing breakdown:
Section |  min time  |  avg time  |  max time  |%varavg| %total
---------------------------------------------------------------
Pair    | 36.176     | 93.87      | 167.55     | 503.4 | 41.77
Neigh   | 1.3425     | 2.7336     | 7.6325     | 133.1 |  1.22
Comm    | 36.063     | 88.122     | 107.85     | 249.5 | 39.21
Output  | 0.21524    | 0.21945    | 0.23493    |   0.5 |  0.10
Modify  | 10.372     | 38.333     | 78.016     | 513.8 | 17.06
Other   |            | 1.473      |            |       |  0.66

Nlocal:    112.5 ave 256 max 73 min
Histogram: 48 0 0 0 0 0 0 0 5 7
Nghost:    1028.4 ave 1333 max 699 min
Histogram: 24 0 0 0 0 0 0 13 11 12
Neighs:    0 ave 0 max 0 min
Histogram: 60 0 0 0 0 0 0 0 0 0
FullNghs:  13380.6 ave 46555 max 4594 min
Histogram: 48 0 0 0 0 0 0 0 1 11

Total # of neighbors = 802836
Ave neighs/atom = 118.939
Neighbor list builds = 6135
Dangerous builds = 0

write_data		${DIR}/data.eq-${NAME}-${TEMP}
write_data		run_2/data.eq-${NAME}-${TEMP}
write_data		run_2/data.eq-het_freeze_2-${TEMP}
write_data		run_2/data.eq-het_freeze_2-225
undump          1

reset_timestep  0

unfix           2
unfix           3
unfix           4


################################################
#######         Run Simulation         #########
################################################

log				${DIR}/log.run_${NAME}
log				run_2/log.run_${NAME}
log				run_2/log.run_het_freeze_2
