LAMMPS data file via write_data, version 16 Mar 2018, timestep = 100000

4990 atoms
2 atom types

0.0000000000000000e+00 4.9219999999999999e+01 xlo xhi
0.0000000000000000e+00 4.9019635930410494e+01 ylo yhi
2.0661981499112905e+00 3.7933801850090305e+01 zlo zhi

Masses

1 18.015
2 12.01

Atoms # atomic

1238 1 1.8981045813275848e+00 1.4292695834974471e+00 4.1529802540890239e+00 1 0 1
2725 1 7.2498527546515206e+00 9.9794193591832929e+00 7.9969829369035512e+00 0 1 0
1852 1 6.3859941843830832e+00 7.1665593729163735e-01 4.1935601627403472e+00 1 0 0
3351 1 5.9841200184422121e+00 5.2294144024079010e+00 2.7414192535623716e+00 1 0 1
4310 1 9.1825090967714793e+00 2.3811301241179095e+00 1.0281652602810521e+01 -1 0 0
4236 1 1.0495251280708297e+01 1.6190452986868842e+00 5.2199377390182535e+00 1 1 0
2197 1 8.0662071743439885e+00 3.8351522107509051e+00 6.8824789746814687e+00 1 0 1
538 1 6.7277988934644062e-01 4.2742000008974816e+00 3.0869558840399343e+00 1 0 0
1353 1 4.6023426160355960e+00 8.3052537309650862e+00 4.7030709448038488e+00 2 0 0
1383 1 3.8410680044534771e+00 4.1696787741140984e+00 9.1157014863415711e+00 1 0 1
4614 1 8.1748580969780065e+00 5.0064066786958650e+00 4.5623926276256848e+00 0 1 1
4272 1 9.1117835693890310e+00 8.0514361519992406e+00 3.4975150805581139e+00 1 1 0
1322 1 5.5874300671564496e+00 5.8194097711892221e+00 7.1374946486930018e+00 1 -1 1
1803 1 1.0373753052075125e+01 3.8056862745856876e+00 3.3455500713802424e+00 0 0 0
2193 1 1.2194166844969724e+01 5.7002633319856455e-01 8.1074625154927453e+00 0 0 1
4267 1 7.2362545065371515e+00 7.8482750374928880e+00 5.9290480382685704e+00 1 1 0
2547 1 9.4440334504787184e+00 1.0650600101142221e+01 3.9853584881815909e+00 1 0 0
539 1 1.0901163390047538e+01 7.1480117521690101e+00 5.3841279405208748e+00 0 0 1
2674 1 3.8798536560721714e-01 7.2265638545422801e+00 2.3418718572410557e+00 1 1 0
2549 1 1.1111736723084127e+00 4.8986292525994948e+00 9.3370768305002905e+00 0 0 1
12 1 3.1710420409520473e-01 1.8977702874264557e+00 8.4111690229943257e+00 1 1 1
129 1 3.1470691423129087e+00 4.6161876714252799e+00 5.9251554770465749e+00 0 1 1
4632 1 1.1852747290821557e+00 1.1466584317397167e+01 6.9580621553112030e+00 0 0 0
2103 1 5.5227924300136140e+00 2.6791848123486877e+00 6.1813443878293191e+00 0 0 2
126 1 1.0574229845690715e+01 2.9014551875970942e+00 7.9618312621841731e+00 0 2 1
4595 1 3.4539089344454585e+00 1.1473007927490388e+01 1.0348334186356334e+01 0 0 1
3352 1 3.7824640435934267e+00 7.8668835547406717e+00 7.6032448439816891e+00 1 2 1
1248 1 3.1351060040769942e+00 6.0620160981764277e+00 3.5271850200043717e+00 1 0 1
2557 1 7.0840439405805240e+00 4.6106306338971166e+00 9.8286009589843353e+00 0 0 0
3360 1 4.1818310822130105e+00 6.9121389702833440e+00 1.0207345857074824e+01 0 0 1
1824 1 9.9196406179962224e+00 6.8524017772480486e+00 1.0671353405859383e+01 1 1 0
3010 1 1.1224586531127981e+01 7.2319337770002301e+00 8.2521126687934796e+00 0 0 1
1747 1 5.6280738243195270e+00 1.0268344736772203e+01 2.7031110178123572e+00 1 0 0
362 1 4.5322410515990402e-01 4.5654850551077306e+00 6.5212301486074802e+00 1 0 1
4689 1 1.1813364547754210e+00 7.1988135882392550e+00 7.0919754738532399e+00 1 1 0
2162 1 7.8697748036887178e+00 7.6160789932636552e-01 7.3280907010246512e+00 0 2 0
3800 1 1.1291463503772954e+01 1.1732952545206359e+01 1.0098858955416802e+01 -1 0 1
3400 1 2.4550369533562377e+00 1.0134312603359252e+01 4.9009681774427003e+00 0 0 0
4276 1 7.1269576285229901e+00 7.5845176131317231e+00 9.9078861042840334e+00 0 0 0
123 1 9.8705482183220123e+00 9.8777327640969048e+00 6.7295014763184380e+00 0 1 0
493 1 4.2962228533108870e+00 1.0583571488964454e+01 7.8605072149784929e+00 1 0 1
4567 1 5.9282694618112863e+00 2.4567174293324139e+00 2.2931233502126132e+00 1 0 0
3460 1 2.0528785913841041e-01 8.4476414317925403e+00 4.7824705253721085e+00 1 0 0
3761 1 1.2038253901380761e+01 4.6201430005023214e+00 5.2683723446785660e+00 0 0 0
1835 1 4.1091446243897520e+00 1.4031769055657415e+00 8.4233847668378541e+00 0 0 0
1339 1 3.8655645251805311e+00 1.5277436804737163e+00 1.4396811757972845e+01 1 1 0
442 1 3.0972635837841209e+00 1.4012601599424834e+00 1.1233288967642876e+01 1 0 1
3716 1 5.5888499917073844e+00 2.9675241555776024e+00 1.1735985924517683e+01 1 0 0
370 1 1.4649809666306453e+00 7.3396737471857341e+00 1.1534735770533379e+01 1 0 1
1814 1 6.7386794850224421e+00 2.7078093387802880e+00 1.4650575709788002e+01 0 2 0
286 2 1.1074500000000002e+01 9.2355835810918343e+00 1.6995007727514317e+01 0 0 0
285 2 9.8440000000000012e+00 8.5251540748539956e+00 1.6995007727514317e+01 0 0 0
262 2 8.6134999999999984e+00 9.2355835810918343e+00 1.6995007727514317e+01 0 0 0
521 1 8.7432993866421356e+00 1.0872496878590553e+01 1.2407400468070575e+01 0 0 0
3402 1 4.4666118977091136e+00 4.7657621010691091e+00 1.4041569024206254e+01 1 0 0
1271 1 1.7075227317064727e+00 4.1175030016405039e+00 1.4198862190061226e+01 1 0 1
112 1 5.9805699530648559e-01 1.0224035054748498e+01 1.4257995101502527e+01 0 1 0
1751 1 5.3486728977765372e+00 7.2195481945186781e+00 1.4765171961533069e+01 0 0 1
3443 1 9.1702032425021311e+00 4.3327678307976312e+00 1.3969418526674763e+01 0 0 0
2590 1 1.0518130364696788e+01 4.5162500717462457e+00 1.1463584905310137e+01 1 0 1
374 1 1.0044467482582407e+01 1.2116436943835534e+01 1.4538786620144355e+01 0 0 1
284 2 9.8440000000000012e+00 1.1366872099805333e+01 1.6995007727514317e+01 0 0 0
283 2 8.6134999999999984e+00 1.0656442593567498e+01 1.6995007727514317e+01 0 0 0
419 1 1.1769367356470291e+00 7.3172530563377070e+00 1.4271432279163822e+01 1 1 1
940 1 5.9875766489904247e+00 1.1201318385654080e+01 1.4006553369443745e+01 1 1 0
4218 1 3.6295688647764215e+00 9.4713903281369412e+00 1.4678089883253678e+01 1 -1 0
363 1 8.2724580312804150e+00 7.0432380746471583e+00 1.4594248723167256e+01 0 0 0
2201 1 6.8501860741344425e+00 8.7107468292307786e+00 1.2487941500467072e+01 1 1 1
510 1 1.1733665893767894e+01 2.7445796742218391e+00 1.4313077884251431e+01 2 1 1
475 1 1.0666767034844050e+01 9.0841093425248101e+00 1.4621726068973100e+01 0 0 1
1390 1 4.0574658251045994e+00 9.1938371618973864e+00 1.1834764358503271e+01 1 0 1
193 2 0.0000000000000000e+00 2.8417180249513345e+00 1.6995007727514317e+01 0 0 0
194 2 0.0000000000000000e+00 0.0000000000000000e+00 1.6995007727514317e+01 0 0 0
195 2 1.2305000000000001e+00 7.1042950623783474e-01 1.6995007727514317e+01 0 0 0
199 2 1.2305000000000001e+00 2.1312885187134998e+00 1.6995007727514317e+01 0 0 0
200 2 2.4610000000000003e+00 2.8417180249513345e+00 1.6995007727514317e+01 0 0 0
201 2 2.4610000000000003e+00 0.0000000000000000e+00 1.6995007727514317e+01 0 0 0
202 2 3.6915000000000004e+00 7.1042950623783474e-01 1.6995007727514317e+01 0 0 0
210 2 3.6914999999999996e+00 2.1312885187134998e+00 1.6995007727514317e+01 0 0 0
211 2 4.9220000000000006e+00 2.8417180249513332e+00 1.6995007727514317e+01 0 0 0
212 2 4.9220000000000006e+00 0.0000000000000000e+00 1.6995007727514317e+01 0 0 0
213 2 6.1524999999999999e+00 7.1042950623783407e-01 1.6995007727514317e+01 0 0 0
225 2 6.1524999999999999e+00 2.1312885187134989e+00 1.6995007727514317e+01 0 0 0
226 2 7.3829999999999991e+00 2.8417180249513345e+00 1.6995007727514317e+01 0 0 0
227 2 7.3829999999999991e+00 0.0000000000000000e+00 1.6995007727514317e+01 0 0 0
228 2 8.6134999999999984e+00 7.1042950623783407e-01 1.6995007727514317e+01 0 0 0
244 2 8.6134999999999984e+00 2.1312885187135002e+00 1.6995007727514317e+01 0 0 0
245 2 9.8440000000000012e+00 2.8417180249513332e+00 1.6995007727514317e+01 0 0 0
246 2 9.8440000000000012e+00 0.0000000000000000e+00 1.6995007727514317e+01 0 0 0
247 2 1.1074500000000002e+01 7.1042950623783330e-01 1.6995007727514317e+01 0 0 0
267 2 1.1074500000000002e+01 2.1312885187135002e+00 1.6995007727514317e+01 0 0 0
197 2 0.0000000000000000e+00 4.2625770374269996e+00 1.6995007727514317e+01 0 0 0
198 2 1.2305000000000001e+00 4.9730065436648339e+00 1.6995007727514317e+01 0 0 0
206 2 1.2305000000000001e+00 6.3938655561404980e+00 1.6995007727514317e+01 0 0 0
208 2 2.4610000000000003e+00 4.2625770374269996e+00 1.6995007727514317e+01 0 0 0
209 2 3.6914999999999996e+00 4.9730065436648339e+00 1.6995007727514317e+01 0 0 0
221 2 3.6914999999999996e+00 6.3938655561404980e+00 1.6995007727514317e+01 0 0 0
196 2 0.0000000000000000e+00 7.1042950623783341e+00 1.6995007727514317e+01 0 0 0
207 2 2.4610000000000003e+00 7.1042950623783341e+00 1.6995007727514317e+01 0 0 0
223 2 4.9220000000000006e+00 4.2625770374269978e+00 1.6995007727514317e+01 0 0 0
224 2 6.1524999999999999e+00 4.9730065436648339e+00 1.6995007727514317e+01 0 0 0
240 2 6.1524999999999999e+00 6.3938655561404980e+00 1.6995007727514317e+01 0 0 0
242 2 7.3829999999999991e+00 4.2625770374269996e+00 1.6995007727514317e+01 0 0 0
222 2 4.9220000000000006e+00 7.1042950623783341e+00 1.6995007727514317e+01 0 0 0
241 2 7.3830000000000009e+00 7.1042950623783341e+00 1.6995007727514317e+01 0 0 0
243 2 8.6135000000000002e+00 4.9730065436648339e+00 1.6995007727514317e+01 0 0 0
263 2 8.6135000000000002e+00 6.3938655561404980e+00 1.6995007727514317e+01 0 0 0
265 2 9.8440000000000012e+00 4.2625770374270004e+00 1.6995007727514317e+01 0 0 0
266 2 1.1074500000000002e+01 4.9730065436648339e+00 1.6995007727514317e+01 0 0 0
287 2 1.1074500000000002e+01 6.3938655561404980e+00 1.6995007727514317e+01 0 0 0
264 2 9.8440000000000012e+00 7.1042950623783341e+00 1.6995007727514317e+01 0 0 0
204 2 0.0000000000000000e+00 8.5251540748539991e+00 1.6995007727514317e+01 0 0 0
205 2 1.2305000000000001e+00 9.2355835810918343e+00 1.6995007727514317e+01 0 0 0
219 2 2.4610000000000003e+00 8.5251540748539991e+00 1.6995007727514317e+01 0 0 0
220 2 3.6915000000000004e+00 9.2355835810918343e+00 1.6995007727514317e+01 0 0 0
203 2 0.0000000000000000e+00 1.1366872099805333e+01 1.6995007727514317e+01 0 0 0
217 2 1.2305000000000001e+00 1.0656442593567498e+01 1.6995007727514317e+01 0 0 0
218 2 2.4610000000000003e+00 1.1366872099805333e+01 1.6995007727514317e+01 0 0 0
236 2 3.6914999999999996e+00 1.0656442593567499e+01 1.6995007727514317e+01 0 0 0
261 2 7.3830000000000009e+00 8.5251540748539991e+00 1.6995007727514317e+01 0 0 0
238 2 4.9220000000000006e+00 8.5251540748539991e+00 1.6995007727514317e+01 0 0 0
237 2 4.9220000000000006e+00 1.1366872099805333e+01 1.6995007727514317e+01 0 0 0
260 2 7.3829999999999991e+00 1.1366872099805333e+01 1.6995007727514317e+01 0 0 0
239 2 6.1524999999999999e+00 9.2355835810918343e+00 1.6995007727514317e+01 0 0 0
259 2 6.1524999999999999e+00 1.0656442593567499e+01 1.6995007727514317e+01 0 0 0
308 2 1.2304999999999998e+01 1.1366872099805333e+01 1.6995007727514317e+01 0 0 0
307 2 1.1074500000000002e+01 1.0656442593567498e+01 1.6995007727514317e+01 0 0 0
2129 1 1.1047726689013141e+01 9.0689236762737409e+00 1.2068936062788744e+01 0 0 0
4359 1 6.6779671320848104e+00 5.9818131205973613e-01 1.1370876841412510e+01 1 0 0
957 1 7.7142334500628629e-01 1.0196251656361554e+01 1.1206767173557171e+01 -1 0 0
2991 1 8.1802225228373449e-01 1.2246880862947289e+00 1.4257129398040481e+01 1 1 1
4548 1 1.0036056126204356e+01 2.5781713372415066e-01 1.4318591340815269e+01 1 0 1
2128 1 3.8645556154950267e-01 1.8246483106939808e+00 1.1247985893448801e+01 2 1 1
1215 1 9.8564244516230310e+00 7.8586815973189061e-02 1.1542249523898738e+01 1 1 0
549 2 0.0000000000000000e+00 1.4208590124756650e+00 2.0028033331461007e+01 0 0 0
550 2 0.0000000000000000e+00 0.0000000000000000e+00 2.0028033331461007e+01 0 0 0
554 2 1.2305000000000001e+00 2.1312885187134998e+00 2.0028033331461007e+01 0 0 0
555 2 2.4610000000000003e+00 1.4208590124756650e+00 2.0028033331461007e+01 0 0 0
556 2 2.4610000000000003e+00 0.0000000000000000e+00 2.0028033331461007e+01 0 0 0
564 2 3.6914999999999996e+00 2.1312885187134998e+00 2.0028033331461007e+01 0 0 0
710 2 0.0000000000000000e+00 2.8417180249513345e+00 2.3061058935408607e+01 0 0 0
711 2 0.0000000000000000e+00 0.0000000000000000e+00 2.3061058935408607e+01 0 0 0
712 2 1.2305000000000001e+00 7.1042950623783474e-01 2.3061058935408607e+01 0 0 0
716 2 1.2305000000000001e+00 2.1312885187134998e+00 2.3061058935408607e+01 0 0 0
717 2 2.4610000000000003e+00 2.8417180249513345e+00 2.3061058935408607e+01 0 0 0
718 2 2.4610000000000003e+00 0.0000000000000000e+00 2.3061058935408607e+01 0 0 0
719 2 3.6915000000000004e+00 7.1042950623783474e-01 2.3061058935408607e+01 0 0 0
727 2 3.6914999999999996e+00 2.1312885187134998e+00 2.3061058935408607e+01 0 0 0
553 2 1.2305000000000001e+00 3.5521475311891644e+00 2.0028033331461007e+01 0 0 0
563 2 3.6914999999999996e+00 3.5521475311891644e+00 2.0028033331461007e+01 0 0 0
565 2 4.9220000000000006e+00 1.4208590124756650e+00 2.0028033331461007e+01 0 0 0
566 2 4.9220000000000006e+00 0.0000000000000000e+00 2.0028033331461007e+01 0 0 0
578 2 6.1524999999999999e+00 2.1312885187134989e+00 2.0028033331461007e+01 0 0 0
579 2 7.3829999999999991e+00 1.4208590124756659e+00 2.0028033331461007e+01 0 0 0
580 2 7.3829999999999991e+00 0.0000000000000000e+00 2.0028033331461007e+01 0 0 0
728 2 4.9220000000000006e+00 2.8417180249513332e+00 2.3061058935408607e+01 0 0 0
729 2 4.9220000000000006e+00 0.0000000000000000e+00 2.3061058935408607e+01 0 0 0
730 2 6.1524999999999999e+00 7.1042950623783407e-01 2.3061058935408607e+01 0 0 0
742 2 6.1524999999999999e+00 2.1312885187134989e+00 2.3061058935408607e+01 0 0 0
743 2 7.3829999999999991e+00 2.8417180249513345e+00 2.3061058935408607e+01 0 0 0
744 2 7.3829999999999991e+00 0.0000000000000000e+00 2.3061058935408607e+01 0 0 0
577 2 6.1524999999999999e+00 3.5521475311891644e+00 2.0028033331461007e+01 0 0 0
596 2 8.6134999999999984e+00 2.1312885187135002e+00 2.0028033331461007e+01 0 0 0
597 2 9.8440000000000012e+00 1.4208590124756659e+00 2.0028033331461007e+01 0 0 0
598 2 9.8440000000000012e+00 0.0000000000000000e+00 2.0028033331461007e+01 0 0 0
618 2 1.1074500000000002e+01 2.1312885187135002e+00 2.0028033331461007e+01 0 0 0
745 2 8.6134999999999984e+00 7.1042950623783407e-01 2.3061058935408607e+01 0 0 0
761 2 8.6134999999999984e+00 2.1312885187135002e+00 2.3061058935408607e+01 0 0 0
762 2 9.8440000000000012e+00 2.8417180249513332e+00 2.3061058935408607e+01 0 0 0
763 2 9.8440000000000012e+00 0.0000000000000000e+00 2.3061058935408607e+01 0 0 0
764 2 1.1074500000000002e+01 7.1042950623783330e-01 2.3061058935408607e+01 0 0 0
784 2 1.1074500000000002e+01 2.1312885187135002e+00 2.3061058935408607e+01 0 0 0
595 2 8.6134999999999984e+00 3.5521475311891657e+00 2.0028033331461007e+01 0 0 0
617 2 1.1074500000000002e+01 3.5521475311891644e+00 2.0028033331461007e+01 0 0 0
551 2 0.0000000000000000e+00 5.6834360499026637e+00 2.0028033331461007e+01 0 0 0
552 2 0.0000000000000000e+00 4.2625770374269996e+00 2.0028033331461007e+01 0 0 0
560 2 1.2305000000000001e+00 6.3938655561404980e+00 2.0028033331461007e+01 0 0 0
561 2 2.4610000000000003e+00 5.6834360499026637e+00 2.0028033331461007e+01 0 0 0
562 2 2.4610000000000003e+00 4.2625770374269996e+00 2.0028033331461007e+01 0 0 0
574 2 3.6914999999999996e+00 6.3938655561404980e+00 2.0028033331461007e+01 0 0 0
714 2 0.0000000000000000e+00 4.2625770374269996e+00 2.3061058935408607e+01 0 0 0
715 2 1.2305000000000001e+00 4.9730065436648339e+00 2.3061058935408607e+01 0 0 0
723 2 1.2305000000000001e+00 6.3938655561404980e+00 2.3061058935408607e+01 0 0 0
725 2 2.4610000000000003e+00 4.2625770374269996e+00 2.3061058935408607e+01 0 0 0
726 2 3.6914999999999996e+00 4.9730065436648339e+00 2.3061058935408607e+01 0 0 0
738 2 3.6914999999999996e+00 6.3938655561404980e+00 2.3061058935408607e+01 0 0 0
559 2 1.2305000000000001e+00 7.8147245686161639e+00 2.0028033331461007e+01 0 0 0
573 2 3.6914999999999996e+00 7.8147245686161639e+00 2.0028033331461007e+01 0 0 0
713 2 0.0000000000000000e+00 7.1042950623783341e+00 2.3061058935408607e+01 0 0 0
724 2 2.4610000000000003e+00 7.1042950623783341e+00 2.3061058935408607e+01 0 0 0
575 2 4.9220000000000006e+00 5.6834360499026637e+00 2.0028033331461007e+01 0 0 0
576 2 4.9220000000000006e+00 4.2625770374269978e+00 2.0028033331461007e+01 0 0 0
592 2 6.1524999999999999e+00 6.3938655561404980e+00 2.0028033331461007e+01 0 0 0
593 2 7.3829999999999991e+00 5.6834360499026637e+00 2.0028033331461007e+01 0 0 0
594 2 7.3829999999999991e+00 4.2625770374269996e+00 2.0028033331461007e+01 0 0 0
740 2 4.9220000000000006e+00 4.2625770374269978e+00 2.3061058935408607e+01 0 0 0
741 2 6.1524999999999999e+00 4.9730065436648339e+00 2.3061058935408607e+01 0 0 0
757 2 6.1524999999999999e+00 6.3938655561404980e+00 2.3061058935408607e+01 0 0 0
759 2 7.3829999999999991e+00 4.2625770374269996e+00 2.3061058935408607e+01 0 0 0
591 2 6.1524999999999999e+00 7.8147245686161639e+00 2.0028033331461007e+01 0 0 0
739 2 4.9220000000000006e+00 7.1042950623783341e+00 2.3061058935408607e+01 0 0 0
758 2 7.3830000000000009e+00 7.1042950623783341e+00 2.3061058935408607e+01 0 0 0
614 2 8.6135000000000002e+00 6.3938655561404980e+00 2.0028033331461007e+01 0 0 0
615 2 9.8440000000000012e+00 5.6834360499026637e+00 2.0028033331461007e+01 0 0 0
616 2 9.8440000000000012e+00 4.2625770374270004e+00 2.0028033331461007e+01 0 0 0
637 2 1.1074500000000002e+01 6.3938655561404980e+00 2.0028033331461007e+01 0 0 0
760 2 8.6135000000000002e+00 4.9730065436648339e+00 2.3061058935408607e+01 0 0 0
780 2 8.6135000000000002e+00 6.3938655561404980e+00 2.3061058935408607e+01 0 0 0
782 2 9.8440000000000012e+00 4.2625770374270004e+00 2.3061058935408607e+01 0 0 0
783 2 1.1074500000000002e+01 4.9730065436648339e+00 2.3061058935408607e+01 0 0 0
804 2 1.1074500000000002e+01 6.3938655561404980e+00 2.3061058935408607e+01 0 0 0
613 2 8.6135000000000002e+00 7.8147245686161639e+00 2.0028033331461007e+01 0 0 0
636 2 1.1074500000000002e+01 7.8147245686161639e+00 2.0028033331461007e+01 0 0 0
781 2 9.8440000000000012e+00 7.1042950623783341e+00 2.3061058935408607e+01 0 0 0
557 2 0.0000000000000000e+00 9.9460130873296642e+00 2.0028033331461007e+01 0 0 0
558 2 0.0000000000000000e+00 8.5251540748539991e+00 2.0028033331461007e+01 0 0 0
571 2 2.4610000000000003e+00 9.9460130873296642e+00 2.0028033331461007e+01 0 0 0
572 2 2.4610000000000003e+00 8.5251540748539991e+00 2.0028033331461007e+01 0 0 0
721 2 0.0000000000000000e+00 8.5251540748539991e+00 2.3061058935408607e+01 0 0 0
722 2 1.2305000000000001e+00 9.2355835810918343e+00 2.3061058935408607e+01 0 0 0
736 2 2.4610000000000003e+00 8.5251540748539991e+00 2.3061058935408607e+01 0 0 0
737 2 3.6915000000000004e+00 9.2355835810918343e+00 2.3061058935408607e+01 0 0 0
569 2 1.2305000000000001e+00 1.2077301606043163e+01 2.0028033331461007e+01 0 0 0
570 2 1.2305000000000001e+00 1.0656442593567498e+01 2.0028033331461007e+01 0 0 0
587 2 3.6914999999999996e+00 1.2077301606043163e+01 2.0028033331461007e+01 0 0 0
588 2 3.6914999999999996e+00 1.0656442593567499e+01 2.0028033331461007e+01 0 0 0
720 2 0.0000000000000000e+00 1.1366872099805333e+01 2.3061058935408607e+01 0 0 0
734 2 1.2305000000000001e+00 1.0656442593567498e+01 2.3061058935408607e+01 0 0 0
735 2 2.4610000000000003e+00 1.1366872099805333e+01 2.3061058935408607e+01 0 0 0
753 2 3.6914999999999996e+00 1.0656442593567499e+01 2.3061058935408607e+01 0 0 0
589 2 4.9220000000000006e+00 9.9460130873296642e+00 2.0028033331461007e+01 0 0 0
590 2 4.9220000000000006e+00 8.5251540748539991e+00 2.0028033331461007e+01 0 0 0
611 2 7.3830000000000009e+00 9.9460130873296642e+00 2.0028033331461007e+01 0 0 0
612 2 7.3830000000000009e+00 8.5251540748539991e+00 2.0028033331461007e+01 0 0 0
755 2 4.9220000000000006e+00 8.5251540748539991e+00 2.3061058935408607e+01 0 0 0
756 2 6.1524999999999999e+00 9.2355835810918343e+00 2.3061058935408607e+01 0 0 0
778 2 7.3830000000000009e+00 8.5251540748539991e+00 2.3061058935408607e+01 0 0 0
609 2 6.1524999999999999e+00 1.2077301606043163e+01 2.0028033331461007e+01 0 0 0
610 2 6.1524999999999999e+00 1.0656442593567499e+01 2.0028033331461007e+01 0 0 0
754 2 4.9220000000000006e+00 1.1366872099805333e+01 2.3061058935408607e+01 0 0 0
776 2 6.1524999999999999e+00 1.0656442593567499e+01 2.3061058935408607e+01 0 0 0
777 2 7.3829999999999991e+00 1.1366872099805333e+01 2.3061058935408607e+01 0 0 0
634 2 9.8440000000000012e+00 9.9460130873296642e+00 2.0028033331461007e+01 0 0 0
635 2 9.8440000000000012e+00 8.5251540748539956e+00 2.0028033331461007e+01 0 0 0
779 2 8.6134999999999984e+00 9.2355835810918343e+00 2.3061058935408607e+01 0 0 0
802 2 9.8440000000000012e+00 8.5251540748539956e+00 2.3061058935408607e+01 0 0 0
803 2 1.1074500000000002e+01 9.2355835810918343e+00 2.3061058935408607e+01 0 0 0
632 2 8.6135000000000002e+00 1.2077301606043163e+01 2.0028033331461007e+01 0 0 0
633 2 8.6134999999999984e+00 1.0656442593567498e+01 2.0028033331461007e+01 0 0 0
655 2 1.1074500000000002e+01 1.2077301606043163e+01 2.0028033331461007e+01 0 0 0
656 2 1.1074500000000002e+01 1.0656442593567498e+01 2.0028033331461007e+01 0 0 0
800 2 8.6134999999999984e+00 1.0656442593567498e+01 2.3061058935408607e+01 0 0 0
801 2 9.8440000000000012e+00 1.1366872099805333e+01 2.3061058935408607e+01 0 0 0
824 2 1.1074500000000002e+01 1.0656442593567498e+01 2.3061058935408607e+01 0 0 0
825 2 1.2304999999999998e+01 1.1366872099805333e+01 2.3061058935408607e+01 0 0 0
1820 1 1.1125800374703273e+01 7.3392923009037130e+00 2.5857624730118133e+01 1 0 -1
1740 1 3.6641841873341741e+00 1.7427338771947165e+00 2.8127858570984891e+01 0 1 -1
4602 1 3.3586115933300338e+00 2.0572292965518320e+00 2.5250807188961993e+01 1 0 0
1010 1 6.0307930502038554e+00 1.0084373370510951e+00 2.5680319259381655e+01 -1 1 0
3363 1 9.1822197300491766e+00 5.0051027903103762e+00 2.7691374910787552e+01 1 0 -1
1818 1 8.6585583794648429e+00 2.8610408510737688e+00 2.5512828443718220e+01 0 1 0
3879 1 6.0434767157905611e+00 6.8970134180867007e+00 2.8350136155638122e+01 1 0 0
2090 1 3.5859207980832148e+00 5.0287182097461534e+00 2.5671507893086851e+01 1 0 -1
2670 1 1.0056984726872036e+00 5.9784494644726554e+00 2.5747365619738467e+01 1 1 0
515 1 3.8508837305583703e+00 4.5676247638192073e+00 2.8366738962778363e+01 1 1 -1
4642 1 1.2110524492326460e+00 1.0649077630235591e+00 2.8498778980096038e+01 0 0 -1
2966 1 5.7024685375394473e+00 7.0722882902827440e+00 2.5748285050793609e+01 -1 0 -1
4246 1 8.5813008030960010e+00 7.8717439934113385e+00 2.8437999506704873e+01 1 0 0
378 1 8.4247930733888019e+00 9.2866336456112837e+00 2.5529997553660429e+01 2 1 -1
1763 1 8.4019734426520660e+00 6.1525002059419576e+00 2.5345948637000802e+01 2 0 -1
474 1 1.7155887820869880e+00 9.3930893899838424e+00 2.8055472605991941e+01 1 0 0
2181 1 1.0235369764656465e+01 1.6055799606814802e+00 2.8837096881787321e+01 0 1 -1
3751 1 2.3347991332030791e+00 1.0227811880453615e+01 2.5437731064010968e+01 2 1 0
1204 1 8.6928888728637499e-01 5.2266258068216132e-01 2.5552459955709882e+01 0 0 0
3860 1 5.2124324255691130e+00 9.9886860087506495e+00 2.5508446945775031e+01 1 -1 0
4572 1 1.0923322696538388e+01 1.0351430605721594e+01 2.6238825610245311e+01 0 0 -1
4247 1 1.0520801764838176e+01 9.4789475017189317e-01 2.6147821663397977e+01 0 0 0
105 1 7.1503174687821227e+00 1.1933062539701362e+01 2.5713610752019871e+01 0 1 0
494 1 1.7192902433331259e+00 6.6234584775993373e+00 2.8439411060770759e+01 2 1 0
4631 1 4.0186868114795020e+00 1.0899713706535955e+01 2.8334621934234779e+01 0 -1 0
2594 1 1.1953815307727075e+01 4.5989658499353920e+00 2.6351526363246045e+01 0 -1 0
3461 1 7.0087688873495519e+00 2.7381590209019535e+00 2.8155756742966965e+01 1 0 -1
1273 1 9.5430773514310960e+00 1.2227904415041909e+01 2.8166665936094017e+01 0 0 0
45 1 2.6452158700757602e+00 1.6858030264671158e+00 3.2521704490331004e+01 -1 0 -1
3797 1 1.6915265013855394e+00 3.7708371557217228e+00 3.0318149712411515e+01 1 1 0
1005 1 8.7158533629994999e+00 1.0233511092811749e+01 2.9831613774792917e+01 1 0 -2
3365 1 6.5629066682228689e+00 1.6391927348112201e+00 3.3837265349660242e+01 1 1 -1
1250 1 5.5177062285645064e+00 3.7401620419604469e+00 3.2372160785700025e+01 1 1 1
3791 1 6.6657811783555232e+00 4.6389661081471525e+00 2.9847857823238556e+01 1 1 -1
4203 1 4.2209729174279476e+00 3.3872993236064375e-01 3.4212419541311220e+01 1 1 -1
472 1 1.0926776808143211e+01 1.0888737673586423e+01 3.1308518830137270e+01 0 1 0
4200 1 1.0131982976433378e+01 4.4682927994120112e+00 3.4431316300455563e+01 0 1 -1
3813 1 1.0822850205775357e+01 8.4094230718347784e+00 3.7028743648690451e+01 0 1 -1
3536 1 7.9544095073244208e+00 1.7894632183061832e-01 2.9364058576571811e+01 1 1 0
4571 1 3.1640366520246253e+00 5.1515171669462383e+00 3.2605805035746329e+01 -1 0 0
1221 1 4.7167177745202427e+00 7.3954934777980448e+00 3.2503734101310641e+01 0 0 0
904 1 8.7498208048458821e+00 6.3175935647917063e+00 3.1442562374777303e+01 0 -1 -1
4558 1 8.7425499835687024e+00 9.2680151854076751e+00 3.4924442006902240e+01 0 1 -1
395 1 1.1593924425087680e+01 6.6626586358261184e+00 3.2554940203377512e+01 0 2 0
2894 1 3.1054067107643524e-01 1.0848677003188781e+01 3.1185141716184258e+01 0 0 0
102 1 6.4766090921480368e-01 5.9580720367219548e+00 3.3923006396815829e+01 0 0 -1
170 1 5.8157171715747920e+00 8.7114321633312208e+00 3.6098626533126222e+01 0 0 -1
1014 1 4.9970513276447486e+00 8.6832766118771030e+00 3.0091390577368031e+01 1 0 0
1388 1 6.4681962847170835e+00 1.1284673604729090e+01 3.0529062082810928e+01 1 0 0
3518 1 3.5661107642124166e+00 7.3555681227838274e+00 3.6797991709283522e+01 1 -1 -1
941 1 7.1343480846905223e+00 7.4176602801728784e+00 3.3407290071079331e+01 -1 0 -1
3885 1 1.1231559875888983e+01 9.0227131446672573e+00 3.3560124939709894e+01 0 -1 -1
971 1 1.2220894944801966e+01 4.0382628452470914e+00 2.9276623855250357e+01 0 0 0
4660 1 1.7199430474704460e+00 4.0277690323956792e+00 3.6223557073440546e+01 0 0 -1
4282 1 4.5672050801913251e+00 1.0849098762840654e+01 3.4900244253397389e+01 0 1 -1
2554 1 1.0778076791189056e+01 2.1495465630688875e+00 3.7178840276642219e+01 1 2 0
2247 1 7.8746770937458432e+00 1.8662909184410159e+00 3.6403873321354794e+01 1 1 0
3733 1 2.8156621322309210e+00 1.1314476712497322e+01 3.1092333630715761e+01 2 0 0
44 1 1.1385847431180938e+01 2.2632972068523092e+00 3.4111912302913865e+01 0 0 0
1244 1 4.4170533085971595e+00 5.0770099400883630e+00 3.5584692164206487e+01 1 0 -1
71 1 1.3461349883486589e+00 8.2836067932078041e+00 3.5350827909163854e+01 1 -1 -1
1328 1 7.8146309422052100e+00 6.6860457403273568e+00 3.6998895260027126e+01 0 0 0
2580 1 1.1249184294690410e+01 6.5421131477387027e+00 2.9730910675249032e+01 0 0 -1
3456 1 7.3805335625750246e+00 4.7741938557384866e+00 3.5059756708598840e+01 1 0 0
2081 1 1.1015063058452975e+01 5.7274347927134093e+00 3.6778669785035916e+01 0 1 -1
2539 1 2.8812986842711217e+00 9.4264994370015973e+00 3.3285437514251612e+01 1 1 0
4704 1 3.7666394804067225e+00 1.1955489836581163e+01 3.7411956910897004e+01 0 0 1
2871 1 5.2525630811978685e-01 2.4380776184471924e+00 3.4172209918451486e+01 1 2 0
75 1 1.2164411240278033e+01 5.8464451500044579e-01 3.0373267786362398e+01 -1 1 0
4555 1 8.4643243533912091e+00 1.1925394354285785e+01 3.4562146632324044e+01 0 0 0
4296 1 3.3292208633951468e+00 1.9841435750279288e+00 3.7756901781502634e+01 0 1 -1
2976 1 1.6442955681619544e+00 1.0099999739479221e+01 3.7901441156413348e+01 0 1 0
2617 1 2.9513245795127898e+00 1.3985457988007274e+01 3.9336503239990002e+00 0 0 0
2893 1 1.1276080558278462e+01 1.3015895092933350e+01 3.1277511946285523e+00 1 0 0
2195 1 1.0604420026208299e+01 1.4757042402144499e+01 5.2642385731341133e+00 0 -1 0
2951 1 6.1488000397840921e+00 1.3936960997130647e+01 5.3575765803902033e+00 1 0 1
1027 1 1.1983794430219623e+01 1.7386390330380891e+01 6.1143866938628539e+00 -1 0 0
1728 1 8.7833062957164199e+00 1.6270113415354512e+01 3.9334470249759752e+00 0 0 0
3455 1 1.2179652488057330e-02 1.4393301221211788e+01 7.0218045532109450e+00 1 1 0
3754 1 8.5553379288648816e+00 2.2916069641890285e+01 8.7011057683524378e+00 0 1 1
3514 1 3.2302302476667215e+00 1.6928426307228417e+01 3.5232045241932761e+00 0 0 0
2955 1 8.6593854467587725e+00 1.2370652826970732e+01 8.5548559028024833e+00 0 0 1
4534 1 5.9853147074193460e+00 1.6694919432522020e+01 3.9100835778246266e+00 -1 0 0
43 1 6.4383686438970509e+00 1.8977185343117831e+01 6.0355658103277960e+00 1 0 1
3806 1 9.6153216262105783e+00 1.8578477416827237e+01 5.0969023166511516e+00 0 0 0
3391 1 9.9560729131491321e+00 2.0509188630380734e+01 3.3684533294332821e+00 1 0 0
152 1 1.3701847808780541e+00 2.3033362319765317e+01 5.7011513595701242e+00 1 0 1
1787 1 3.5658700925928044e-01 2.0334227529219582e+01 7.9543122530303831e+00 -1 0 1
2543 1 3.8853349702383224e+00 2.2640143358822897e+01 7.1790037457765017e+00 0 1 0
3431 1 8.3444469292956445e+00 2.3161518173806090e+01 5.6692207566091986e+00 0 0 1
480 1 4.9275927887111388e+00 2.1850207189044784e+01 2.5893181742202471e+00 0 -1 0
3388 1 2.4457318809614477e+00 1.5762626651090565e+01 7.6402281476736711e+00 1 0 0
385 1 2.6538994313802013e+00 1.8367339311659475e+01 5.8227183846961559e+00 1 1 1
3866 1 8.7969989449571724e+00 2.3074990155549422e+01 3.0159884098402947e+00 1 0 1
1283 1 3.5900975626502905e+00 1.3252479868311541e+01 6.5573919858660554e+00 2 0 1
931 1 1.0981418165689293e+01 2.4205723330999476e+01 8.3034957798865072e+00 0 1 0
966 1 8.4038834425683717e+00 1.4612091570141466e+01 6.9060954511608408e+00 0 1 0
2704 1 6.6552339619872853e+00 1.7977851213419076e+01 1.0357293572260170e+01 1 0 0
3032 1 6.6658622443458726e-01 2.0548326203025670e+01 4.8604416506372976e+00 2 1 1
1749 1 7.3095581231048401e+00 1.2502275987052817e+01 3.1039992172558222e+00 1 1 1
2963 1 4.5252590663331755e+00 1.8365920636235593e+01 7.9536731924408635e+00 0 1 2
4608 1 2.1940414043329950e-01 1.4534746292611882e+01 4.0433908768600677e+00 0 -1 1
2227 1 8.6544976699902652e+00 1.8870023445787428e+01 7.9535453849379394e+00 0 0 1
50 1 9.5580139818757921e+00 1.6424307100000544e+01 8.7428808048238835e+00 1 -1 1
3043 1 1.0643946466293777e+01 2.0663765250384039e+01 8.8102538666567742e+00 0 0 1
4575 1 1.0859772136167253e+01 2.1714679204681929e+01 5.9773822098257359e+00 -1 0 1
2600 1 3.1847833055372896e+00 2.0472675216526444e+01 8.7557840788406160e+00 0 -1 0
179 1 2.4946680659567813e+00 1.6108227744186738e+01 1.0390787765844179e+01 1 0 0
3050 1 5.8105242511513246e+00 2.1714977118723358e+01 5.3602431583949155e+00 0 0 1