
# Create simulation box and atoms

read_data data.ML_graphite_1atm_240K
  orthogonal box = (0 0 2.18931) to (49.22 49.0196 37.8107)
  4 by 4 by 4 MPI processor grid
  reading atoms ...
  4990 atoms
  reading velocities ...
  4990 velocities
group water type 1
2230 atoms in group water
group graphite type 2
2760 atoms in group graphite

# Define potential

pair_style sw
pair_coeff * * MLC_e.sw mW C


# Fix graphite atoms in place

fix 5 graphite setforce 0.0 0.0 0.0
velocity graphite set 0.0 0.0 0.0


# Equilibration of molecular water

# Add velocity/set timestep

velocity	    water create ${TEMP} ${SEED} rot yes dist gaussian
velocity	    water create 240 ${SEED} rot yes dist gaussian
velocity	    water create 240 31879 rot yes dist gaussian
timestep	    5.0

# Define output

compute			1 water msd
compute			3 water temp
thermo	    	50
thermo_style	custom step temp press vol etotal ke pe c_1[4] c_3

# Neighbor lists

neigh_modify    delay 0 every 1 check yes

# Set fixes

fix             1 water momentum 10 linear 1 1 1 rescale
fix             2 water nve
fix             3 water temp/csvr ${TEMP} ${TEMP} 500.0 ${SEED}
fix             3 water temp/csvr 240 ${TEMP} 500.0 ${SEED}
fix             3 water temp/csvr 240 240 500.0 ${SEED}
fix             3 water temp/csvr 240 240 500.0 31879
fix             4 water press/berendsen z ${PRES} ${PRES} 1000.0 modulus 20000
fix             4 water press/berendsen z 1 ${PRES} 1000.0 modulus 20000
fix             4 water press/berendsen z 1 1 1000.0 modulus 20000

# Run 0.5 ns equilibration

dump		    1 all atom 2000 ${DIR}/eq.${NAME}-${TEMP}.dump
dump		    1 all atom 2000 run_7/eq.${NAME}-${TEMP}.dump
dump		    1 all atom 2000 run_7/eq.het_freeze_7-${TEMP}.dump
dump		    1 all atom 2000 run_7/eq.het_freeze_7-240.dump

reset_timestep  0

run	            100000
Neighbor list info ...
  update every 1 steps, delay 0 steps, check yes
  max neighbors/atom: 2000, page size: 100000
  master list distance cutoff = 6.67472
  ghost atom cutoff = 6.67472
  binsize = 3.33736, bins = 15 15 11
  1 neighbor lists, perpetual/occasional/extra = 1 0 0
  (1) pair sw, perpetual
      attributes: full, newton on
      pair build: full/bin/atomonly
      stencil: full/bin/3d
      bin: standard
Per MPI rank memory allocation (min/avg/max) = 4.094 | 4.225 | 4.497 Mbytes
Step Temp Press Volume TotEng KinEng PotEng c_1[4] c_3 
       0     107.2279   -141.85038    85945.351   -21384.105    1594.6141   -22978.719            0          240 
      50    105.86277   -402.93691    85929.777   -21400.971    1574.3129   -22975.284   0.49820257    236.94452 
     100    108.29376   -255.67212    85858.163   -21386.111    1610.4648   -22996.576   0.88733378    242.38563 
     150    104.36213   -239.60713    85871.031   -21407.131    1551.9965   -22959.128    1.1167599    233.58576 
     200    107.56688   -443.63595    85838.658   -21419.351    1599.6552   -23019.006    1.2998326    240.75871 
     250    105.84525   -488.68908    85782.202   -21414.085    1574.0524   -22988.138     1.497459    236.90532 
     300    106.55478   -735.14125    85728.044   -21406.453     1584.604   -22991.057    1.7235551    238.49341 
     350    107.49055   -225.36492    85716.815   -21410.351      1598.52   -23008.871    1.9352397    240.58786 
     400    104.85578    -569.5456    85756.828   -21377.316    1559.3378   -22936.653    2.2231537    234.69067 
     450    108.39959   -539.79418    85764.009    -21389.48    1612.0386   -23001.519    2.5013401     242.6225 
     500    107.38632   -576.36827    85781.849   -21422.018      1596.97   -23018.988    2.7037139    240.35458 
     550    107.60538   -658.57219    85819.964   -21457.908    1600.2277   -23058.136    2.8636409    240.84488 
     600    108.06142   -830.36966    85796.913   -21426.943    1607.0096   -23033.953    3.0651211     241.8656 
     650    106.46146   -313.35194    85701.902   -21409.556    1583.2162   -22992.773    3.2935986    238.28453 
     700    107.20478   -334.50627    85681.237   -21444.409    1594.2702    -23038.68    3.5444795    239.94824 
     750    104.09694   -194.19186    85634.504   -21482.626    1548.0527   -23030.679    3.6900284     232.9922 
     800    108.27136   -123.05381    85697.063     -21429.4    1610.1317   -23039.532    3.9262982    242.33549 
     850    109.12437   -340.40922    85702.098   -21432.188    1622.8171   -23055.006    4.1509285    244.24473 
     900    106.60145    -386.2151    85716.129     -21448.8     1585.298   -23034.098    4.3576337    238.59786 
     950    108.40248   -494.52445    85697.452   -21447.651    1612.0816   -23059.733     4.505282    242.62897 
    1000    104.67191   -374.37309     85692.87   -21472.472    1556.6034   -23029.075    4.6299046    234.27913 
    1050    105.43809   -483.38006    85598.502   -21477.907    1567.9975   -23045.905    4.9514888    235.99401 
    1100    105.58303   -114.32898    85573.215   -21479.883    1570.1529   -23050.036    5.2548731    236.31842 
    1150    105.67122    -271.0836    85631.327    -21506.39    1571.4643   -23077.854    5.4822012     236.5158 
    1200    105.49682   -124.49784    85708.913   -21481.258    1568.8707   -23050.129    5.7568062    236.12545 
    1250    106.34556   -133.65636    85825.734   -21463.701    1581.4927   -23045.194    5.9093012    238.02513 
    1300     107.2405   -394.96674    85864.872   -21481.558    1594.8016    -23076.36    6.0855243    240.02821 
    1350     107.4326    -312.4146    85885.093   -21412.952    1597.6583   -23010.611    6.1799248    240.45817 
    1400     105.7316   -304.81641    85913.917   -21423.639    1572.3623   -22996.002     6.496289    236.65095 
    1450    109.19315   -90.555656    85940.451   -21407.651    1623.8399   -23031.491    6.7299004    244.39866 
    1500    109.48405   -152.67731    86041.498   -21430.797    1628.1659   -23058.963    6.9875933    245.04977 
    1550    108.01496   -158.51409    86150.163   -21442.621    1606.3187    -23048.94    7.2932271    241.76161 
    1600    109.50016   -622.02853     86154.93   -21435.141    1628.4055   -23063.547    7.5222938    245.08583 
    1650    108.41011   -371.60686    86153.676   -21441.893    1612.1951   -23054.088    7.6886043    242.64605 
    1700    105.39789    -377.0909    86140.448   -21394.652    1567.3996   -22962.051    7.9111075    235.90403 
    1750    109.18692    194.12294    86165.965   -21398.726    1623.7473   -23022.473    8.0668278    244.38473 
    1800    109.02609   -355.99898    86218.595   -21406.271    1621.3554   -23027.626    8.2179856    244.02474 
    1850    106.26593   -387.39349    86196.119   -21390.327    1580.3084   -22970.636    8.4072611    237.84689 
    1900    107.95595   -296.95846    86252.264   -21398.907    1605.4412   -23004.348    8.6747878    241.62954 
    1950    107.96173   -98.425786    86317.884     -21396.3    1605.5271   -23001.827    9.1035978    241.64247 
    2000    108.09225   -380.56905    86369.661   -21439.789    1607.4681   -23047.257    9.2630059     241.9346 
    2050    102.94182   -283.10851    86360.942   -21493.534    1530.8747   -23024.409    9.6005644     230.4068 
    2100    104.74716   -356.49738    86312.863   -21492.972    1557.7224   -23050.695    9.7663235    234.44755 
    2150    106.52685   -339.42973    86277.955   -21434.351    1584.1886    -23018.54    10.020878    238.43089 
    2200    105.80316   -405.08323    86272.283   -21443.921    1573.4265   -23017.348    10.118882    236.81112 
    2250    109.64995   -313.30043    86256.221   -21418.797    1630.6331    -23049.43    10.254847    245.42109 
    2300    107.92437   -385.70509    86249.023   -21441.493    1604.9716   -23046.464     10.48293    241.55886 
    2350    107.43522    19.389667    86239.289   -21438.267    1597.6973   -23035.964    10.745946    240.46403 
    2400    106.68011    -310.5326    86272.689    -21465.41    1586.4678   -23051.878    10.972365    238.77392 
    2450    106.78663   -342.79459    86295.326   -21495.149    1588.0519   -23083.201    11.191386    239.01234 
    2500    108.33125   -483.07678    86365.768   -21504.384    1611.0224   -23115.406    11.373974    242.46955 
    2550    104.71825   -143.23909    86313.161   -21488.698    1557.2925   -23045.991    11.482503    234.38284 
    2600    106.63743   -358.33869    86304.455   -21493.954     1585.833   -23079.787     11.62561    238.67839 
    2650    106.85919   -558.51434    86247.783   -21461.855    1589.1309   -23050.986    11.874913    239.17474 
    2700    104.89167   -244.24113    86277.866    -21490.69    1559.8715   -23050.561    12.092465      234.771 
    2750    106.80602   -363.45302    86262.567   -21476.083    1588.3403   -23064.424    12.272874    239.05574 
    2800    106.27881   -381.56128    86250.045   -21460.067       1580.5   -23040.567    12.521785    237.87573 
    2850    103.43627   -380.97258    86289.166   -21449.286    1538.2278   -22987.514    12.711854    231.51348 
    2900    106.79571   -250.74467    86217.473   -21421.981    1588.1869   -23010.168    13.026857    239.03266 
    2950    106.38466   -549.78276    86194.565   -21455.149     1582.074   -23037.223    13.314774    238.11263 
    3000      103.737    -356.0096    86168.465   -21438.564    1542.7001   -22981.264    13.737549    232.18659 
    3050    108.85978   -813.02753     86110.69   -21445.155    1618.8823   -23064.037    13.890692    243.65251 
    3100    106.94021   -590.64497    86065.066   -21460.246    1590.3359   -23050.582    13.939307    239.35609 
    3150     108.0914   -366.19574    86018.829   -21427.981    1607.4554   -23035.436     14.12816     241.9327 
    3200    108.14976    -506.8427    86023.016   -21438.532    1608.3233   -23046.855    14.274174    242.06332 
    3250    104.07603   -64.701638    85983.618   -21457.463    1547.7419   -23005.205    14.445251    232.94542 
    3300    107.54157   -302.17499    86056.212   -21456.938    1599.2788   -23056.217    14.543352    240.70206 
    3350    107.17865    -561.5625    86003.011   -21481.589    1593.8818    -23075.47    14.747074    239.88977 
    3400    107.73856   -354.61325    85948.209   -21492.526    1602.2083   -23094.734    15.001316    241.14297 
    3450    105.14039   -635.30718    85949.174   -21453.069    1563.5702   -23016.639    15.176857    235.32768 
    3500    107.06597   -580.75404     85886.88   -21439.918    1592.2059   -23032.124    15.368487    239.63755 
    3550    108.03062   -491.92964    85824.357   -21427.188    1606.5517    -23033.74    15.659463    241.79667 
    3600    105.78063   -296.56882    85913.553   -21444.988    1573.0914    -23018.08    15.886403    236.76068 
    3650    108.15511   -368.27878    85950.441   -21414.642    1608.4029   -23023.044    16.095116    242.07529 
    3700    107.59782   -354.86773    85938.604   -21433.997    1600.1153   -23034.112    16.349368    240.82796 
    3750    107.66274    -711.8777    85913.056   -21493.044    1601.0808   -23094.125    16.510489    240.97327 
    3800     104.1502   -603.79358    85856.938   -21523.039    1548.8449   -23071.884     16.83468    233.11143 
    3850    107.31168    -574.0646    85851.685   -21508.112    1595.8601   -23103.972    17.016654    240.18753 
    3900    105.40222   -474.40628    85842.721   -21484.952    1567.4639   -23052.416    17.118402    235.91371 
    3950     106.7997   -375.36512    85849.644   -21461.557    1588.2462   -23049.803    17.229741    239.04158 
    4000     108.3634   -173.17602    85880.072   -21437.602    1611.5004   -23049.102    17.498236     242.5415 
    4050    109.05015   -360.06172     85950.28   -21389.907    1621.7133   -23011.621    17.686833     244.0786 
    4100     106.7421    -259.3387    85966.488   -21378.927    1587.3896   -22966.316     17.79856    238.91266 
    4150    107.95019   -299.24491    85944.644   -21367.735    1605.3555    -22973.09    18.176396    241.61665 
    4200    109.85997   -335.87048    86007.809   -21353.573    1633.7564   -22987.329    18.456328    245.89116 
    4250    107.56096   -85.491088    86022.693   -21377.744    1599.5672   -22977.312    18.505527    240.74547 
    4300     107.2271   -204.06659    86084.139   -21422.867    1594.6022   -23017.469    18.801308     239.9982 
    4350    107.00576    -485.0874    86015.999   -21429.105    1591.3107   -23020.415    19.083967     239.5028 
    4400    106.21558   -191.23151    86039.763   -21447.153    1579.5597   -23026.712    19.355983     237.7342 
    4450     103.4536   -275.72894    86132.223   -21480.024    1538.4855   -23018.509    19.565143    231.55227 
    4500    107.00592   -235.36471    86205.028   -21455.529    1591.3129   -23046.842    19.854578    239.50315 
    4550    108.47404   -774.37857    86269.899   -21432.541    1613.1457   -23045.687    19.915662    242.78913 
    4600    108.31723   -249.31684    86342.335   -21443.229    1610.8139   -23054.043    20.068855    242.43817 
    4650    109.44947   -376.03594    86383.079   -21447.546    1627.6516   -23075.197    20.648938    244.97236 
    4700    106.43755   -580.58155    86428.184   -21444.021    1582.8607   -23026.882    21.127357    238.23102 
    4750    106.39066   -421.36518    86475.348   -21467.815    1582.1633   -23049.978    21.485024    238.12607 
    4800    107.14078   -362.78969    86513.476    -21468.41    1593.3186   -23061.728    21.560431    239.80501 
    4850    105.08983   -446.49607    86554.977   -21460.855    1562.8183   -23023.673    21.812881    235.21452 
    4900    104.12425    -697.9591    86436.747   -21442.494    1548.4589   -22990.953    21.811604    233.05333 
    4950    110.04771   -518.26239    86423.518   -21400.552    1636.5482     -23037.1    21.993588    246.31135 
    5000    108.85229   -435.85378    86464.761   -21402.756    1618.7709   -23021.527    22.203855    243.63575 
    5050    109.34681   -291.33533    86449.839   -21383.038     1626.125   -23009.163    22.371647    244.74259 
    5100    107.93968   -446.28015    86447.101   -21404.684    1605.1991   -23009.883    22.354742    241.59311 
    5150    107.95465    -576.9346    86396.259   -21418.796    1605.4218   -23024.218    22.705291    241.62662 
    5200    104.94439   -508.28469    86362.308   -21437.841    1560.6554   -22998.497    22.971306    234.88899 
    5250     103.5747   -414.71381    86313.801   -21490.631    1540.2865   -23030.917    23.164269    231.82333 
    5300    104.11625   -184.17419    86278.133   -21473.053      1548.34   -23021.393    23.420482    233.03543 
    5350    103.76941    -1041.721    86242.611   -21456.944     1543.182   -23000.126    23.656233    232.25911 
    5400    105.93219   -441.22529    86100.158   -21455.375    1575.3453    -23030.72    23.862256    237.09991 
    5450    107.28894   -183.44696    86076.805   -21448.664    1595.5218   -23044.186    24.124563    240.13661 
    5500    107.61097   -475.74534    86088.156    -21417.86    1600.3109   -23018.171    24.412533     240.8574 
    5550    103.97929   -171.27035    86058.102   -21454.455    1546.3032   -23000.758    24.602034    232.72888 
    5600    105.22589   -416.14398    86020.899   -21436.418    1564.8417    -23001.26    24.720098    235.51905 
    5650    111.05393   -72.970716    85980.912   -21402.579     1651.512   -23054.091    25.108752    248.56351 
    5700     109.9696   -133.80833    86006.213   -21435.148    1635.3867   -23070.535    25.665604    246.13654 
    5750    106.77299   -42.904801    86095.528    -21439.61     1587.849   -23027.459    25.840139    238.98181 
    5800    103.04224   -34.915316    86124.656   -21421.193     1532.368   -22953.561    25.904338    230.63155 
    5850    107.98307   -132.00122    86111.854   -21401.448    1605.8444   -23007.293    26.011988    241.69023 
    5900    107.45396   -491.07965    86174.619   -21421.735    1597.9759   -23019.711    26.212824    240.50597 
    5950    107.80776   -443.94477    86140.332   -21434.205    1603.2374   -23037.442    26.554352    241.29786 
    6000    108.37586   -281.83541    86108.658   -21409.017    1611.6857   -23020.703    26.911309    242.56939 
    6050    105.23834   -316.34455    86049.842   -21435.626    1565.0269   -23000.653    27.039133    235.54692 
    6100    108.53107    205.58872    86056.865   -21412.054    1613.9939   -23026.048       27.322    242.91678 
    6150    108.05978    60.379711    86101.482   -21389.151    1606.9852   -22996.136    27.651804    241.86192 
    6200    107.78271   -129.62684    86109.125   -21401.394    1602.8648   -23004.259    27.940125    241.24177 
    6250    111.01287     87.32268    86137.326   -21371.694    1650.9014   -23022.596    28.182558    248.47161 
    6300    107.61393   -421.78856     86115.46   -21377.395    1600.3549    -22977.75    28.295423    240.86401 
    6350    110.89137   -432.25066     86034.24   -21391.768    1649.0945   -23040.862    28.346575    248.19966 
    6400    107.69478   -449.83819    85958.555   -21385.765    1601.5573   -22987.322    28.610138    241.04498 
    6450    106.99589   -177.46499    85863.953   -21390.765    1591.1639   -22981.929     28.92043    239.48072 
    6500    106.40052   -35.515728    85915.884   -21414.853      1582.31   -22997.163     28.87978    238.14814 
    6550    108.15789   -237.60281    85958.843   -21354.615    1608.4442    -22963.06    29.023409    242.08152 
    6600    107.59696    20.126492    86006.132   -21376.894    1600.1025   -22976.996    29.047126    240.82604 
    6650    108.96789   -277.73574    85995.449   -21368.226      1620.49   -22988.716    29.318188    243.89449 
    6700     107.7056   -463.32823    85993.192   -21383.208    1601.7181   -22984.926    29.468924    241.06919 
    6750    108.20044   -34.506527    85953.649   -21379.562     1609.077   -22988.639    29.706436    242.17675 
    6800    108.43801    220.38682    85942.387   -21401.886      1612.61   -23014.496    29.852053    242.70849 
    6850    109.72298   -433.25366    85943.005   -21382.982    1631.7192   -23014.702    30.035629    245.58455 
    6900    107.17339    -350.8396    85893.545    -21401.33    1593.8035   -22995.133    30.441868    239.87799 
    6950    106.02256   -157.08493    85800.452   -21407.365    1576.6891   -22984.054    30.627693    237.30217 
    7000     104.3123   -372.42109    85762.121   -21421.556    1551.2555   -22972.812    30.801325    233.47424 
    7050    106.47133   -607.01732    85762.044   -21472.127     1583.363    -23055.49     30.81063    238.30662 
    7100    104.96322   -577.53667    85690.143   -21476.069    1560.9355   -23037.005    31.019755    234.93114 
    7150    104.97963   -590.68457    85642.076   -21504.893    1561.1795   -23066.073    30.896779    234.96787 
    7200    105.01304   -506.16758    85696.142   -21444.105    1561.6763   -23005.781      30.9239    235.04264 
    7250    107.95839    28.697018    85751.095   -21387.278    1605.4774   -22992.756    31.036012      241.635 
    7300    108.50043   -395.73048    85750.988   -21391.283    1613.5383   -23004.821    31.273398    242.84821 
    7350    103.29044   -200.90059    85828.166   -21427.168    1536.0592   -22963.228    31.295229    231.18709 
    7400    107.88173    -458.2402     85852.91   -21398.076    1604.3374   -23002.414    31.677125    241.46341 
    7450    106.77275   -274.19465    85888.868   -21405.886    1587.8454   -22993.732    31.920497    238.98126 
    7500    103.21776    -154.9851    85869.646   -21418.586    1534.9783   -22953.564    32.072343    231.02442 
    7550    107.27515   -84.369891    85873.463   -21416.159    1595.3168   -23011.476    32.505087    240.10576 
    7600    109.09376    -312.0874    85945.328   -21414.705    1622.3618   -23037.066    32.791055    244.17621 
    7650    107.52676    4.4037349    86081.931   -21397.651    1599.0585   -22996.709    33.031717    240.66891 
    7700    107.30868   -134.13321    86101.415   -21392.905    1595.8155   -22988.721    33.251016    240.18081 
    7750    110.13252   -492.40251    86129.242   -21395.402    1637.8094   -23033.211    33.388825    246.50118 
    7800    106.85869   -356.07304     86168.25   -21430.439    1589.1235   -23019.563    33.577637    239.17362 
    7850     106.0564   -398.03829    86231.854   -21462.894    1577.1925   -23040.086    33.761406    237.37792 
    7900    108.93876   -440.35138    86265.242   -21448.861    1620.0567   -23068.917    34.002858    243.82928 
    7950     106.5937   -285.05358    86286.582   -21468.538    1585.1827   -23053.721    34.062124    238.58051 
    8000    109.51811   -532.37018    86165.691   -21437.721    1628.6725   -23066.393    34.298713    245.12601 
    8050    108.99705   -182.48772     86145.96   -21400.557    1620.9237   -23021.481    34.361946    243.95976 
    8100    108.55604   -203.90321    86184.679   -21431.362    1614.3652   -23045.728    34.502386    242.97267 
    8150    109.15967    -413.8726    86175.004   -21402.347    1623.3419   -23025.689    34.727449    244.32372 
    8200    107.07276    82.769399    86302.299   -21475.724     1592.307   -23068.031    34.824659    239.65276 
    8250    105.39586   -424.80309    86376.916    -21504.84    1567.3694   -23072.209    35.061252    235.89949 
    8300    106.36222   -431.99978     86405.87   -21521.874    1581.7403   -23103.614    35.382661     238.0624 
    8350    102.97689   -155.96233    86414.265   -21547.826    1531.3962   -23079.222    35.612542    230.48528 
    8400    106.36146   -2.5720944    86477.031   -21499.846    1581.7291   -23081.575    35.737121    238.06072 
    8450    106.15079   -483.23294    86538.602   -21493.989    1578.5961   -23072.585    35.869679    237.58918 
    8500    106.18747    -533.2054    86505.864   -21479.334    1579.1416   -23058.476    36.023639    237.67128 
    8550    103.53489   -751.16822    86530.661   -21521.253    1539.6944   -23060.947    36.311971    231.73422 
    8600    105.62034   -395.92814    86468.507   -21479.343    1570.7077    -23050.05    36.597516    236.40192 
    8650    107.08367   -588.71718    86402.934   -21445.511    1592.4692    -23037.98    36.898302    239.67717 
    8700    105.38498    -508.2801    86325.672   -21463.015    1567.2075   -23030.222    37.213434    235.87512 
    8750    106.65783   -521.88876    86377.018   -21444.786    1586.1365   -23030.922    37.433641    238.72405 
    8800      109.732   -806.41476    86350.051   -21394.778    1631.8533   -23026.632    37.494788    245.60474 
    8850    105.25554   -345.24746    86342.356    -21422.19    1565.2827   -22987.473    38.112849    235.58543 
    8900    109.75161   -355.38989    86354.354   -21411.233    1632.1448   -23043.378      38.3766    245.64861 
    8950    109.80125   -565.80579    86349.554   -21421.148    1632.8831   -23054.031    38.705961    245.75974 
    9000    109.13635   -530.56121    86342.489   -21423.083    1622.9951   -23046.078    38.866114    244.27152 
    9050    109.76104   -82.940208    86348.659   -21445.797     1632.285   -23078.082    39.101004    245.66972 
    9100    107.14535   -392.49116    86350.773   -21442.616    1593.3866   -23036.003    39.287475    239.81524 
    9150    109.25422   -314.14404    86281.111   -21433.787     1624.748   -23058.535    39.229874    244.53535 
    9200    107.64605   -198.09994    86327.231   -21424.519    1600.8325   -23025.352    39.361242    240.93591 
    9250    106.94039   -220.04675    86334.593   -21412.218    1590.3385   -23002.556     39.46387    239.35649 
    9300     110.8778   -184.91627    86362.359   -21391.531    1648.8927   -23040.423    39.670315    248.16928 
    9350    106.35298   -701.04017    86416.552   -21407.508     1581.603   -22989.111    40.126852    238.04173 
    9400    108.23678   -377.59551    86424.004   -21378.475    1609.6174   -22988.092    40.233281     242.2581 
    9450    109.94838   -570.67864    86441.917   -21374.931     1635.071   -23010.002    40.562211    246.08903 
    9500     106.6589   -380.78201     86408.86   -21393.053    1586.1523   -22979.205    40.494462    238.72644 
    9550    108.13395    12.236552    86371.883    -21430.35    1608.0883   -23038.439    40.776778    242.02795 
    9600    106.25007   -351.93455    86329.781    -21435.33    1580.0726   -23015.403    41.072714     237.8114 
    9650     105.1911   -249.71532    86299.144   -21456.963    1564.3244   -23021.288    41.206438    235.44119 
    9700    106.22829   -402.12636     86317.93   -21440.183    1579.7487   -23019.932    41.469938    237.76265 
    9750    106.54003   -299.27197    86354.131   -21445.364    1584.3847   -23029.748    41.485874     238.4604 
    9800    104.94915   -437.14621    86315.586   -21456.558    1560.7262   -23017.284    41.458405    234.89964 
    9850    108.61605   -663.85863    86177.033   -21467.766    1615.2577   -23083.024    41.359087    243.10699 
    9900    104.20561   -802.93854     86078.98   -21473.857    1549.6689   -23023.526    41.579672    233.23544 
    9950    106.78648   -528.21589    86054.878   -21454.365    1588.0497   -23042.415    41.859906    239.01201 
   10000    106.86748   -400.03676     86045.07   -21427.791    1589.2542   -23017.045    41.963216    239.19329 
   10050    107.20254   -85.531067    86052.664   -21404.772     1594.237   -22999.009    42.097347    239.94324 
   10100    107.32148   -52.867388    86032.209   -21428.275    1596.0057   -23024.281    42.372539    240.20945 
   10150    109.96751   -23.787213    86046.312   -21402.833    1635.3555   -23038.188    42.496235    246.13185 
   10200    109.06436   -100.47766    86089.254   -21404.012    1621.9246   -23025.937     42.86979    244.11041 
   10250      107.442   -58.996423    86121.172   -21414.124    1597.7981   -23011.922    43.041583    240.47921 
   10300    109.11604   -171.44605    86157.711   -21402.926    1622.6932    -23025.62    43.444379    244.22608 
   10350    108.73152   -213.64959    86174.718   -21363.764    1616.9748   -22980.739    43.791835    243.36543 
   10400    109.68663   -562.04619    86144.271   -21399.039    1631.1786   -23030.218    43.959077    245.50319 
   10450    103.17381    -340.2179    86069.062   -21442.535    1534.3247   -22976.859    44.241315    230.92604 
   10500    106.80143   -145.78609    86061.387   -21444.135    1588.2721   -23032.407    44.245027    239.04547 
   10550    108.81778     -45.1873    86091.406   -21433.713    1618.2576   -23051.971    44.546364    243.55849 
   10600    103.69286    -154.0701     86155.57   -21453.374    1542.0436   -22995.418    44.884432    232.08779 
   10650    104.81521   -458.91041    86203.094   -21479.191    1558.7343   -23037.926    45.236179    234.59985 
   10700    107.17173   -76.916251    86248.696   -21491.015    1593.7787   -23084.794    45.383931    239.87427 
   10750    106.24196   -610.40563    86202.467   -21497.486     1579.952   -23077.438    45.784992    237.79325 
   10800    105.21905   -266.36661    86167.671   -21517.025    1564.7399   -23081.765    46.150893    235.50373 
   10850    104.71515   -432.31785    86115.587   -21518.023    1557.2464   -23075.269    46.350739     234.3759 
   10900    104.89483   -456.13818    86073.883   -21523.508    1559.9184   -23083.426    46.891183    234.77805 
   10950    107.24772   -341.02272    86046.296   -21468.906    1594.9089   -23063.814    47.221812    240.04436 
   11000    103.59237   -218.02205    86051.545   -21466.241    1540.5492   -23006.791    47.448514    231.86287 
   11050    107.07574   -272.47539    86093.356   -21473.946    1592.3514   -23066.297    47.629602    239.65944 
   11100    104.15486    -261.0457    86140.714    -21480.69    1548.9141   -23029.604    47.926479    233.12184 
   11150    105.89836   -447.02323    86147.472   -21456.798    1574.8422    -23031.64    48.135101     237.0242 
   11200    107.71426   -582.69998    86226.298   -21381.435    1601.8469   -22983.281    48.391057    241.08857 
   11250    107.90149   -342.02244    86287.661   -21365.729    1604.6312    -22970.36    48.706058    241.50763 
   11300    107.84397   -277.28974     86284.39   -21368.709    1603.7758   -22972.485    48.769239    241.37889 
   11350    106.28387   -598.34861    86274.802   -21384.504    1580.5752   -22965.079    48.808586    237.88705 
   11400    107.30412   -434.53759    86270.391   -21407.456    1595.7477   -23003.203    49.059142     240.1706 
   11450    109.84256   -472.27579    86304.877   -21386.475    1633.4973   -23019.973    49.369023    245.85218 
   11500    106.68159   -331.91214    86274.979   -21414.619    1586.4897   -23001.109    49.359062    238.77722 
   11550    108.09562    -323.4944    86308.703   -21393.266    1607.5182   -23000.784    49.361337    241.94215 
   11600    105.36306   -610.71882    86234.064   -21417.651    1566.8817   -22984.533    49.540369    235.82608 
   11650    108.17948   -487.25758    86278.658    -21432.77    1608.7653   -23041.536    49.673922    242.12985 
   11700     109.0892   -533.63359      86274.1   -21420.081    1622.2941   -23042.375    49.906096    244.16601 
   11750    109.36787   -383.53419    86210.587   -21404.267    1626.4381   -23030.706    49.955844    244.78972 
   11800    106.59962   -376.39302     86198.64   -21451.589    1585.2708    -23036.86    49.895044    238.59376 
   11850    107.04494   -447.68134    86164.229   -21442.064    1591.8932   -23033.957    50.204189    239.59049 
   11900    105.30906   -329.16756    86208.895   -21415.594    1566.0785   -22981.673    50.384217    235.70519 
   11950    106.36306   -665.52885    86224.818   -21426.935    1581.7529   -23008.688    50.710702     238.0643 
   12000    104.78549   -283.50083    86219.588    -21425.65    1558.2925   -22983.943    51.045786    234.53335 
   12050    107.60148   -213.75387    86258.208   -21407.531    1600.1697   -23007.701    51.188183    240.83615 
   12100    108.57532   -554.69746    86278.749   -21400.715    1614.6519   -23015.367    51.490035    243.01582 
   12150    105.51178   -429.69775    86264.103   -21385.833    1569.0932   -22954.927    51.525089    236.15893 
   12200    106.53402    -167.1314    86292.467   -21370.051    1584.2953   -22954.346    51.731136    238.44694 
   12250    110.90234   -595.71058    86206.081   -21322.265    1649.2577   -22971.523    51.879843    248.22422 
   12300     109.7176   -454.13193    86187.021   -21345.084    1631.6392   -22976.723    52.233196    245.57251 
   12350     106.7315   -442.40642    86113.748   -21373.448    1587.2321    -22960.68    52.662137    238.88895 
   12400    105.66206   -103.38033    86140.571   -21387.949    1571.3282   -22959.277     52.98742     236.4953 
   12450    105.31764   -162.64925    86189.646   -21403.699    1566.2062   -22969.905    53.106378    235.72441 
   12500    109.16924   -206.73686    86207.867   -21408.774    1623.4843   -23032.258    53.198784    244.34515 
   12550     107.7248   -365.31088    86191.642   -21405.531    1602.0036   -23007.535    53.637464    241.11216 
   12600    108.25398   -338.86403    86176.702   -21397.504    1609.8732   -23007.378    53.989229    242.29658 
   12650    109.27646   -363.18179    86229.223   -21356.227    1625.0788   -22981.306    54.737283    244.58514 
   12700    107.69431   -386.73171    86241.223   -21368.501    1601.5503   -22970.051    55.314538    241.04393 
   12750    108.21628   -230.68747    86174.579    -21370.31    1609.3126   -22979.623    55.643612    242.21222 
   12800    109.15258   -487.95504    86125.986   -21376.173    1623.2366    -22999.41    55.671778    244.30787 
   12850    109.48056   -660.54051    86090.704   -21346.042    1628.1141   -22974.156    55.863607    245.04196 
   12900    107.58161   -153.49625    86028.502   -21386.248    1599.8743   -22986.122    56.204617    240.79169 
   12950    107.97861    12.605914    86051.503   -21349.952    1605.7782   -22955.731    56.414192    241.68026 
   13000    106.16051    -272.1128    86125.151   -21390.995    1578.7406   -22969.735    56.505559    237.61093 
   13050    108.32608   -346.15099    86142.606   -21428.235    1610.9455    -23039.18    56.409121    242.45797 
   13100    105.79012   -548.80325     86103.29   -21473.757    1573.2326    -23046.99      56.8881    236.78193 
   13150    104.27328   -593.70715     86091.93   -21473.835    1550.6752   -23024.511    57.084399    233.38689 
   13200    107.82002   -583.29021    86123.956    -21495.07    1603.4196   -23098.489    57.249873    241.32528 
   13250    106.99307   -560.58578    86095.559   -21479.372    1591.1218   -23070.493    57.499882    239.47439 
   13300    109.02503   -333.49995    86094.637   -21463.047    1621.3397   -23084.387    57.779013    244.02238 
   13350    105.24787   -582.24433    86076.159   -21429.588    1565.1686   -22994.757    58.200853    235.56825 
   13400    111.02117   -215.61309    86061.925   -21405.729    1651.0248   -23056.754    58.453194    248.49017 
   13450    107.13193   -424.54872    86127.502   -21421.927     1593.187   -23015.114    58.720642     239.7852 
   13500    103.45679   -462.38005    86098.417   -21458.263     1538.533   -22996.796    59.253353    231.55942 
   13550    104.82739   -441.56662     86123.33   -21471.079    1558.9155   -23029.994    59.626095    234.62711 
   13600    105.23696   -205.82085    86172.103   -21427.397    1565.0064   -22992.403     59.99836    235.54383 
   13650     107.1977    105.39803     86257.73   -21416.118     1594.165   -23010.283    60.366167    239.93241 
   13700    108.62796   -80.211351    86389.403   -21380.152    1615.4348   -22995.587    60.697104    243.13364 
   13750    107.48879   -332.88077    86438.816   -21375.407    1598.4939   -22973.901    60.791089    240.58393 
   13800    107.64026   -146.02183    86483.772   -21429.297    1600.7464   -23030.043    60.894728    240.92295 
   13850     108.9945   -1.0369668    86524.464   -21436.249    1620.8858   -23057.135    61.058413    243.95405 
   13900    108.60038   -213.16459    86575.866   -21431.628    1615.0246   -23046.653    61.277012    243.07191 
   13950    106.92763   -225.15586    86581.246   -21437.296    1590.1488   -23027.444     61.57926    239.32794 
   14000     107.2704   -164.42542    86566.733   -21459.589    1595.2462   -23054.835    61.836231    240.09513 
   14050    106.70003   -564.35669    86488.144   -21506.145     1586.764   -23092.909    61.913331     238.8185 
   14100    103.43884   -105.84765     86445.36   -21489.164    1538.2661    -23027.43    61.972198    231.51924 
   14150    105.24387   -197.78184    86526.193    -21491.24    1565.1091   -23056.349     62.28249    235.55929 
   14200    107.51765   -250.65632    86546.047   -21487.813     1598.923   -23086.736    62.577996    240.64851 
   14250     104.0212   -145.82829     86592.59   -21479.867    1546.9264   -23026.794    62.853104    232.82268 
   14300    106.07861   -184.64056    86552.535   -21454.565    1577.5228   -23032.088    62.769836    237.42763 
   14350    106.85348   -513.84152    86604.672    -21456.53     1589.046   -23045.576    62.954816    239.16196 
   14400    108.77552   -446.25939    86567.733   -21455.322    1617.6291   -23072.951     63.12668    243.46391 
   14450    108.24367   -413.34503    86607.142   -21466.838      1609.72   -23076.557    63.101617    242.27352 
   14500    106.12185   -388.17622    86583.637    -21464.92    1578.1657   -23043.085    63.387934     237.5244 
   14550    104.58007   -419.23429    86582.125   -21491.717    1555.2376   -23046.954     63.64405    234.07357 
   14600    105.83108   -725.11254    86532.142   -21465.844    1573.8416   -23039.685    64.037406    236.87359 
   14650    105.61006   -418.03178    86478.356   -21455.117    1570.5548   -23025.672    64.251266    236.37892 
   14700    109.15342   -114.93406    86521.821   -21422.417     1623.249   -23045.666    64.363165    244.30973 
   14750    111.37899     -309.052    86565.718   -21456.739    1656.3461   -23113.086    64.643604    249.29107 
   14800    108.81982   -411.53032    86545.164   -21492.175    1618.2879   -23110.462    65.075627    243.56306 
   14850    104.36495   -177.81799     86592.94   -21503.246    1552.0385   -23055.285    65.163156    233.59208 
   14900    106.91674   -565.01675    86568.793   -21498.586    1589.9867   -23088.573    65.420736    239.30354 
   14950    109.56376   -238.60167    86577.726   -21469.582    1629.3513   -23098.933    65.636071    245.22817 
   15000     107.0082   -51.545994    86600.182    -21475.33     1591.347   -23066.677    65.681415    239.50827 
   15050    105.03101   -359.83642    86594.552   -21533.497    1561.9435   -23095.441    65.978456    235.08286 
   15100    104.78239   -331.19863    86668.504   -21538.668    1558.2464   -23096.915    65.999033    234.52641 
   15150    108.40434   -680.45308    86651.231   -21537.286    1612.1093   -23149.396    66.109388    242.63314 
   15200    105.57321   -244.20914    86560.396   -21582.381    1570.0067   -23152.387    66.493995    236.29642 
   15250    105.49428   -292.66634    86549.574   -21559.313     1568.833   -23128.146    66.537382    236.11977 
   15300     102.7244   -587.46743    86489.553   -21570.273    1527.6414   -23097.915    66.997475    229.92015 
   15350    106.40697   -350.06577    86522.042   -21527.546    1582.4059   -23109.952    67.392291    238.16258 
   15400      105.052   -122.92347    86576.164   -21531.077    1562.2557   -23093.333    67.497853    235.12984 
   15450    105.70741    -445.0129     86536.01   -21515.993    1572.0026   -23087.996    67.781069    236.59681 
   15500    107.26822    -708.3925    86553.025   -21486.997    1595.2137   -23082.211    68.182812    240.09024 
   15550    106.05385   -607.05732    86555.019   -21480.723    1577.1546   -23057.878    68.351849    237.37222 
   15600    105.71213   -221.20848     86551.44   -21522.512    1572.0727   -23094.585    68.621251    236.60737 
   15650    105.94722    -863.0057     86573.47   -21511.243    1575.5688   -23086.812    68.841075    237.13354 
   15700    106.06262   -319.57379    86576.549    -21532.13     1577.285   -23109.415    68.750588    237.39184 
   15750    108.39638   -329.46553    86664.802   -21470.449    1611.9908    -23082.44    69.170269    242.61531 
   15800    107.83246   -354.23125    86762.188   -21455.271    1603.6047   -23058.876    69.578224    241.35314 
   15850    108.73978   -304.35035    86790.507   -21485.016    1617.0976   -23102.113    69.484377    243.38391 
   15900    109.94797   -300.80671    86750.399   -21425.563     1635.065   -23060.628     69.72868    246.08813 
   15950    107.46199   -336.86046    86782.841   -21447.244    1598.0953   -23045.339     70.08708    240.52393 
   16000    107.13736   -174.31389    86861.498   -21444.988    1593.2676   -23038.255    70.173334    239.79734 
   16050    107.11706   -502.38519    86875.934   -21460.787    1592.9658   -23053.753    70.118205    239.75191 
   16100    106.83459   -517.91854    86804.857   -21452.919    1588.7651   -23041.684     70.15697    239.11968 
   16150    107.73454   -311.90981    86757.211   -21459.037    1602.1485   -23061.186    70.057657    241.13397 
   16200    107.50944   -434.57559    86746.731   -21489.559     1598.801    -23088.36    70.158062    240.63015 
   16250    108.01285   -684.20858    86695.422   -21476.593    1606.2874   -23082.881    70.386009     241.7569 
   16300    106.61713   -263.73921    86610.404   -21483.032    1585.5312   -23068.563    70.748157    238.63295 
   16350    104.99197    -283.0367    86631.114   -21510.069     1561.363   -23071.432    71.068122    234.99549 
   16400    107.75188    -323.3251    86657.306   -21508.137    1602.4064   -23110.543    71.357293    241.17278 
   16450    107.87053   -260.45479    86656.326    -21514.84    1604.1709   -23119.011    71.570747    241.43835 
   16500    106.88054    -413.2235    86629.833   -21536.419    1589.4485   -23125.868    71.890404    239.22253 
   16550    107.64012   -284.92357    86659.195   -21530.877    1600.7443   -23131.621    72.243805    240.92263 
   16600    105.09718   -441.38768    86608.186   -21502.093    1562.9276   -23065.021    72.638292    235.23096 
   16650    107.17736    -163.8684    86653.185   -21447.362    1593.8626   -23041.224    72.910594    239.88689 
   16700    106.75871   -336.68917    86682.151   -21447.534    1587.6367   -23035.171    73.109676    238.94985 
   16750    106.91778   -125.84681    86731.436   -21497.867    1590.0023    -23087.87    73.356574    239.30588 
   16800    106.60934   -355.84146    86723.952   -21514.485    1585.4153     -23099.9     73.59506    238.61551 
   16850    107.93719   -512.10442     86678.77   -21443.465    1605.1621   -23048.627    73.970417    241.58754 
   16900    106.81231   -559.68655    86634.871   -21479.609    1588.4337   -23068.042    74.056933    239.06981 
   16950    108.83736   -541.44304    86612.855   -21473.409    1618.5488   -23091.957    74.211868    243.60233 
   17000    105.83815   -632.11654    86564.689   -21511.412    1573.9467   -23085.359    74.031223    236.88941 
   17050    105.73719   -127.29483    86647.934   -21541.349    1572.4454   -23113.794    74.248777    236.66346 
   17100    107.96494   -325.61635    86700.644   -21528.329    1605.5748   -23133.903    74.358768    241.64965 
   17150    106.21854   -234.16278    86757.728   -21503.306    1579.6036    -23082.91    74.218058    237.74082 
   17200    105.05901   -413.70273    86832.647   -21525.956      1562.36   -23088.316    74.250098    235.14554 
   17250     106.7761   -383.71341    86828.356   -21534.938    1587.8954   -23122.834    74.374672    238.98878 
   17300    105.77699   -445.14687    86765.215   -21523.531    1573.0373   -23096.569    74.686114    236.75254 
   17350    107.55314   -359.74164    86774.788   -21529.881    1599.4508   -23129.332    74.946407    240.72795 
   17400    104.42623   -380.74065    86810.999   -21489.629    1552.9498   -23042.579    75.465367    233.72924 
   17450      107.589   -349.28786    86874.853   -21486.608    1599.9841   -23086.593    76.155169    240.80821 
   17500    109.25523   -230.30203    86928.914   -21446.748     1624.763   -23071.511     76.61864    244.53761 
   17550    108.26247   -265.41725    86899.314   -21412.369    1609.9994   -23022.369    76.930005    242.31559 
   17600    106.89821   -413.35921    86928.684    -21434.21    1589.7112   -23023.921    77.530125    239.26207 
   17650    107.40833   -357.17988    86977.187   -21448.853    1597.2974    -23046.15    77.905892    240.40385 
   17700    110.70442   -518.28293    87032.835   -21468.196    1646.3144    -23114.51    78.168205    247.78123 
   17750    108.28201   -321.11399    87019.853   -21448.474    1610.2901   -23058.765    78.591818    242.35933 
   17800     108.6903   -138.59955    87023.127   -21462.021    1616.3619   -23078.383    78.943781    243.27318 
   17850    110.13846   -166.29226    87132.336   -21406.629    1637.8978   -23044.527     79.30383    246.51448 
   17900    107.65743   -492.05615    87276.151   -21438.786    1601.0018   -23039.788     79.71437    240.96139 
   17950    111.12176   -217.99764    87373.033   -21395.742    1652.5207   -23048.262    79.966994    248.71532 
   18000    108.51799   -535.28307    87402.529   -21415.205    1613.7994   -23029.004    80.073507    242.88751 
   18050     106.2653   -390.77673    87387.681   -21447.584     1580.299   -23027.883    80.015656    237.84547 
   18100    107.66387   -1023.6467     87405.67   -21493.109    1601.0975   -23094.206    80.334773    240.97579 
   18150    106.12215   -365.66784    87273.693   -21483.156    1578.1702   -23061.326    80.442161    237.52508 
   18200    107.63641   -363.35692    87154.124   -21471.431    1600.6892   -23072.121    80.447999    240.91433 
   18250    106.35671   -521.05121    87079.302   -21481.422    1581.6585   -23063.081     80.73853    238.05009 
   18300    105.18655   -535.12562    86979.859   -21461.862    1564.2566   -23026.118    81.155354    235.43099 
   18350    105.37132   -294.28286    87006.718   -21474.314    1567.0045   -23041.319    81.482045    235.84456 
   18400    105.34283   -223.21027    87031.381   -21471.373    1566.5808   -23037.954    81.617083     235.7808 
   18450    105.30248   -406.38906    87031.016   -21446.961    1565.9807   -23012.942    81.700233    235.69047 
   18500    106.47057   -162.78586    87051.323   -21499.751    1583.3517   -23083.103     81.67154    238.30492 
   18550    104.96732   -405.29452    87085.641   -21518.029    1560.9964   -23079.026    82.134798    234.94031 
   18600    105.69943   -365.53201    87050.738   -21507.596    1571.8838    -23079.48    82.851342    236.57894 
   18650    104.05061   -431.97016    87075.852   -21536.863    1547.3638   -23084.227    83.439433    232.88851 
   18700    105.16476   -299.75203    87124.993   -21474.026    1563.9327   -23037.959    83.747371    235.38223 
   18750    106.03903   -616.21681    87075.493    -21462.07    1576.9342   -23039.004    83.922938    237.33905 
   18800     106.9496   -259.65404    87035.251   -21501.938    1590.4754   -23092.413    83.863361     239.3771 
   18850    105.85804   -590.22693    87064.016   -21483.069    1574.2426   -23057.312    84.023461    236.93395 
   18900    109.41644   -452.30634    86971.049   -21493.883    1627.1605   -23121.044    83.746432    244.89844 
   18950    108.65883   -314.31247    86977.126   -21489.605    1615.8938   -23105.499    84.038007    243.20273 
   19000    107.40667   -596.68478    87007.478   -21483.337    1597.2726   -23080.609    84.394381    240.40012 
   19050    104.93327   -742.75251    86939.187   -21493.599      1560.49   -23054.089    84.251784    234.86409 
   19100    109.00676   -425.75068    86922.221   -21477.013     1621.068   -23098.081     84.31206    243.98148 
   19150    105.97735   -698.02125    86891.641   -21489.253    1576.0169    -23065.27    84.701807      237.201 
   19200    107.65608   -691.92211    86932.129    -21487.29    1600.9816   -23088.272    84.880078    240.95835 
   19250    107.95025   -470.17492    86968.874   -21480.473    1605.3564   -23085.829    84.905146    241.61678 
   19300    106.22471   -803.62604    86884.033   -21472.481    1579.6954   -23052.176    85.035825    237.75462 
   19350    106.42802   -534.39863    86840.103   -21454.925     1582.719   -23037.644    85.420233     238.2097 
   19400    108.70542   -606.29855    86798.204   -21455.501    1616.5868   -23072.088    85.756469    243.30703 
   19450    106.68403   -527.44436    86813.372   -21466.837    1586.5261   -23053.363    85.919853    238.78269 
   19500     107.1222    -640.1056    86708.575   -21473.964    1593.0423   -23067.006     85.93092    239.76342 
   19550    107.98562   -570.07593    86622.971   -21450.572    1605.8824   -23056.455    85.883374    241.69594 
   19600    106.51976   -266.07877    86596.099   -21451.019    1584.0832   -23035.103     85.92791    238.41503 
   19650    106.87572   -334.52986    86622.276   -21478.188    1589.3768   -23067.564    86.193021    239.21174 
   19700    106.94085   -188.54188    86594.491   -21481.512    1590.3453   -23071.857    86.671219    239.35752 
   19750    104.48035   -403.74763    86669.895   -21528.333    1553.7545   -23082.088    86.720218    233.85036 
   19800    105.77482   -375.50212    86697.098   -21547.575     1573.005    -23120.58     86.60684    236.74768 
   19850    104.43674   -483.66386    86670.747   -21550.318    1553.1061   -23103.424    86.738736    233.75276 
   19900    107.05089   -193.08858     86643.53   -21505.714    1591.9818   -23097.696    86.750988    239.60381 
   19950     105.6422   -473.22462    86667.563   -21529.135    1571.0328   -23100.168    87.069562    236.45085 
   20000    104.62024   -481.61037    86643.807   -21528.426    1555.8349    -23084.26     87.09156    234.16346 
   20050    105.58798   -156.57281    86713.708    -21498.92    1570.2265   -23069.147    87.213236     236.3295 
   20100    105.87667    -178.1734    86807.721   -21509.348    1574.5196   -23083.868    87.610591    236.97564 
   20150       103.76   -469.69222    86897.965   -21569.357     1543.042   -23112.399    87.732312    232.23805 
   20200    108.52192   -518.56772    86832.483   -21506.006    1613.8579   -23119.864    87.757771    242.89631 
   20250    107.14634   -149.54614    86868.057   -21528.815    1593.4012   -23122.216    88.036303    239.81744 
   20300       106.89   -466.45311    86901.802   -21523.308    1589.5891   -23112.897    88.160527     239.2437 
   20350    108.47392   -355.93707    86925.708   -21510.584    1613.1441   -23123.728    88.159042    242.78888 
   20400    107.01241   -120.57797    86899.845   -21483.442    1591.4096   -23074.851    88.493219    239.51769 
   20450    108.53491   -296.21373    86957.051   -21473.261     1614.051   -23087.312    88.741902    242.92537 
   20500    109.69464   -504.37127    86993.631   -21488.212    1631.2977    -23119.51    88.982739    245.52112 
   20550    104.65748   -424.97963    86985.998   -21550.807    1556.3888   -23107.195    89.051455    234.24683 
   20600    101.99589   -340.90942    86987.434   -21557.549    1516.8076   -23074.357    89.515092     228.2896 
   20650    106.69833    -267.8073    87079.903   -21552.691    1586.7387    -23139.43    89.862806    238.81469 
   20700     104.9447   -269.26112    87119.304   -21540.976    1560.6601   -23101.636    90.067802    234.88969 
   20750    107.12343   -269.79065    87047.936   -21556.883    1593.0605   -23149.944    90.108532    239.76617 
   20800    105.20735   -508.08831    87078.336   -21562.705    1564.5659   -23127.271    90.205924    235.47754 
   20850    106.38042   -341.57042    87071.729   -21564.655    1582.0111   -23146.666    90.370088    238.10316 
   20900     108.1723   -284.95509    86973.658   -21557.924    1608.6586   -23166.582    90.395875    242.11378 
   20950     105.5537   -311.78646    86952.784   -21578.724    1569.7167   -23148.441    90.426969    236.25277 
   21000    104.81442   -305.84926    86974.104   -21586.797    1558.7227    -23145.52     90.43919     234.5981 
   21050    107.80077   -184.30441    87004.475   -21546.318    1603.1334   -23149.451    90.640604     241.2822 
   21100    106.97896    -236.0227    87002.228   -21476.591    1590.9121   -23067.503    90.917543    239.44282 
   21150    108.61001   -125.78814    86938.335   -21456.083    1615.1679   -23071.251    90.791396    243.09348 
   21200    105.42185   -190.14093    87002.986   -21440.661    1567.7559   -23008.417    90.788017    235.95765 
   21250    107.64939   -188.43445    87069.449   -21469.373    1600.8823   -23070.256    90.806524    240.94339 
   21300    105.93881   -435.81054     87028.53   -21453.003    1575.4437   -23028.446    90.769142    237.11472 
   21350    106.15636   -534.29194    87046.573   -21464.462    1578.6789   -23043.141    91.030155    237.60165 
   21400    106.46957   -532.76424    87053.227   -21438.324    1583.3368   -23021.661    91.145991    238.30269 
   21450    105.56519   -447.98293    87080.003   -21439.627    1569.8875   -23009.515    91.276376    236.27848 
   21500    108.90428   -707.92785    87064.183   -21399.671     1619.544   -23019.215     91.54765     243.7521 
   21550    105.61982   -629.73927    87020.052   -21459.142    1570.6999   -23029.842    91.907863    236.40075 
   21600    107.83793   -498.08055    86948.856   -21422.856     1603.686   -23026.542    91.857426    241.36537 
   21650    105.25151   -440.93418     86838.06   -21433.223    1565.2228   -22998.446    91.773298     235.5764 
   21700    106.35281   -963.45757    86703.566   -21472.634    1581.6005   -23054.235    91.865292    238.04136 
   21750    105.42671   -421.00127    86544.953   -21441.784    1567.8281   -23009.612    91.962091    235.96852 
   21800    104.74438   -292.00644    86508.375   -21458.454    1557.6811   -23016.135    92.325409    234.44133 
   21850    107.06526    -522.8644    86492.885    -21424.21    1592.1955   -23016.405     92.47641    239.63598 
   21900    109.01926   -396.15081    86513.004   -21358.546    1621.2538     -22979.8    92.559398    244.00945 
   21950    110.54831   -559.95731    86516.862   -21341.171    1643.9928   -22985.164    92.809292    247.43182 
   22000     107.9693   -445.16378     86455.82   -21361.727    1605.6397   -22967.367    93.089013    241.65942 
   22050    108.00439   -449.07893    86460.903   -21379.484    1606.1614   -22985.645    93.496137    241.73795 
   22100    108.80017   -475.90977    86417.853   -21386.239    1617.9957   -23004.235     93.77827    243.51908 
   22150    108.38187   -415.32881    86336.752   -21358.415    1611.7751    -22970.19    93.952203    242.58284 
   22200    106.45884   -394.69643    86315.278   -21361.837    1583.1773   -22945.014    94.004281    238.27868 
   22250    105.96557   -253.21072    86299.337   -21420.725    1575.8417   -22996.567    93.986505    237.17462 
   22300    106.43113   -455.04183    86283.591   -21416.371    1582.7651   -22999.136    94.057835    238.21664 
   22350    107.73869   -288.36045    86276.055   -21432.269    1602.2102   -23034.479    94.117107    241.14325 
   22400      106.472    -99.52052    86270.882   -21406.556    1583.3729   -22989.929    94.348194    238.30811 
   22450    108.11018    -35.29282    86258.434    -21367.01    1607.7348   -22974.745    94.752114    241.97474 
   22500    108.58211   -285.64373    86254.977   -21357.641    1614.7529   -22972.394    95.182868    243.03102 
   22550    104.55971   -282.79192    86298.208   -21361.772    1554.9348   -22916.706    95.460565    234.02799 
   22600    108.59986   -435.15253     86312.53   -21374.565    1615.0169   -22989.582    95.610826    243.07075 
   22650    108.16241   -296.76784    86361.954   -21405.539    1608.5115   -23014.051    95.852447    242.09165 
   22700    111.35838   -592.76318     86375.49   -21415.137    1656.0396   -23071.177     95.68582    249.24493 
   22750    108.87007   -430.90257    86294.803   -21419.516    1619.0353   -23038.552    95.897191    243.67555 
   22800    107.75238   -343.80688    86292.028   -21395.496    1602.4138    -22997.91    95.974752     241.1739 
   22850    109.65994   -485.44123    86313.442   -21403.382    1630.7816   -23034.164    96.114062    245.44344 
   22900    110.06642   -239.12201    86325.964   -21377.326    1636.8266   -23014.153    96.294089    246.35325 
   22950    108.17746   -516.75867    86333.151   -21365.316    1608.7352   -22974.052    96.307177    242.12531 
   23000    106.56897   -407.74061    86240.515   -21382.436     1584.815   -22967.251    96.456377    238.52517 
   23050    107.37085   -441.89211    86253.867   -21394.556      1596.74   -22991.296    97.008374    240.31995 
   23100    108.43735   -202.64602    86236.168   -21415.559    1612.6001   -23028.159    97.209932    242.70701 
   23150     106.0554   -141.77781    86277.224   -21430.461    1577.1776   -23007.639    97.349038    237.37569 
   23200    108.03592   -306.91128    86287.231   -21394.502    1606.6304   -23001.132    97.753418    241.80852 
   23250    106.17316   -331.21179    86323.866   -21413.474    1578.9289   -22992.403    98.265762    237.63926 
   23300    108.78799   -16.528002     86403.43    -21380.27    1617.8146   -22998.084     98.29782    243.49182 
   23350    106.07684    162.72369     86442.03   -21382.591    1577.4964   -22960.087    98.513139    237.42366 
   23400    108.29717   -347.13805    86472.364   -21410.084    1610.5155   -23020.599    98.910145    242.39327 
   23450    107.38312    27.153117    86523.114   -21433.959    1596.9224   -23030.881    99.184137    240.34741 
   23500     110.3416   -511.51603     86482.29   -21421.024    1640.9187   -23061.943    99.362519    246.96915 
   23550    106.95991   -429.77439    86492.628   -21456.782    1590.6288   -23047.411     99.45276    239.40018 
   23600    106.90744   -453.95118    86542.043   -21423.963    1589.8485   -23013.812    99.766106    239.28275 
   23650    106.99563   -514.91832    86526.749   -21461.476      1591.16   -23052.636      100.191    239.48012 
   23700    106.31843    -241.8785    86514.967   -21457.352    1581.0892   -23038.441    100.61209    237.96441 
   23750    107.38183   -316.02281    86525.505    -21432.26    1596.9032   -23029.163    100.80194    240.34452 
   23800    108.42125    37.760854    86612.295   -21405.728    1612.3607   -23018.089    100.88934    242.67098 
   23850    109.77909   -165.51188    86768.592   -21384.131    1632.5536   -23016.685    101.13665    245.71014 
   23900     107.8648   -206.23523    86756.002   -21420.968    1604.0856   -23025.054    101.38928    241.42552 
   23950    109.84878   -372.81896    86774.317   -21380.545    1633.5899   -23014.135    102.07587    245.86611 
   24000    110.82705   -716.46061    86727.032   -21407.851     1648.138   -23055.989    102.30643    248.05569 
   24050    107.08571   -475.41457    86629.464   -21392.459    1592.4996   -22984.959    102.86284    239.68174 
   24100    109.36615   -147.42827    86582.249   -21393.955    1626.4126   -23020.367    103.35345    244.78587 
   24150    105.32147   -908.56178    86535.014   -21430.442    1566.2631   -22996.705    103.39854    235.73298 
   24200    109.13259   -623.83121    86501.596   -21395.041    1622.9392    -23017.98    103.58846    244.26311 
   24250    108.19997   -353.79855     86544.61   -21394.693      1609.07   -23003.763    104.41732     242.1757 
   24300     105.0218   -888.49844    86548.919   -21445.467    1561.8066   -23007.274    104.40964    235.06225 
   24350    107.34127   -395.69377    86510.355   -21449.687    1596.3001   -23045.987    104.59795    240.25374 
   24400    105.84573   -592.24192    86542.063    -21436.08    1574.0595    -23010.14    104.81745    236.90639 
   24450    108.15165   -94.042466    86539.577   -21413.759    1608.3514   -23022.111     105.0191    242.06755 
   24500    103.84074   -333.54233    86505.029   -21439.679    1544.2428   -22983.922    105.25807    232.41877 
   24550    105.79375   -837.08529    86452.545   -21414.902    1573.2864   -22988.189    105.44289    236.79004 
   24600    106.06054   -277.51903     86394.72   -21426.635     1577.254   -23003.889    105.57892    237.38719 
   24650    107.78791   -273.54695    86362.011   -21407.701    1602.9422   -23010.643    105.59033    241.25343 
   24700    109.34054    -274.0643    86363.473   -21436.997    1626.0318   -23063.029    105.46818    244.72856 
   24750    104.25177    -286.0679    86421.875   -21493.274    1550.3553   -23043.629    105.74464    233.33876 
   24800    105.37175   -31.746756    86379.587    -21450.76    1567.0109   -23017.771    105.80508    235.84552 
   24850    105.33374   -266.94683    86401.892   -21456.964    1566.4455    -23023.41    106.33384    235.76044 
   24900    104.48639   -586.43029    86355.204   -21462.786    1553.8444    -23016.63    106.44913    233.86388 
   24950    106.53346   -569.25747    86390.792    -21461.37     1584.287   -23045.657    106.58714    238.44569 
   25000    106.85192   -368.58482    86377.054   -21449.131    1589.0228   -23038.153     106.8049    239.15847 
   25050    108.60398   -246.96315     86427.26    -21443.86    1615.0782   -23058.938     106.6635    243.07998 
   25100    107.42488   -339.64324    86477.375   -21418.182    1597.5435   -23015.725    106.61213    240.44089 
   25150    106.81322    38.799287    86512.553   -21425.005    1588.4472   -23013.453    106.73019    239.07184 
   25200     107.6453   -147.58588    86533.264   -21441.369    1600.8214   -23042.191    107.18377    240.93423 
   25250    108.19819   -226.43357     86594.03   -21442.005    1609.0436   -23051.049    107.33812    242.17172 
   25300    105.84877   -216.27161    86595.641   -21398.849    1574.1047   -22972.953    107.44407    236.91319 
   25350    108.44608   -562.23651    86637.546   -21394.393      1612.73   -23007.123    107.68889    242.72655 
   25400     108.9414   -392.50931    86621.084   -21417.423     1620.096   -23037.519    107.82279    243.83519 
   25450    107.66686   -447.70611    86652.005   -21389.192     1601.142   -22990.334    107.95749    240.98248 
   25500    110.66388     -493.198    86586.841   -21400.598    1645.7114   -23046.309    108.05883    247.69048 
   25550    105.77972    -484.2812    86500.537   -21433.682    1573.0779    -23006.76    108.26284    236.75865 
   25600    108.56253   -462.84527    86509.401   -21427.454    1614.4617   -23041.916    108.55011     242.9872 
   25650    108.26471   -362.71956    86479.667   -21456.866    1610.0327   -23066.898    108.37405     242.3206 
   25700    105.58113    -313.6935    86512.202   -21440.661    1570.1246   -23010.785    108.57244    236.31416 
   25750      107.954     -406.697    86499.956   -21421.064    1605.4122   -23026.476    108.87102    241.62518 
   25800    106.77782   -357.17269    86491.426   -21425.258    1587.9208   -23013.179    109.41841    238.99261 
   25850    107.01645      -314.54    86483.703   -21430.324    1591.4696   -23021.793    109.53514    239.52673 
   25900    105.54705   -648.09554    86418.114   -21444.648    1569.6178   -23014.265    109.72019    236.23788 
   25950    108.06763    -165.4175    86401.158   -21376.532     1607.102   -22983.634    109.76309     241.8795 
   26000    110.63778   -391.07209    86445.992   -21412.569    1645.3233   -23057.892    110.23997    247.63206 
   26050     107.4689   -275.33535     86435.69   -21413.431    1598.1981   -23011.629    110.39752    240.53941 
   26100    107.57228   -414.53114    86523.934   -21404.358    1599.7354   -23004.094    110.30981    240.77079 
   26150    104.63953   -514.62122     86465.64   -21409.617    1556.1218   -22965.739    110.23168    234.20664 
   26200    106.38988   -697.07223    86479.889   -21398.456    1582.1517   -22980.608    110.48001    238.12432 
   26250     107.5128   -744.39556    86403.455   -21445.359     1598.851    -23044.21    110.87191    240.63767 
   26300    106.46447   -341.58347    86327.227   -21455.904     1583.261   -23039.165    110.79433    238.29127 
   26350    108.04993   -174.62463    86319.569    -21468.33    1606.8388   -23075.169    111.12849    241.83989 
   26400    102.85221   -389.79165     86319.52   -21461.733     1529.542   -22991.275    111.02855    230.20621 
   26450    106.60715   -187.80331    86299.666    -21516.08    1585.3828   -23101.463    111.05207    238.61061 
   26500    105.83522   -24.143993    86339.929     -21510.7    1573.9033   -23084.603    111.30227    236.88288 
   26550    105.81848   -271.86203    86409.148   -21518.517    1573.6543   -23092.171    111.41804     236.8454 
   26600    104.18202   -457.84474    86505.295   -21513.928    1549.3181   -23063.246    111.85904    233.18264 
   26650    104.61709   -697.54789    86470.113   -21506.666    1555.7881   -23062.454    112.00002    234.15643 
   26700    104.99461   -512.34513    86487.523   -21509.109    1561.4023   -23070.512    112.71067    235.00139 
   26750    104.91644   -374.88408    86465.306   -21489.655    1560.2397   -23049.895    112.91112    234.82643 
   26800    103.66055   -447.62531    86452.464   -21496.831    1541.5631   -23038.394    113.09795    232.01547 
   26850    106.51067   -185.38548    86375.362   -21482.757     1583.948   -23066.705    113.35697    238.39467 
   26900    107.82428   -100.49609    86355.469   -21492.476    1603.4831   -23095.959     113.5489    241.33484 
   26950    108.76313   -357.22844    86387.405   -21437.624    1617.4449   -23055.069       113.89    243.43618 
   27000    107.03954   -189.84249    86327.804   -21485.267     1591.813    -23077.08    114.03316     239.5784 
   27050    107.17943   -561.73389     86332.54   -21487.066    1593.8933    -23080.96    114.35737     239.8915 
   27100    105.73305   -271.18238    86287.447   -21510.789    1572.3838   -23083.172    114.11796    236.65419 
   27150    107.56039    -293.8175    86333.254   -21469.951    1599.5587    -23069.51    114.55354    240.74419 
   27200     107.7561    -282.3116    86477.735   -21465.316    1602.4691   -23067.785    114.96045    241.18222 
   27250    109.10322   -227.96161    86500.307   -21415.557    1622.5025   -23038.059    115.16934    244.19738 
   27300    108.41735   -294.86036    86565.721   -21408.079    1612.3028   -23020.382    115.85328    242.66226 
   27350    109.77897   -280.05698    86572.932   -21425.779    1632.5518    -23058.33    115.92064    245.70987 
   27400    107.06768    -370.2028    86542.218   -21435.658    1592.2315    -23027.89     116.0757     239.6414 
   27450    106.19842   -431.81327    86552.647    -21435.45    1579.3045   -23014.754    116.34472     237.6958 
   27500    106.61023   -458.70012    86599.071    -21445.33    1585.4286   -23030.758    116.31762    238.61751 
   27550    107.19317   -448.25306    86615.791   -21440.333    1594.0976   -23034.431    116.83727    239.92226 
   27600    110.96026   -445.16799    86670.196    -21436.55    1650.1191   -23086.669    116.75047    248.35386 
   27650    107.36261   -353.60215    86646.152   -21446.353    1596.6174   -23042.971    116.91576    240.30151 
   27700    107.15118   -318.57195    86653.145   -21461.845    1593.4732   -23055.318    116.95996    239.82828 
   27750    107.46574   -369.88447     86674.63   -21429.905    1598.1511   -23028.056    116.99267    240.53233 
   27800    107.23955   -749.69629    86712.012   -21466.101    1594.7874   -23060.889     116.7667    240.02607 
   27850    106.17321   -439.66411    86673.429   -21456.622    1578.9295   -23035.551    116.80622    237.63936 
   27900    108.05524    -152.9639    86724.622   -21451.331    1606.9178   -23058.249    117.31443    241.85178 
   27950    106.59542   -474.38204    86694.431   -21506.667    1585.2084   -23091.876    117.80319    238.58437 
   28000    104.84256   -506.07641    86654.953   -21529.008    1559.1411   -23088.149     118.0914    234.66106 
   28050     106.0842   -375.12485    86590.354     -21532.8    1577.6059   -23110.406    118.21952    237.44015 
   28100    104.82572   -280.40974    86510.245   -21565.842    1558.8907   -23124.733    118.82644    234.62338 
   28150    107.58116    -119.2878     86558.78    -21551.74    1599.8675   -23151.607    118.71181    240.79066 
   28200    103.70194   -52.771045    86618.124    -21587.16    1542.1787   -23129.339    119.29106    232.10812 
   28250    103.00073   -314.23504    86628.051   -21577.278    1531.7508   -23109.029    119.64459    230.53865 
   28300    106.79399   -412.66019    86664.906   -21557.825    1588.1613   -23145.987     119.5072    239.02881 
   28350    104.97276   -580.17719    86654.399   -21534.439    1561.0774   -23095.517    119.99918    234.95249 
   28400    101.18528   -667.51311     86628.18    -21542.78    1504.7528   -23047.533    120.11818    226.47527 
   28450    106.93453   -216.87549    86657.553   -21513.914    1590.2513   -23104.165    120.44835    239.34336 
   28500    105.63314   -760.20803    86672.816   -21499.515     1570.898   -23070.413    120.91719    236.43056 
   28550    102.40859   -619.34767    86630.055   -21500.779    1522.9449   -23023.724    121.02792     229.2133 
   28600    105.06186    -898.6857    86515.916   -21481.988    1562.4024    -23044.39    120.82103    235.15191 
   28650    108.26514   -452.88411    86425.694    -21466.08    1610.0392   -23076.119    120.90558    242.32158 
   28700    106.92091    57.711621    86369.642   -21461.955    1590.0488   -23052.004    120.98992    239.31289 
   28750    104.44709   -480.26232    86302.073   -21497.451      1553.26   -23050.711     120.8044    233.77592 
   28800    107.16309     -397.232     86260.09   -21472.746    1593.6503   -23066.397    120.69295    239.85493 
   28850    105.80543   -444.67354     86269.57   -21472.667    1573.4602   -23046.127    120.94944    236.81619 
   28900    104.16931   -503.34482    86257.588    -21472.07     1549.129   -23021.199    120.97468    233.15418 
   28950    108.23857   -481.08019    86228.645   -21465.986     1609.644    -23075.63    120.85811     242.2621 
   29000    107.93735   -351.64642    86272.819   -21449.744    1605.1646   -23054.909     121.1258    241.58791 
   29050    107.42843   -317.20511    86363.094   -21465.165    1597.5962   -23062.761    121.35916    240.44883 
   29100    107.26054   -528.06676    86359.838   -21498.361    1595.0995    -23093.46    121.37707    240.07305 
   29150    106.51352   -72.881121     86397.69   -21514.654    1583.9904   -23098.645    121.73413    238.40105 
   29200     106.9608   -54.756921    86477.577   -21504.367     1590.642   -23095.009    122.14828    239.40217 
   29250    108.23617   -302.93501    86495.583   -21508.013    1609.6084   -23117.622    122.04919    242.25674 
   29300    108.57107   -19.920499    86529.197   -21471.615    1614.5888   -23086.204    122.02315    243.00632 
   29350    112.83849   -285.41796     86585.11   -21430.422    1678.0507   -23108.473     122.4224    252.55776 
   29400    109.43764   -164.80711    86646.508   -21428.905    1627.4758    -23056.38    122.85703    244.94589 
   29450    110.13645    -332.0023    86614.164   -21462.745    1637.8679   -23100.613    123.16892    246.50998 
   29500    105.51751   -404.80508     86673.79    -21457.31    1569.1785   -23026.488    123.50018    236.17177 
   29550    109.74078   -205.46635    86695.402   -21466.944    1631.9838   -23098.928    123.54995    245.62438 
   29600    109.85097   -282.47345    86697.792   -21457.736    1633.6224   -23091.359    123.80783      245.871 
   29650    107.93322   -549.83224    86638.654   -21439.049    1605.1031   -23044.152    124.12471    241.57865 
   29700    109.51796   -450.08416    86613.554    -21419.61    1628.6703    -23048.28    123.94663    245.12567 
   29750    109.06192   -181.07299    86643.866   -21382.826    1621.8882   -23004.714    124.38949    244.10493 
   29800    110.43124   -122.51761     86660.31   -21442.069    1642.2518   -23084.321    124.63846    247.16979 
   29850    109.68831    -272.6218    86656.958   -21407.205    1631.2036   -23038.409    124.67273    245.50695 
   29900    109.98403   -444.93471    86659.732   -21405.625    1635.6013   -23041.226    124.75863    246.16883 
   29950    110.10894   -243.29816    86736.365   -21387.401    1637.4588    -23024.86    125.05396     246.4484 
   30000     107.3816   -185.36902    86768.523   -21389.164    1596.8999   -22986.064    125.30364    240.34402 
   30050    108.64976   -488.96827    86854.497   -21387.174     1615.759   -23002.933    125.53676    243.18244 
   30100     110.6599   -374.78331    86908.346    -21375.48    1645.6522   -23021.132    126.04134    247.68157 
   30150    109.56938   -403.82987    86930.401   -21357.746    1629.4348   -22987.181    126.14087    245.24074 
   30200    109.69419    -185.0259    86925.465   -21408.755     1631.291   -23040.046    126.10613     245.5201 
   30250    109.43413   -548.87773    86924.926   -21412.649    1627.4236   -23040.073     126.6498    244.93804 
   30300    108.65231   -365.85686    86957.619   -21379.042    1615.7968   -22994.838    126.54381    243.18814 
   30350    109.29687   -455.54728    86984.842   -21384.501    1625.3823   -23009.883    126.64171    244.63081 
   30400    108.91568   -805.37298    86921.617   -21415.063    1619.7136   -23034.776    126.91806    243.77764 
   30450    110.16413   -424.59439    86898.708    -21402.75    1638.2796    -23041.03    126.98893    246.57194 
   30500     106.1463   -595.81955    86864.365   -21468.919    1578.5294   -23047.448    127.10362    237.57913 
   30550    107.07317   -489.64977    86790.582   -21439.411    1592.3131   -23031.724    127.41792    239.65368 
   30600    106.57722   -209.32904    86735.197   -21406.991    1584.9377   -22991.928    127.73911    238.54363 
   30650    106.35842   -350.78986    86611.425   -21395.017    1581.6839   -22976.701    127.63877    238.05391 
   30700    110.75497   -443.95317    86539.339   -21390.352    1647.0661   -23037.418    127.68984    247.89437 
   30750    110.80062    -554.7513    86540.258   -21365.029     1647.745   -23012.774    128.57747    247.99655 
   30800    109.05907   -177.89054    86579.754   -21369.637     1621.846   -22991.483    128.83025    244.09858 
   30850    108.73996   -422.41403    86645.382    -21398.14    1617.1003   -23015.241    129.10657    243.38432 
   30900    108.31992   -64.073137    86633.093   -21389.714    1610.8538   -23000.567     129.4989    242.44417 
   30950    107.15973   -205.23903    86643.307   -21388.355    1593.6003   -22981.955    129.38439    239.84742 
   31000    110.86633   -420.51571    86616.666   -21387.646    1648.7222   -23036.368    129.36809    248.14362 
   31050    110.16638   -494.43357    86640.207   -21384.803     1638.313   -23023.116    129.38242    246.57697 
   31100    108.68602   -397.04248    86620.516   -21394.096    1616.2981   -23010.394    129.53822    243.26358 
   31150    108.36724    -251.3551    86684.724   -21411.948    1611.5575   -23023.506    129.45659    242.55009 
   31200    107.21078    -273.2758    86629.691   -21417.048    1594.3596   -23011.407    129.63316    239.96168 
   31250    106.80781   -524.82873    86638.987   -21418.938    1588.3669   -23007.305    129.57525    239.05974 
   31300    108.94981    33.567693    86641.525   -21420.335    1620.2211   -23040.556    129.58799    243.85401 
   31350    106.86267   -272.59151    86697.774   -21420.482    1589.1827   -23009.664    130.09188    239.18253 
   31400    106.94406   -478.50699    86722.323   -21419.844     1590.393   -23010.237     130.1927    239.36469 
   31450    108.09746   -405.77192    86680.837   -21441.247    1607.5456   -23048.792    130.25916    241.94626 
   31500    108.50751    -450.3183    86727.728    -21438.35    1613.6435   -23051.993    130.77978    242.86405 
   31550    107.58567   -604.61349    86713.319     -21402.3    1599.9345   -23002.235    131.19058    240.80076 
   31600    110.51785   -156.16877    86673.684   -21416.372    1643.5398   -23059.912    131.49435    247.36363 
   31650    107.96095    -310.3817    86740.056    -21407.63    1605.5154   -23013.145    131.92656    241.64072 
   31700    108.55866   -536.28524    86653.993   -21422.646    1614.4043    -23037.05    132.34293    242.97854 
   31750    108.33157   -483.63587    86649.036   -21401.265     1611.027   -23012.292    131.98966    242.47025 
   31800    111.95261   -356.19475    86678.214   -21350.114    1664.8765   -23014.991    132.45954    250.57495 
   31850    108.42405   -510.69148    86620.576    -21353.48    1612.4023   -22965.882    132.66529    242.67724 
   31900    111.53924   -127.92956    86649.855   -21328.951    1658.7293    -22987.68    132.80501    249.64975 
   31950    110.50919   -808.98335    86634.058   -21368.576     1643.411   -23011.987    133.31799    247.34426 
   32000    108.84887   -263.97981     86614.08   -21398.999    1618.7201   -23017.719     133.4339     243.6281 
   32050    108.61317   -394.49114    86554.981   -21431.276    1615.2149   -23046.491    133.55156    243.10055 
   32100    103.18915   -219.57152     86599.95   -21477.401    1534.5528   -23011.954    133.75631    230.96038 
   32150    109.58942   -437.65737    86609.388   -21428.417     1629.733    -23058.15    134.11056    245.28562 
   32200    108.05097   -24.045004    86612.144   -21431.927    1606.8542   -23038.781    134.00839     241.8422 
   32250    108.56632   -275.36983    86659.783   -21409.535    1614.5182   -23024.053    133.81025    242.99569 
   32300    111.27631   -255.14482    86729.551   -21442.573    1654.8192   -23097.392    134.09858    249.06125 
   32350    107.90944   -538.42725    86746.277   -21445.905    1604.7496   -23050.655     134.1872    241.52545 
   32400    106.46223   -482.54592    86736.898    -21486.22    1583.2276   -23069.447    134.09118    238.28625 
   32450    108.66333    -464.1343    86745.384   -21475.741    1615.9607   -23091.702    134.46439     243.2128 
   32500    105.96475   -290.75749    86717.205   -21464.969    1575.8294   -23040.798    134.68236    237.17278 
   32550    106.26651   -301.78302    86745.014   -21491.231     1580.317   -23071.548    134.48675    237.84819 
   32600    107.55153   -386.94521    86730.514   -21482.124     1599.427   -23081.551    134.58397    240.72436 
   32650    108.94261   -140.50489    86696.343   -21464.118     1620.114   -23084.232    134.66027     243.8379 
   32700    105.04922   -344.13619     86642.07   -21466.021    1562.2144   -23028.235    134.97831    235.12362 
   32750    106.61878   -330.91577     86607.41   -21514.055    1585.5557   -23099.611    135.70928    238.63665 
   32800    108.16159   -649.09299    86599.733   -21486.352    1608.4993   -23094.852    135.96287    242.08981 
   32850    105.49463   -324.63306    86565.569   -21474.601    1568.8383    -23043.44    135.85604    236.12056 
   32900    105.41213   -682.97201    86513.331   -21454.269    1567.6113    -23021.88    135.66866    235.93589 
   32950    106.89008   -185.61232    86494.236   -21490.364    1589.5903   -23079.954    136.07043    239.24388 
   33000    106.00169    -656.1981    86467.357   -21489.129    1576.3788   -23065.508    136.33826    237.25546 
   33050    108.76387   -176.50475    86400.802   -21459.177     1617.456   -23076.633    136.29341    243.43784 
   33100    108.81966   -440.90744    86386.958   -21476.317    1618.2856   -23094.603    136.31652     243.5627 
   33150    104.73102   -430.60733    86371.307   -21489.516    1557.4824   -23046.999     136.1726    234.41142 
   33200    109.08613   -467.17422    86351.989   -21440.132    1622.2483    -23062.38    136.16069    244.15912 
   33250    106.35056   -652.09963     86332.11   -21419.503    1581.5669    -23001.07    136.37621    238.03631 
   33300    108.14131   -823.36206    86322.937   -21417.616    1608.1978   -23025.814    136.34587    242.04442 
   33350    108.23034    -490.4264    86294.544   -21457.466    1609.5216   -23066.987    136.33449    242.24368 
   33400    104.27076   -953.29242    86237.148   -21471.219    1550.6377   -23021.857    136.57537    233.38126 
   33450    105.13417   -359.39098    86177.757   -21489.634    1563.4777   -23053.112     136.8719    235.31376 
   33500    108.16296   -420.59028    86125.867   -21441.741    1608.5196   -23050.261     137.2469    242.09287 
   33550     106.3683    -308.8991    86094.831   -21441.298    1581.8308   -23023.129    137.20863    238.07603 
   33600    106.20327   -359.13898    86108.876   -21456.514    1579.3766   -23035.891    137.07414    237.70665 
   33650    106.25875   -265.91745    86136.394   -21459.892    1580.2016   -23040.094    136.68731    237.83082 
   33700    106.99551    -694.6042    86153.546   -21484.178    1591.1582   -23075.337    136.64414    239.47986 
   33750    104.74471   -53.142665    86127.007   -21503.636    1557.6859   -23061.322    137.02111    234.44206 
   33800    105.98813   -327.60811    86114.978   -21548.503    1576.1772   -23124.681    137.15729    237.22512 
   33850    104.55043    94.309931    86125.352   -21557.505    1554.7967   -23112.301    137.12787    234.00721 
   33900    106.28486   -286.66516    86176.831   -21559.766    1580.5899   -23140.356    137.72204    237.88926 
   33950     107.6025   -106.78925    86197.131   -21522.198    1600.1848   -23122.383    137.78979    240.83843 
[...]
   92000    107.64235    -627.8508    86537.905   -21510.556    1600.7775   -23111.334    384.32618    240.92762 
   92050    103.97502   -404.07116     86592.41   -21540.468    1546.2398   -23086.708    384.20949    232.71933 
   92100    105.53168   -317.92283    86555.924   -21500.012    1569.3892   -23069.401    384.26229    236.20348 
   92150    105.86633   -491.12093     86575.11   -21494.175    1574.3659   -23068.541    384.27269    236.95251 
   92200    106.55357   -654.69946    86570.407   -21483.915     1584.586   -23068.501    384.45528     238.4907 
   92250    107.29649   -507.90488    86573.001   -21446.532    1595.6341   -23042.166    384.59433    240.15351 
   92300    108.79534   -308.36332     86538.69   -21458.053     1617.924   -23075.977    384.62857    243.50828 
   92350    106.83679   -464.63025      86441.9    -21486.18    1588.7978   -23074.978    384.85408     239.1246 
   92400    107.43205   -208.56669    86449.048   -21524.212    1597.6501   -23121.862     384.6214    240.45693 
   92450    106.51781   -244.65128    86434.905   -21469.278    1584.0543   -23053.333    385.81176    238.41067 
   92500    109.50172   -284.80031    86418.263   -21441.108    1628.4286   -23069.536    385.89158     245.0893 
   92550    109.35066   -500.86975    86479.947   -21451.458    1626.1822    -23077.64    385.69467     244.7512 
   92600    108.33787   -204.64656    86488.964   -21447.457    1611.1207   -23058.578    386.71331    242.48435 
   92650    105.71932   -257.66652    86534.856    -21488.16    1572.1797    -23060.34    386.91572    236.62347 
   92700    110.30253   -290.19807     86599.01   -21465.389    1640.3377   -23105.726    386.83208     246.8817 
   92750    105.02379   -146.43277    86635.529   -21475.581    1561.8362   -23037.417    387.59201     235.0667 
   92800    103.66068   -139.78575    86698.911   -21501.144    1541.5651   -23042.709    387.91539    232.01576 
   92850    107.05896   -222.22168    86668.715   -21489.938    1592.1017    -23082.04    387.81956    239.62186 
   92900    106.80627   -504.27886    86688.338   -21464.553    1588.3439   -23052.897    388.55453    239.05629 
   92950    107.32233   -629.19502    86675.989    -21496.66    1596.0184   -23092.679    388.56023    240.21135 
   93000    105.34966   -521.42607    86660.052   -21447.419    1566.6823   -23014.101    388.10194    235.79607 
   93050    106.37285   -457.13475    86613.644   -21453.602    1581.8985   -23035.501     388.2131    238.08621 
   93100    106.16759   -97.238553      86620.1   -21420.818     1578.846   -22999.664    387.95649    237.62679 
   93150    105.03896   -302.70862    86612.952   -21475.642    1562.0618   -23037.704    387.70933    235.10066 
   93200    106.15181   -297.84621    86631.333   -21473.136    1578.6113   -23051.748    387.25466    237.59147 
   93250     105.3743   -334.55035    86601.329   -21478.755    1567.0488   -23045.804    386.93612    235.85123 
   93300    106.84407   -346.43853    86563.834   -21453.438    1588.9061   -23042.344    386.72838    239.14091 
   93350    108.30769   -736.77873    86562.707   -21423.023     1610.672   -23033.695    386.07036    242.41681 
   93400     109.0778   -409.15199    86579.749   -21345.921    1622.1245   -22968.046    387.49305    244.14049 
   93450    110.64378   -253.39575    86624.096   -21354.402    1645.4125   -22999.814    387.78291     247.6455 
   93500      109.634   -665.05877    86672.984   -21343.087    1630.3959   -22973.483     388.5142     245.3854 
   93550    107.43887   -544.68258     86719.98   -21360.676    1597.7515   -22958.428    389.02831    240.47219 
   93600    108.94418   -319.26325    86738.772   -21389.906    1620.1374   -23010.043    389.00357    243.84142 
   93650    105.31811   -255.87026    86804.162   -21369.543    1566.2132   -22935.756    389.66647    235.72546 
   93700     108.3513   -373.60244    86814.396   -21356.382    1611.3205   -22967.702    389.67578    242.51442 
   93750    106.65011   -788.30279    86793.852   -21364.438    1586.0216    -22950.46     389.6965    238.70677 
   93800    106.47792   -537.46175    86772.667    -21372.04     1583.461   -22955.501    390.14672    238.32137 
   93850    107.28066   -475.33704    86750.616   -21352.576    1595.3987   -22947.975    389.80935    240.11808 
   93900    104.81048   -352.43049    86785.512   -21393.114     1558.664   -22951.778     390.0486    234.58926 
   93950    109.84465   -307.35981    86840.877   -21385.334    1633.5285   -23018.862    389.20058    245.85686 
   94000    107.56359   -365.39486     86829.05   -21383.654    1599.6062    -22983.26    388.39904    240.75134 
   94050    109.86336   -553.14021    86838.121   -21369.847    1633.8067   -23003.654    389.01763    245.89874 
   94100     109.2335    34.667511    86815.162   -21366.624    1624.4399   -22991.064    389.75219    244.48898 
   94150    108.87338   -160.48222    86843.426   -21393.515    1619.0845   -23012.599    389.55637    243.68295 
   94200    107.68764   -358.57548     86892.82   -21387.483     1601.451   -22988.934    390.29455      241.029 
   94250    109.37221   -393.64781    86891.263   -21376.168    1626.5027   -23002.671     390.2997    244.79944 
   94300    106.42382   -592.27452    86851.447   -21423.268    1582.6564   -23005.925    391.24415    238.20028 
   94350    107.56699   -472.35768    86848.351   -21411.293    1599.6569    -23010.95     391.8857    240.75897 
   94400    106.82613   -471.47903    86760.226   -21364.796    1588.6394   -22953.436    392.24792    239.10076 
   94450    109.19587   -673.49062     86649.53   -21366.104    1623.8803   -22989.984    391.77087    244.40475 
   94500    110.83347   -574.06412    86622.546   -21383.716    1648.2334   -23031.949    392.08729    248.07006 
   94550    106.28818   -494.40199    86592.915   -21404.956    1580.6394   -22985.595    392.26577     237.8967 
   94600    105.91724   -341.32144    86612.421   -21419.901    1575.1229   -22995.024     392.0753    237.06644 
   94650    108.98527   -341.79323    86565.906   -21450.978    1620.7484   -23071.727    392.08125    243.93338 
   94700    106.23287    -469.4785    86600.713    -21451.27    1579.8168   -23031.087    392.55392     237.7729 
   94750     106.4823   -98.963074    86607.225   -21469.197    1583.5262   -23052.723    392.05145    238.33118 
   94800    104.72366   -507.21401    86664.537   -21483.492    1557.3729   -23040.865    392.29835    234.39495 
   94850    107.78297   -404.34936    86690.505    -21473.38    1602.8687   -23076.249    392.54273    241.24237 
   94900    107.19315   -760.42478    86672.774    -21439.03    1594.0974   -23033.128     392.2791    239.92222 
   94950    105.89176   -883.34594    86564.655   -21457.767    1574.7441   -23032.511    391.87351    237.00942 
   95000    109.00316   -705.95571    86499.683   -21454.847    1621.0145   -23075.861    392.03343    243.97342 
   95050    106.32487   -291.53264    86518.415   -21427.425    1581.1849    -23008.61    392.06832    237.97881 
   95100    106.44382    -462.6746     86538.03   -21482.987    1582.9539   -23065.941    391.73891    238.24506 
   95150    105.18236   -614.75215    86613.214   -21504.789    1564.1943   -23068.983    391.58702    235.42162 
   95200    108.33214   -242.63944    86616.575   -21500.051    1611.0356   -23111.087    391.59587    242.47154 
   95250    106.60193   -328.48857    86598.296   -21480.911    1585.3051   -23066.217    391.85781    238.59893 
   95300    107.03937   -596.70472    86634.554   -21492.502    1591.8105   -23084.312    392.06337    239.57803 
   95350    105.73508   -430.27253    86597.715   -21546.161     1572.414   -23118.576    391.56246    236.65874 
   95400    106.94612   -202.26902    86642.104   -21516.701    1590.4237   -23107.124    392.03118    239.36931 
   95450    106.81008   -417.16314     86686.35   -21518.002    1588.4006   -23106.403     391.6674    239.06482 
   95500    105.42783   -351.30881    86624.659     -21509.3    1567.8448   -23077.144    391.88171    235.97103 
   95550    106.39201   -371.98076    86622.067   -21486.179    1582.1833   -23068.362    391.78713    238.12908 
   95600    105.00331   -296.31928    86645.278   -21455.883    1561.5317   -23017.415    391.65277    235.02087 
   95650    107.93474   -406.78821    86632.134   -21447.799    1605.1257   -23052.925     391.5025    241.58205 
   95700    108.50942   -326.52856    86594.968   -21406.262    1613.6719   -23019.934    391.18521    242.86832 
   95750    108.00067   -498.36193    86512.534    -21433.78    1606.1062   -23039.886    390.93636    241.72963 
   95800    109.81685   -89.224071    86514.092    -21434.71    1633.1151   -23067.825    391.03325    245.79465 
   95850    108.68588   -281.62541    86518.816   -21443.456    1616.2962   -23059.752    391.45991    243.26329 
   95900     108.0223   -177.76883    86566.159   -21464.457    1606.4278   -23070.885    391.14197    241.77803 
   95950    109.16061   -636.34681    86528.892   -21465.876     1623.356   -23089.232    390.85686    244.32583 
   96000    109.99212   -248.99597    86518.695   -21429.324    1635.7215   -23065.045    391.32034    246.18693 
   96050    109.60897   -491.10616    86568.655   -21437.929    1630.0237   -23067.952     391.8344    245.32937 
   96100    109.98857   -563.50847    86568.034   -21442.434    1635.6687   -23078.103    391.19993    246.17899 
   96150    107.67351   -535.37608    86480.611   -21377.544    1601.2409   -22978.785    390.99548    240.99737 
   96200    109.70913   -502.35385    86472.732   -21413.688    1631.5132   -23045.201    391.92369    245.55355 
   96250    108.43193   -333.83243    86441.353   -21424.176    1612.5196   -23036.695    391.90038    242.69489 
   96300    108.93554   -383.62552     86455.84   -21422.384    1620.0089   -23042.393    392.22478    243.82207 
   96350    107.63268   -466.99023    86445.999   -21437.328    1600.6337   -23037.962    392.18786    240.90599 
   96400    104.95697   -196.72158    86436.837   -21449.501    1560.8426   -23010.343    392.48626    234.91715 
   96450    107.87525   -554.79828    86493.968   -21476.084    1604.2411   -23080.325    392.20367    241.44892 
   96500    107.95276   -348.43397    86432.348   -21481.255    1605.3937   -23086.649    392.58844     241.6224 
   96550    105.21105   -726.22498    86380.654   -21511.599     1564.621    -23076.22    392.86174    235.48583 
   96600    105.45584   -612.88211    86276.166   -21536.218    1568.2614    -23104.48    393.25201    236.03373 
   96650    107.61037   -19.059786    86261.007   -21517.734    1600.3019   -23118.036    393.40265    240.85605 
   96700    105.18424   -421.17827    86288.631   -21519.191    1564.2224   -23083.414    393.55981    235.42584 
   96750    106.04996   -240.82315    86255.754   -21504.411    1577.0966   -23081.507    393.48064    237.36349 
   96800    103.98468   -15.254779    86267.626   -21517.337    1546.3833    -23063.72    393.44511    232.74094 
   96850    105.16778   -128.63493    86230.806   -21499.883    1563.9775   -23063.861    393.39328    235.38898 
   96900    105.29885   -99.958893    86244.506   -21463.756    1565.9267   -23029.683    393.42357    235.68234 
   96950    108.27996     21.25811    86302.604   -21465.192    1610.2596   -23075.452    394.05011    242.35475 
   97000    108.93373   -339.41472     86351.28   -21443.944     1619.982   -23063.926    394.13778    243.81803 
   97050    107.98566   -28.264697    86406.767   -21445.925     1605.883   -23051.808    395.24583    241.69604 
   97100    106.32822    -449.6238    86426.228   -21450.551    1581.2347   -23031.786    395.28637    237.98631 
   97150    108.26612   -369.31093    86390.669   -21487.182    1610.0538   -23097.236     395.6332    242.32377 
   97200    107.06865   -780.93445    86284.023   -21481.664    1592.2458    -23073.91    396.18217    239.64355 
   97250    107.35871   -382.15944    86226.417   -21464.594    1596.5594   -23061.154     396.4193    240.29277 
   97300    109.66977   -64.778596    86217.113   -21436.779    1630.9278   -23067.707    395.87834    245.46545 
   97350    108.12305    -354.5919    86191.934   -21443.746    1607.9261   -23051.672    396.27407    242.00354 
   97400    105.02949   -388.17326    86227.326   -21478.039     1561.921    -23039.96    396.10896    235.07947 
   97450    106.84974   -229.70002    86186.434    -21468.66    1588.9904    -23057.65     396.1036    239.15358 
   97500    106.61409   -78.929817    86189.439   -21468.945     1585.486   -23054.431    396.17532    238.62615 
   97550    107.52336   -334.57027     86279.88   -21494.432     1599.008    -23093.44    397.23663     240.6613 
   97600    104.71715   -551.90917    86230.261   -21546.103    1557.2761   -23103.379    396.40606    234.38038 
   97650    105.28765   -433.31007    86205.998    -21541.42    1565.7601    -23107.18    396.81095    235.65727 
   97700    105.54413   -549.54361     86209.26   -21522.029    1569.5744   -23091.603    397.72067    236.23135 
   97750    103.50507   -424.45259    86176.445   -21504.839    1539.2509    -23044.09    397.07992    231.66747 
   97800    105.81185   -339.62646    86165.637    -21492.35    1573.5557   -23065.905    397.35949    236.83056 
   97850    106.36526   -878.71235    86172.979   -21522.039    1581.7856   -23103.825    397.65151    238.06921 
   97900    103.74037   -168.06826    86183.456   -21485.503    1542.7501   -23028.253    397.16453    232.19412 
   97950      107.339   -114.83162    86187.081   -21485.257    1596.2663   -23081.523    397.06808    240.24865 
   98000    104.39886   -483.68054    86185.512   -21515.458    1552.5428   -23068.001    397.26632    233.66798 
   98050    105.36823   -370.29433     86225.58   -21489.944    1566.9584   -23056.902    396.70468    235.83763 
   98100    110.58769   -67.572263    86245.695   -21446.672    1644.5784    -23091.25    396.66807    247.51996 
   98150    109.14916   -112.37225    86283.051   -21432.306    1623.1857   -23055.492    396.69008    244.30021 
   98200     106.8502   -356.15201    86344.138   -21459.212    1588.9973   -23048.209    396.88988    239.15463 
   98250    107.66589   -93.315687    86329.039   -21454.665    1601.1276   -23055.793    396.73341    240.98031 
   98300    105.58879    -390.9636    86278.407   -21465.642    1570.2385   -23035.881    397.31891     236.3313 
   98350    108.39747   -456.63221    86300.241   -21452.745    1612.0071   -23064.752    397.66888    242.61776 
   98400    107.41975   -315.79533    86240.106   -21440.573    1597.4671    -23038.04    397.78273     240.4294 
   98450    107.56509   -315.84692    86222.278    -21414.13    1599.6286   -23013.758    398.23443     240.7547 
   98500    109.10291   -293.77066    86155.858    -21437.44    1622.4979   -23059.938    398.07414     244.1967 
   98550    108.52528   -62.333171    86168.047   -21449.018    1613.9078   -23062.925    397.42232    242.90382 
   98600    105.45745   -190.97499    86167.372   -21478.506    1568.2852   -23046.791    398.26607    236.03732 
   98650     105.3947   -36.518322    86274.652   -21520.253    1567.3521   -23087.605    398.88275    235.89689 
   98700    106.60029   -217.84246    86300.847   -21463.064    1585.2808   -23048.345     398.8543    238.59527 
   98750    105.68419   -287.96486    86329.375   -21483.649    1571.6573   -23055.306    399.41928    236.54484 
   98800    105.89048    19.180369    86327.543    -21488.16     1574.725   -23062.885    399.39946    237.00655 
   98850    108.13073   -506.94471    86315.805   -21500.978    1608.0404   -23109.018    399.56505    242.02074 
   98900    104.55647   -356.65481    86350.616   -21512.338    1554.8866   -23067.224    400.13284    234.02075 
   98950    106.36779   -469.21739    86358.359   -21489.716    1581.8232   -23071.539    400.55844    238.07487 
   99000    105.29242   -340.99533    86385.267   -21489.213    1565.8311   -23055.045    400.70866    235.66797 
   99050     104.7864   -444.34878    86368.269   -21484.504     1558.306    -23042.81    400.83467    234.53538 
   99100    105.30032   -161.82911    86333.988   -21492.328    1565.9486   -23058.276    401.09599    235.68565 
   99150     106.5076   -834.67914    86285.331   -21419.279    1583.9023   -23003.181    401.46345     238.3878 
   99200    106.03511   -397.03846    86281.707   -21433.142    1576.8758   -23010.018    401.31236    237.33026 
   99250    107.83422   -172.09958    86322.523   -21445.882    1603.6308   -23049.513    401.83723    241.35707 
   99300    106.62256   -499.97586    86358.461   -21485.769     1585.612   -23071.381    402.36691    238.64512 
   99350    107.97255   -428.22752    86295.233   -21453.174     1605.688   -23058.862    403.13784    241.66669 
   99400    108.85126   -376.24502    86318.635   -21433.147    1618.7555   -23051.903    403.45148    243.63343 
   99450    106.00172   -606.61047    86348.106   -21446.492    1576.3793   -23022.871    403.94019    237.25554 
   99500    106.99251   -134.09447    86434.634   -21466.555    1591.1136   -23057.669    404.71361    239.47314 
   99550    103.61757   -166.97265     86557.76   -21496.066     1540.924    -23036.99    405.84564    231.91928 
   99600    106.58214     -394.791    86543.692   -21507.307    1585.0108   -23092.317    405.91139    238.55463 
   99650    106.79839   -476.58696    86513.185   -21489.238    1588.2267   -23077.464     405.2966    239.03865 
   99700    105.71456   -714.54825    86482.925   -21517.466    1572.1089   -23089.575    405.45183    236.61281 
   99750    106.49242   -378.01158    86482.399   -21507.789    1583.6765   -23091.465    405.80161    238.35382 
   99800    106.04473    79.735038     86546.68   -21487.022    1577.0188   -23064.041    405.20078    237.35179 
   99850    105.49582   -249.71476    86530.241   -21484.096    1568.8559   -23052.952    404.54003    236.12321 
   99900    105.31329   -281.99594    86561.287   -21507.321    1566.1415   -23073.462    404.47709    235.71468 
   99950    105.14701   -482.24243    86580.021   -21493.095    1563.6687   -23056.764    404.35562    235.34251 
  100000    106.61435   -557.07671    86539.435   -21504.813    1585.4898   -23090.303    404.55704    238.62673 
Loop time of 82.674 on 64 procs for 100000 steps with 4990 atoms

Performance: 522.534 ns/day, 0.046 hours/ns, 1209.571 timesteps/s
100.0% CPU use with 64 MPI tasks x no OpenMP threads

MPI task timing breakdown:
Section |  min time  |  avg time  |  max time  |%varavg| %total
---------------------------------------------------------------
Pair    | 12.193     | 33.946     | 58.986     | 367.3 | 41.06
Neigh   | 0.62102    | 1.6497     | 4.0495     |  87.3 |  2.00
Comm    | 14.17      | 38.874     | 63.196     | 329.6 | 47.02
Output  | 0.11794    | 0.11912    | 0.13221    |   0.5 |  0.14
Modify  | 4.795      | 7.3862     | 13.048     | 115.3 |  8.93
Other   |            | 0.6989     |            |       |  0.85

Nlocal:    77.9688 ave 150 max 35 min
Histogram: 31 1 0 3 13 0 0 0 5 11
Nghost:    811.531 ave 1004 max 641 min
Histogram: 32 0 0 0 0 0 0 6 10 16
Neighs:    0 ave 0 max 0 min
Histogram: 64 0 0 0 0 0 0 0 0 0
FullNghs:  7495.91 ave 18392 max 1426 min
Histogram: 32 0 0 0 16 0 0 0 3 13

Total # of neighbors = 479738
Ave neighs/atom = 96.1399
Neighbor list builds = 5785
Dangerous builds = 0

write_data		${DIR}/data.eq-${NAME}-${TEMP}
write_data		run_7/data.eq-${NAME}-${TEMP}
write_data		run_7/data.eq-het_freeze_7-${TEMP}
write_data		run_7/data.eq-het_freeze_7-240
undump          1

reset_timestep  0

unfix           2
unfix           3
unfix           4


################################################
#######         Run Simulation         #########
################################################

log				${DIR}/log.run_${NAME}
log				run_7/log.run_${NAME}
log				run_7/log.run_het_freeze_7
