LAMMPS data file via write_data, version 16 Mar 2018, timestep = 100000

6472 atoms
2 atom types

0.0000000000000000e+00 4.9219999999999999e+01 xlo xhi
0.0000000000000000e+00 4.9019635930410494e+01 ylo yhi
1.9891603599180847e+00 5.8072839640082762e+01 zlo zhi

Masses

1 18.015
2 12.01

Atoms # atomic

2093 1 3.4622793143135273e+00 1.7189028994635958e+00 5.5369488401083542e+00 1 1 1
3215 1 8.4321757407629261e-02 6.4025266953059816e+00 9.1183396897617062e+00 2 0 1
1464 1 4.2283200153383698e+00 1.1923826705258662e+01 5.5522560236333787e+00 0 0 1
2126 1 6.3722934827909050e+00 4.7555160709692998e+00 3.7194373121702187e+00 1 2 0
6309 1 8.4733213274915613e+00 7.3945955163162349e+00 1.2566889516730916e+01 -1 -1 1
431 1 5.2120674173159580e+00 3.5729138307658999e+00 6.2225753682068303e+00 1 0 0
4642 1 1.1795480893205600e+01 4.3749965402531812e+00 6.9150919793934289e+00 1 1 1
4808 1 2.3526195743259404e+00 1.1673371951868942e+01 1.3013387714115233e+01 -1 0 1
5071 1 1.1889601182184617e+00 5.4565830647024987e+00 6.8628890967288010e+00 0 1 0
6380 1 2.2872753905253438e+00 1.1216678684234584e+01 3.3378879548543536e+00 1 0 1
3782 1 1.0143718792871793e+01 5.0515425248651376e+00 2.4884114359269902e+00 -1 0 1
2061 1 1.2059293154395963e+01 3.8705734635982481e+00 4.1643885493918313e+00 -2 2 0
1632 1 7.2034643053894536e+00 7.0583162241216977e+00 5.2215302936379757e+00 -1 0 1
4754 1 1.1533243575721064e+01 1.1973487477804651e+01 3.5605802996257632e+00 -1 0 1
2156 1 4.4033801441395655e+00 7.7182589464818712e+00 6.3516726438996729e+00 0 0 1
447 1 2.7070630580718533e+00 8.6517290145512575e+00 4.3674662516755021e+00 0 0 1
6266 1 5.8661220839291985e+00 9.2213720897385816e+00 3.8463319113631105e+00 -1 -1 1
1544 1 9.4647063774232532e+00 1.8081044962382145e-01 3.7381303981481873e+00 0 2 0
3708 1 6.7232168052003516e+00 1.1627839339143383e+01 4.7215630539190361e+00 1 0 0
2014 1 9.4096745816778569e+00 7.2880022397888125e+00 3.8285104373179513e+00 -1 0 0
273 1 1.1600957033201254e+01 8.0284970717364139e+00 5.4369917729731725e+00 -1 0 0
6445 1 1.7768984887672878e+00 2.9157830788625998e+00 1.1468708970036550e+01 -1 1 1
6355 1 4.1789992630513266e+00 1.0808265949486666e+00 1.0950066014111952e+01 2 4 1
6146 1 7.4614937261426029e+00 2.3066097371760583e+00 7.2876750635423910e+00 0 0 1
259 1 1.2157878047797727e+01 5.6744246416415989e-01 1.0335659441167873e+01 -1 3 1
6212 1 1.1346287912672013e+00 2.8697509812575350e+00 6.5530221019640100e+00 -1 1 1
1918 1 9.9869298940131195e+00 2.9312602367610867e+00 1.0511825549487872e+01 0 1 0
5300 1 8.4637359483934169e+00 2.7675284374855988e+00 3.3443438225644968e+00 -1 0 0
4766 1 6.6042177628061340e+00 6.8953851404889521e+00 1.4534641552532220e+01 0 0 1
459 1 3.5887755455374357e+00 5.3624982983299940e+00 7.6779007426452637e+00 0 0 1
6469 1 3.1753565503864651e+00 5.5474442496552125e+00 1.0510630281174018e+01 -1 0 0
4534 1 1.9111223943558262e+00 8.0883232961038853e+00 1.0593519694938923e+01 -1 0 1
1613 1 5.6278616383407707e+00 3.8235408531388577e+00 1.0732556718323011e+01 -1 0 0
4831 1 8.2260446475505216e+00 6.7320033212703887e+00 8.1388683761667480e+00 1 0 1
6194 1 7.0184475255602843e+00 8.1751752774108368e+00 1.0295535355787782e+01 2 -2 1
6403 1 9.2636229284990215e+00 4.1618997389297139e+00 8.3466084189253031e+00 1 0 1
6113 1 8.5443758942533385e+00 1.0216699563898445e+01 1.2463687277987459e+01 1 1 1
4783 1 3.0499788515893003e+00 9.0788553062357025e+00 8.3319734512814847e+00 1 -1 0
1537 1 7.3710106961625399e-01 1.0609015140072469e+01 7.6632032421077874e+00 0 3 1
1829 1 4.5033044440671963e+00 1.1427895198504844e+01 8.6126107064405559e+00 1 3 0
3693 1 6.9492753403882190e+00 1.0996643423000940e+01 9.9559278441394490e+00 2 0 1
1948 1 4.3636685940620188e+00 9.9275322131205623e+00 1.3810531766151634e+01 0 -1 0
5022 1 9.7885133432353690e+00 8.8973408284494191e+00 7.5926980723518742e+00 -2 1 0
5220 1 1.0149041173091231e+01 1.1804554659833231e+01 1.1409764604164661e+01 0 1 0
3103 1 1.1371102952579864e+01 9.8198525112915540e+00 9.6915711533297824e+00 0 0 0
6376 1 8.4213093554613181e+00 1.1286447961927932e+01 6.9437696567883584e+00 2 1 1
6164 1 1.7759870080949807e+00 1.7967788478853770e+00 1.4155407222816612e+01 1 2 1
4518 1 4.1902670867629501e+00 4.9881336269488870e+00 2.1114977689613923e+00 0 1 1
449 1 4.3671645178684182e+00 8.6616110837745985e-01 1.3753703940483710e+01 0 2 1
1555 1 5.9322015884563291e+00 3.0465420732668420e+00 1.4176483154244467e+01 2 2 1
3766 1 6.0220635540336040e+00 1.1833926890272680e+01 1.2668705538750444e+01 2 0 1
2148 1 1.0905318686761376e+00 9.5136918713207930e+00 1.3594787558768489e+01 1 1 1
1740 1 3.6070234971999917e+00 1.5431552606018855e+00 2.6019028511277860e+00 0 2 0
6354 1 4.5181702588888966e+00 5.3067434043845783e+00 1.3416052601481129e+01 2 0 0
387 1 4.8565849736325921e+00 7.8661979778593958e+00 1.2017357696867659e+01 -1 0 0
249 1 3.2981954969056881e-01 7.2460673120321282e+00 4.7944606375883234e+00 -1 0 0
138 1 8.1126308724187055e+00 4.2752984259064153e+00 1.2169893398562847e+01 0 1 0
1397 1 1.1968926846016863e+01 3.8212487589198836e+00 1.3990093346164972e+01 -1 0 0
3549 1 1.1113213312920449e+01 6.8162881449935213e+00 1.3892495881449031e+01 1 0 1
5019 1 9.3560736089109628e+00 2.9520506923433665e+00 1.4634509747599910e+01 -1 1 0
1365 1 8.2380110245337124e-01 1.5554445291293464e+00 9.0694774058435961e+00 0 0 0
1846 1 8.6369561376419757e+00 1.0347799183424685e+01 1.5362987602879928e+01 1 0 0
6242 1 6.6928824910967304e+00 7.6843113377258787e-01 9.5398817130518836e+00 1 2 1
4635 1 9.3987049695475431e+00 1.2053925841962487e-01 1.0935932471885270e+01 -1 -1 1
3322 1 1.2259424001707552e+01 1.1247729665590833e+00 3.2204547272061284e+00 0 0 1
3294 1 4.8445215088913229e-01 1.7737872964352472e+00 2.6260731383409697e+00 1 -1 0
4955 1 7.7301423971007677e-01 1.2244319133801389e+01 5.3414881294726797e+00 -1 -1 1
2182 1 1.2242219355931615e+01 1.1501648967761462e+01 1.5493292897320059e+01 1 0 1
65 1 1.0412012361848722e+01 3.5755109898044457e-01 1.5900448210752543e+01 -1 -1 1
4656 1 6.1908606569228368e+00 9.0928493449926577e+00 1.5966045554803614e+01 1 1 1
1674 1 9.4561560612492048e+00 1.1615190403175129e+01 1.9995130854047778e+00 1 -1 0
28 1 1.1328131557070856e+01 1.2247479246589126e+01 7.3542991319161137e+00 0 0 0
6097 1 8.4960890078483011e+00 8.9886200584087810e+00 1.9987938108588992e+00 1 0 1
240 1 2.1958392689305009e+00 1.1709803398401139e+01 2.1259981367942338e+01 1 0 0
3724 1 1.9858962471073909e+00 1.1020824522023737e+01 2.3832500338699692e+01 2 -1 1
1554 1 1.4771334631615498e+00 5.5635369196990894e+00 1.6608346353188296e+01 1 0 0
6151 1 5.3240415782452271e+00 3.8736585784108950e+00 1.6873171233091192e+01 3 3 1
513 1 3.8725099673253460e+00 1.0772500557669553e+00 2.0950684626056276e+01 2 0 1
3742 1 7.2501056314453771e-01 6.9843106533288406e+00 2.1226448064663597e+01 0 2 0
4789 1 1.7355293601289541e+00 9.3135597121081926e+00 2.0088839114576800e+01 2 0 1
5428 1 1.0545140397179335e+01 1.9334950918330802e+00 2.1083164494853765e+01 0 1 1
755 2 8.6134999999999984e+00 1.0656442593567498e+01 2.6872017062965131e+01 0 0 0
119 1 1.2206690983551328e+01 9.1297987093295276e+00 2.3288534018602885e+01 1 1 0
6363 1 1.4887522067121413e+00 2.4583159968963666e+00 2.0902880907470632e+01 1 2 1
5417 1 3.7832537907509769e+00 8.8299428287146782e+00 1.8110668176080679e+01 3 0 1
1831 1 8.0704350737116481e+00 5.2226168820828196e+00 1.6100222994936107e+01 1 1 0
5040 1 7.2925614354559691e+00 3.8446873601863203e+00 1.8916957889926401e+01 2 1 0
3574 1 9.7459926599537674e+00 2.5713297082368909e+00 1.8032122454976587e+01 0 2 0
6224 1 5.3021821438737877e+00 4.8896001406144478e+00 2.1390224101102579e+01 0 2 1
3649 1 3.6315766928773101e+00 5.8034728678671215e+00 1.7874384595473991e+01 2 1 0
135 1 2.3684819730759810e-01 1.0145370929779475e+01 1.7510715525388378e+01 2 2 0
3027 1 3.7953399894571957e-02 3.1895335918782020e+00 1.6180686948744373e+01 0 -1 1
3490 1 8.7846419107381273e+00 8.0011477569885816e+00 1.7517380132590258e+01 2 1 0
6276 1 1.0401750064694211e+01 1.1725831808215853e+01 2.0512863440063501e+01 -2 -1 1
5083 1 1.1381153844540819e+01 4.9405916491312230e+00 1.8330027270213449e+01 -1 -2 0
1380 1 5.3999283685993262e+00 9.7016307702326117e+00 2.0054942046524005e+01 2 0 1
758 2 9.8440000000000012e+00 9.9460130873296642e+00 3.0030999999999931e+01 0 0 0
6330 1 4.8131468317859865e+00 1.0225993611370184e+01 2.4231783745793990e+01 0 1 1
4959 1 4.1928673056068044e+00 1.4709019840373982e+00 1.8222594262375445e+01 1 1 1
3521 1 4.8829513891815768e-01 5.4865294804074196e+00 2.4222355291223362e+01 0 2 0
3626 1 9.8022826780313448e+00 1.1623659177063452e+01 2.3255785670411196e+01 1 2 0
6263 1 9.8629838337565143e+00 8.9431938968989044e+00 2.4428138064467625e+01 1 1 1
5375 1 1.0602935152618162e+01 4.5899074531577337e+00 2.4368631702247072e+01 0 0 1
4966 1 9.9998401198167635e+00 1.9777573579809318e+00 2.3843452391896367e+01 2 0 0
4676 1 1.1543101570736019e+01 9.4990349038373356e+00 1.8956035307860283e+01 0 -1 0
1405 1 3.2786620062360807e+00 1.3875409931702694e+00 2.3758580137201040e+01 -2 -1 1
6245 1 2.9211786685508505e+00 3.9955467898787473e+00 2.3809690841796257e+01 1 1 1
3375 1 2.7127516577793842e+00 4.9774220944535150e+00 2.0497687605472688e+01 1 1 0
1983 1 5.7033898666201042e+00 4.5928904519071523e+00 2.4032783501852997e+01 1 1 0
3487 1 6.8974505233260972e+00 7.1123580535400341e+00 2.1334956103583647e+01 1 2 0
4847 1 6.4820429594541027e+00 2.1717915601852336e+00 2.1216201586384109e+01 0 -1 1
3463 1 7.1177746484070719e+00 2.0266037619164652e+00 2.3858210270414688e+01 2 1 0
1864 1 9.7137665631117347e+00 6.4815213755923144e+00 2.2652413160223929e+01 1 1 0
2982 1 7.1616886832993174e+00 7.4730588083872753e+00 2.4187687101456714e+01 -2 -1 1
2932 1 1.6303111641023866e+00 8.1072446500054074e+00 2.3691603294357268e+01 0 0 1
4734 1 4.2077914181071234e+00 7.2847568743148834e+00 2.4575943055666436e+01 0 1 1
3731 1 7.1982635717384964e+00 1.0082372438768175e+01 2.2669706972751801e+01 0 -1 1
1904 1 1.1430198585010581e+01 7.4761574413135170e+00 2.0787001237947855e+01 1 0 0
754 2 8.6135000000000002e+00 1.2077301606043163e+01 3.0030999999999931e+01 0 0 0
1639 1 8.9481295097712952e+00 6.2029241105203150e+00 1.9494998612945700e+01 2 0 0
761 2 1.1074500000000002e+01 9.2355835810918343e+00 2.6872017062965131e+01 0 0 0
581 2 0.0000000000000000e+00 2.8417180249513345e+00 2.6872017062965131e+01 0 0 0
583 2 0.0000000000000000e+00 0.0000000000000000e+00 2.6872017062965131e+01 0 0 0
585 2 1.2305000000000001e+00 7.1042950623783474e-01 2.6872017062965131e+01 0 0 0
592 2 1.2305000000000001e+00 2.1312885187134998e+00 2.6872017062965131e+01 0 0 0
594 2 2.4610000000000003e+00 2.8417180249513345e+00 2.6872017062965131e+01 0 0 0
596 2 2.4610000000000003e+00 0.0000000000000000e+00 2.6872017062965131e+01 0 0 0
598 2 3.6915000000000004e+00 7.1042950623783474e-01 2.6872017062965131e+01 0 0 0
613 2 3.6914999999999996e+00 2.1312885187134998e+00 2.6872017062965131e+01 0 0 0
582 2 0.0000000000000000e+00 1.4208590124756650e+00 3.0030999999999931e+01 0 0 0
584 2 0.0000000000000000e+00 0.0000000000000000e+00 3.0030999999999931e+01 0 0 0
591 2 1.2305000000000001e+00 3.5521475311891644e+00 3.0030999999999931e+01 0 0 0
593 2 1.2305000000000001e+00 2.1312885187134998e+00 3.0030999999999931e+01 0 0 0
595 2 2.4610000000000003e+00 1.4208590124756650e+00 3.0030999999999931e+01 0 0 0
597 2 2.4610000000000003e+00 0.0000000000000000e+00 3.0030999999999931e+01 0 0 0
612 2 3.6914999999999996e+00 3.5521475311891644e+00 3.0030999999999931e+01 0 0 0
614 2 3.6914999999999996e+00 2.1312885187134998e+00 3.0030999999999931e+01 0 0 0
615 2 4.9220000000000006e+00 2.8417180249513332e+00 2.6872017062965131e+01 0 0 0
617 2 4.9220000000000006e+00 0.0000000000000000e+00 2.6872017062965131e+01 0 0 0
619 2 6.1524999999999999e+00 7.1042950623783407e-01 2.6872017062965131e+01 0 0 0
642 2 6.1524999999999999e+00 2.1312885187134989e+00 2.6872017062965131e+01 0 0 0
644 2 7.3829999999999991e+00 2.8417180249513345e+00 2.6872017062965131e+01 0 0 0
646 2 7.3829999999999991e+00 0.0000000000000000e+00 2.6872017062965131e+01 0 0 0
616 2 4.9220000000000006e+00 1.4208590124756650e+00 3.0030999999999931e+01 0 0 0
618 2 4.9220000000000006e+00 0.0000000000000000e+00 3.0030999999999931e+01 0 0 0
641 2 6.1524999999999999e+00 3.5521475311891644e+00 3.0030999999999931e+01 0 0 0
643 2 6.1524999999999999e+00 2.1312885187134989e+00 3.0030999999999931e+01 0 0 0
645 2 7.3829999999999991e+00 1.4208590124756659e+00 3.0030999999999931e+01 0 0 0
647 2 7.3829999999999991e+00 0.0000000000000000e+00 3.0030999999999931e+01 0 0 0
648 2 8.6134999999999984e+00 7.1042950623783407e-01 2.6872017062965131e+01 0 0 0
679 2 8.6134999999999984e+00 2.1312885187135002e+00 2.6872017062965131e+01 0 0 0
681 2 9.8440000000000012e+00 2.8417180249513332e+00 2.6872017062965131e+01 0 0 0
683 2 9.8440000000000012e+00 0.0000000000000000e+00 2.6872017062965131e+01 0 0 0
685 2 1.1074500000000002e+01 7.1042950623783330e-01 2.6872017062965131e+01 0 0 0
724 2 1.1074500000000002e+01 2.1312885187135002e+00 2.6872017062965131e+01 0 0 0
678 2 8.6134999999999984e+00 3.5521475311891657e+00 3.0030999999999931e+01 0 0 0
680 2 8.6134999999999984e+00 2.1312885187135002e+00 3.0030999999999931e+01 0 0 0
682 2 9.8440000000000012e+00 1.4208590124756659e+00 3.0030999999999931e+01 0 0 0
684 2 9.8440000000000012e+00 0.0000000000000000e+00 3.0030999999999931e+01 0 0 0
723 2 1.1074500000000002e+01 3.5521475311891644e+00 3.0030999999999931e+01 0 0 0
725 2 1.1074500000000002e+01 2.1312885187135002e+00 3.0030999999999931e+01 0 0 0
586 2 0.0000000000000000e+00 7.1042950623783341e+00 2.6872017062965131e+01 0 0 0
588 2 0.0000000000000000e+00 4.2625770374269996e+00 2.6872017062965131e+01 0 0 0
590 2 1.2305000000000001e+00 4.9730065436648339e+00 2.6872017062965131e+01 0 0 0
605 2 1.2305000000000001e+00 6.3938655561404980e+00 2.6872017062965131e+01 0 0 0
607 2 2.4610000000000003e+00 7.1042950623783341e+00 2.6872017062965131e+01 0 0 0
609 2 2.4610000000000003e+00 4.2625770374269996e+00 2.6872017062965131e+01 0 0 0
611 2 3.6914999999999996e+00 4.9730065436648339e+00 2.6872017062965131e+01 0 0 0
634 2 3.6914999999999996e+00 6.3938655561404980e+00 2.6872017062965131e+01 0 0 0
587 2 0.0000000000000000e+00 5.6834360499026637e+00 3.0030999999999931e+01 0 0 0
589 2 0.0000000000000000e+00 4.2625770374269996e+00 3.0030999999999931e+01 0 0 0
604 2 1.2305000000000001e+00 7.8147245686161639e+00 3.0030999999999931e+01 0 0 0
606 2 1.2305000000000001e+00 6.3938655561404980e+00 3.0030999999999931e+01 0 0 0
608 2 2.4610000000000003e+00 5.6834360499026637e+00 3.0030999999999931e+01 0 0 0
610 2 2.4610000000000003e+00 4.2625770374269996e+00 3.0030999999999931e+01 0 0 0
633 2 3.6914999999999996e+00 7.8147245686161639e+00 3.0030999999999931e+01 0 0 0
635 2 3.6914999999999996e+00 6.3938655561404980e+00 3.0030999999999931e+01 0 0 0
636 2 4.9220000000000006e+00 7.1042950623783341e+00 2.6872017062965131e+01 0 0 0
638 2 4.9220000000000006e+00 4.2625770374269978e+00 2.6872017062965131e+01 0 0 0
640 2 6.1524999999999999e+00 4.9730065436648339e+00 2.6872017062965131e+01 0 0 0
671 2 6.1524999999999999e+00 6.3938655561404980e+00 2.6872017062965131e+01 0 0 0
673 2 7.3830000000000009e+00 7.1042950623783341e+00 2.6872017062965131e+01 0 0 0
675 2 7.3829999999999991e+00 4.2625770374269996e+00 2.6872017062965131e+01 0 0 0
637 2 4.9220000000000006e+00 5.6834360499026637e+00 3.0030999999999931e+01 0 0 0
639 2 4.9220000000000006e+00 4.2625770374269978e+00 3.0030999999999931e+01 0 0 0
670 2 6.1524999999999999e+00 7.8147245686161639e+00 3.0030999999999931e+01 0 0 0
672 2 6.1524999999999999e+00 6.3938655561404980e+00 3.0030999999999931e+01 0 0 0
674 2 7.3829999999999991e+00 5.6834360499026637e+00 3.0030999999999931e+01 0 0 0
676 2 7.3829999999999991e+00 4.2625770374269996e+00 3.0030999999999931e+01 0 0 0
677 2 8.6135000000000002e+00 4.9730065436648339e+00 2.6872017062965131e+01 0 0 0
716 2 8.6135000000000002e+00 6.3938655561404980e+00 2.6872017062965131e+01 0 0 0
718 2 9.8440000000000012e+00 7.1042950623783341e+00 2.6872017062965131e+01 0 0 0
720 2 9.8440000000000012e+00 4.2625770374270004e+00 2.6872017062965131e+01 0 0 0
722 2 1.1074500000000002e+01 4.9730065436648339e+00 2.6872017062965131e+01 0 0 0
763 2 1.1074500000000002e+01 6.3938655561404980e+00 2.6872017062965131e+01 0 0 0
715 2 8.6135000000000002e+00 7.8147245686161639e+00 3.0030999999999931e+01 0 0 0
717 2 8.6135000000000002e+00 6.3938655561404980e+00 3.0030999999999931e+01 0 0 0
719 2 9.8440000000000012e+00 5.6834360499026637e+00 3.0030999999999931e+01 0 0 0
721 2 9.8440000000000012e+00 4.2625770374270004e+00 3.0030999999999931e+01 0 0 0
762 2 1.1074500000000002e+01 7.8147245686161639e+00 3.0030999999999931e+01 0 0 0
764 2 1.1074500000000002e+01 6.3938655561404980e+00 3.0030999999999931e+01 0 0 0
599 2 0.0000000000000000e+00 1.1366872099805333e+01 2.6872017062965131e+01 0 0 0
601 2 0.0000000000000000e+00 8.5251540748539991e+00 2.6872017062965131e+01 0 0 0
603 2 1.2305000000000001e+00 9.2355835810918343e+00 2.6872017062965131e+01 0 0 0
626 2 1.2305000000000001e+00 1.0656442593567498e+01 2.6872017062965131e+01 0 0 0
628 2 2.4610000000000003e+00 1.1366872099805333e+01 2.6872017062965131e+01 0 0 0
630 2 2.4610000000000003e+00 8.5251540748539991e+00 2.6872017062965131e+01 0 0 0
632 2 3.6915000000000004e+00 9.2355835810918343e+00 2.6872017062965131e+01 0 0 0
663 2 3.6914999999999996e+00 1.0656442593567499e+01 2.6872017062965131e+01 0 0 0
600 2 0.0000000000000000e+00 9.9460130873296642e+00 3.0030999999999931e+01 0 0 0
602 2 0.0000000000000000e+00 8.5251540748539991e+00 3.0030999999999931e+01 0 0 0
625 2 1.2305000000000001e+00 1.2077301606043163e+01 3.0030999999999931e+01 0 0 0
627 2 1.2305000000000001e+00 1.0656442593567498e+01 3.0030999999999931e+01 0 0 0
629 2 2.4610000000000003e+00 9.9460130873296642e+00 3.0030999999999931e+01 0 0 0
631 2 2.4610000000000003e+00 8.5251540748539991e+00 3.0030999999999931e+01 0 0 0
662 2 3.6914999999999996e+00 1.2077301606043163e+01 3.0030999999999931e+01 0 0 0
664 2 3.6914999999999996e+00 1.0656442593567499e+01 3.0030999999999931e+01 0 0 0
665 2 4.9220000000000006e+00 1.1366872099805333e+01 2.6872017062965131e+01 0 0 0
667 2 4.9220000000000006e+00 8.5251540748539991e+00 2.6872017062965131e+01 0 0 0
669 2 6.1524999999999999e+00 9.2355835810918343e+00 2.6872017062965131e+01 0 0 0
708 2 6.1524999999999999e+00 1.0656442593567499e+01 2.6872017062965131e+01 0 0 0
710 2 7.3829999999999991e+00 1.1366872099805333e+01 2.6872017062965131e+01 0 0 0
712 2 7.3830000000000009e+00 8.5251540748539991e+00 2.6872017062965131e+01 0 0 0
666 2 4.9220000000000006e+00 9.9460130873296642e+00 3.0030999999999931e+01 0 0 0
668 2 4.9220000000000006e+00 8.5251540748539991e+00 3.0030999999999931e+01 0 0 0
707 2 6.1524999999999999e+00 1.2077301606043163e+01 3.0030999999999931e+01 0 0 0
709 2 6.1524999999999999e+00 1.0656442593567499e+01 3.0030999999999931e+01 0 0 0
711 2 7.3830000000000009e+00 9.9460130873296642e+00 3.0030999999999931e+01 0 0 0
713 2 7.3830000000000009e+00 8.5251540748539991e+00 3.0030999999999931e+01 0 0 0
801 2 1.1074500000000002e+01 1.2077301606043163e+01 3.0030999999999931e+01 0 0 0
803 2 1.1074500000000002e+01 1.0656442593567498e+01 3.0030999999999931e+01 0 0 0
714 2 8.6134999999999984e+00 9.2355835810918343e+00 2.6872017062965131e+01 0 0 0
760 2 9.8440000000000012e+00 8.5251540748539956e+00 3.0030999999999931e+01 0 0 0
759 2 9.8440000000000012e+00 8.5251540748539956e+00 2.6872017062965131e+01 0 0 0
804 2 1.2304999999999998e+01 1.1366872099805333e+01 2.6872017062965131e+01 0 0 0
757 2 9.8440000000000012e+00 1.1366872099805333e+01 2.6872017062965131e+01 0 0 0
802 2 1.1074500000000002e+01 1.0656442593567498e+01 2.6872017062965131e+01 0 0 0
756 2 8.6134999999999984e+00 1.0656442593567498e+01 3.0030999999999931e+01 0 0 0
433 1 8.1799277451317227e+00 1.0294251555956530e+01 1.9069770851343435e+01 -2 1 1
1968 1 1.4687328415320056e+00 1.2915478976518833e+00 1.7893137464147003e+01 1 2 0
4663 1 2.7926615715331380e+00 1.0573010564150405e+01 1.6408229383849658e+01 -1 -1 1
1315 1 1.1030087269553219e+01 8.8827158648053821e+00 1.6080657930151787e+01 1 0 1
910 2 0.0000000000000000e+00 2.8417180249513345e+00 3.3189982937037087e+01 0 0 0
911 2 0.0000000000000000e+00 0.0000000000000000e+00 3.3189982937037087e+01 0 0 0
912 2 1.2305000000000001e+00 7.1042950623783474e-01 3.3189982937037087e+01 0 0 0
916 2 1.2305000000000001e+00 2.1312885187134998e+00 3.3189982937037087e+01 0 0 0
917 2 2.4610000000000003e+00 2.8417180249513345e+00 3.3189982937037087e+01 0 0 0
918 2 2.4610000000000003e+00 0.0000000000000000e+00 3.3189982937037087e+01 0 0 0
919 2 3.6915000000000004e+00 7.1042950623783474e-01 3.3189982937037087e+01 0 0 0
927 2 3.6914999999999996e+00 2.1312885187134998e+00 3.3189982937037087e+01 0 0 0
928 2 4.9220000000000006e+00 2.8417180249513332e+00 3.3189982937037087e+01 0 0 0
929 2 4.9220000000000006e+00 0.0000000000000000e+00 3.3189982937037087e+01 0 0 0
930 2 6.1524999999999999e+00 7.1042950623783407e-01 3.3189982937037087e+01 0 0 0
942 2 6.1524999999999999e+00 2.1312885187134989e+00 3.3189982937037087e+01 0 0 0
943 2 7.3829999999999991e+00 2.8417180249513345e+00 3.3189982937037087e+01 0 0 0
944 2 7.3829999999999991e+00 0.0000000000000000e+00 3.3189982937037087e+01 0 0 0
945 2 8.6134999999999984e+00 7.1042950623783407e-01 3.3189982937037087e+01 0 0 0
961 2 8.6134999999999984e+00 2.1312885187135002e+00 3.3189982937037087e+01 0 0 0
962 2 9.8440000000000012e+00 2.8417180249513332e+00 3.3189982937037087e+01 0 0 0
963 2 9.8440000000000012e+00 0.0000000000000000e+00 3.3189982937037087e+01 0 0 0
964 2 1.1074500000000002e+01 7.1042950623783330e-01 3.3189982937037087e+01 0 0 0
984 2 1.1074500000000002e+01 2.1312885187135002e+00 3.3189982937037087e+01 0 0 0
913 2 0.0000000000000000e+00 7.1042950623783341e+00 3.3189982937037087e+01 0 0 0
914 2 0.0000000000000000e+00 4.2625770374269996e+00 3.3189982937037087e+01 0 0 0
915 2 1.2305000000000001e+00 4.9730065436648339e+00 3.3189982937037087e+01 0 0 0
923 2 1.2305000000000001e+00 6.3938655561404980e+00 3.3189982937037087e+01 0 0 0
924 2 2.4610000000000003e+00 7.1042950623783341e+00 3.3189982937037087e+01 0 0 0
925 2 2.4610000000000003e+00 4.2625770374269996e+00 3.3189982937037087e+01 0 0 0
926 2 3.6914999999999996e+00 4.9730065436648339e+00 3.3189982937037087e+01 0 0 0
938 2 3.6914999999999996e+00 6.3938655561404980e+00 3.3189982937037087e+01 0 0 0
939 2 4.9220000000000006e+00 7.1042950623783341e+00 3.3189982937037087e+01 0 0 0
940 2 4.9220000000000006e+00 4.2625770374269978e+00 3.3189982937037087e+01 0 0 0
941 2 6.1524999999999999e+00 4.9730065436648339e+00 3.3189982937037087e+01 0 0 0
957 2 6.1524999999999999e+00 6.3938655561404980e+00 3.3189982937037087e+01 0 0 0
958 2 7.3830000000000009e+00 7.1042950623783341e+00 3.3189982937037087e+01 0 0 0
959 2 7.3829999999999991e+00 4.2625770374269996e+00 3.3189982937037087e+01 0 0 0
960 2 8.6135000000000002e+00 4.9730065436648339e+00 3.3189982937037087e+01 0 0 0
980 2 8.6135000000000002e+00 6.3938655561404980e+00 3.3189982937037087e+01 0 0 0
981 2 9.8440000000000012e+00 7.1042950623783341e+00 3.3189982937037087e+01 0 0 0
982 2 9.8440000000000012e+00 4.2625770374270004e+00 3.3189982937037087e+01 0 0 0
983 2 1.1074500000000002e+01 4.9730065436648339e+00 3.3189982937037087e+01 0 0 0
1004 2 1.1074500000000002e+01 6.3938655561404980e+00 3.3189982937037087e+01 0 0 0
920 2 0.0000000000000000e+00 1.1366872099805333e+01 3.3189982937037087e+01 0 0 0
921 2 0.0000000000000000e+00 8.5251540748539991e+00 3.3189982937037087e+01 0 0 0
922 2 1.2305000000000001e+00 9.2355835810918343e+00 3.3189982937037087e+01 0 0 0
934 2 1.2305000000000001e+00 1.0656442593567498e+01 3.3189982937037087e+01 0 0 0
935 2 2.4610000000000003e+00 1.1366872099805333e+01 3.3189982937037087e+01 0 0 0
936 2 2.4610000000000003e+00 8.5251540748539991e+00 3.3189982937037087e+01 0 0 0
937 2 3.6915000000000004e+00 9.2355835810918343e+00 3.3189982937037087e+01 0 0 0
953 2 3.6914999999999996e+00 1.0656442593567499e+01 3.3189982937037087e+01 0 0 0
954 2 4.9220000000000006e+00 1.1366872099805333e+01 3.3189982937037087e+01 0 0 0
955 2 4.9220000000000006e+00 8.5251540748539991e+00 3.3189982937037087e+01 0 0 0
956 2 6.1524999999999999e+00 9.2355835810918343e+00 3.3189982937037087e+01 0 0 0
976 2 6.1524999999999999e+00 1.0656442593567499e+01 3.3189982937037087e+01 0 0 0
977 2 7.3829999999999991e+00 1.1366872099805333e+01 3.3189982937037087e+01 0 0 0
978 2 7.3830000000000009e+00 8.5251540748539991e+00 3.3189982937037087e+01 0 0 0
979 2 8.6134999999999984e+00 9.2355835810918343e+00 3.3189982937037087e+01 0 0 0
1000 2 8.6134999999999984e+00 1.0656442593567498e+01 3.3189982937037087e+01 0 0 0
1001 2 9.8440000000000012e+00 1.1366872099805333e+01 3.3189982937037087e+01 0 0 0
1002 2 9.8440000000000012e+00 8.5251540748539956e+00 3.3189982937037087e+01 0 0 0
1003 2 1.1074500000000002e+01 9.2355835810918343e+00 3.3189982937037087e+01 0 0 0
1024 2 1.1074500000000002e+01 1.0656442593567498e+01 3.3189982937037087e+01 0 0 0
1025 2 1.2304999999999998e+01 1.1366872099805333e+01 3.3189982937037087e+01 0 0 0
4599 1 1.1605912556353051e+00 2.6348454193326130e+00 3.6480021983794131e+01 0 -1 0
5253 1 4.3167296645497011e+00 2.0774955023354718e+00 3.9180507677907201e+01 0 2 -1
3603 1 7.4507863835980936e-01 1.0518487834237931e+01 3.6455904100475720e+01 1 0 -1
2020 1 1.0167188952410731e+01 9.7769742116501348e+00 4.1898612673782480e+01 -1 -1 -1
6094 1 6.1555432745304781e+00 3.3159298017049967e+00 3.5682559046552029e+01 1 0 -1
1261 1 7.7223245721143510e+00 1.2658019055390271e+00 3.6899233619798267e+01 1 0 0
3127 1 8.5697024977335516e+00 1.0317128911058937e+00 3.9648885870181687e+01 0 1 0
1800 1 9.9210039683204645e+00 2.7166541078907378e+00 3.6273776063419959e+01 0 1 -1
3033 1 1.1520177746452427e+01 7.5835687021631273e+00 4.3387168844752452e+01 1 -1 0
2846 1 3.8786713510340771e+00 5.8652110718474706e+00 3.6867652294210501e+01 -1 -2 0
1854 1 5.2375338690973665e+00 8.3363062568096726e+00 3.6800744098857109e+01 0 2 -1
286 1 1.8903647816631679e+00 7.4426493675296239e+00 3.5872835516618153e+01 2 1 -1
5038 1 6.9344187609246948e+00 5.8270752005873057e+00 3.6482246083541696e+01 0 0 0
2942 1 7.0812526054021765e+00 5.6573159789738980e+00 3.9134268162791287e+01 0 0 0
206 1 9.5254418168104440e+00 5.5836759268389899e+00 3.5597173259459439e+01 1 -1 -1
2009 1 1.8496185884840535e-01 1.7290702288904161e+00 4.2815162121431328e+01 1 2 -1
1804 1 8.8212045663118275e+00 1.1966876713220380e+01 3.7824742506062918e+01 1 0 -1
3101 1 9.6432485389065370e+00 5.5577725384841266e+00 3.9403360158648937e+01 0 1 0
62 1 5.4901771522180480e+00 9.6443115925274459e+00 3.8999859848546834e+01 1 0 -1
4843 1 3.1003696270057839e+00 1.0049694380006390e+01 3.5423324659350754e+01 1 0 0
2072 1 6.9496720274110855e+00 1.0808281238238791e+01 3.6263812932612908e+01 0 0 -1
3172 1 9.1035575157782631e+00 9.0112081258533365e+00 3.5742259656647391e+01 0 -2 0
3610 1 9.8537431097733685e-01 8.6233295916772192e+00 3.8536630314655866e+01 0 1 -1
5009 1 4.5979342169921713e+00 3.8899251914970132e+00 4.3442963439492473e+01 -1 2 0
4629 1 1.0760871468478307e+01 7.2630083704978707e+00 3.7435339576969312e+01 1 1 -1
5305 1 1.0643102805385549e+01 1.0139023514246032e+01 3.9053998995999706e+01 0 1 -1
390 1 2.5988578879544604e+00 2.4037614263154872e+00 4.1969750208881578e+01 0 1 -1
3151 1 3.0776609240734003e+00 4.5501491434658607e+00 3.9316288517297764e+01 2 0 0
1894 1 6.7451189879659861e+00 2.8848244778452008e+00 3.9941855831251402e+01 0 2 -1
7 1 6.8123918185212693e+00 2.3262465500326375e+00 4.2596694405739498e+01 1 3 -1
5344 1 3.0081604651050791e+00 1.0256850183853661e+01 3.9870075570978670e+01 1 1 0
193 1 4.0281134461327098e-02 4.2584604343016617e+00 3.9041011953076961e+01 1 -1 -1
1499 1 1.0441454869963696e+01 2.9949431281849956e+00 3.9096832914327976e+01 0 1 -1
531 1 1.1101750178767041e+01 2.2952863367096632e+00 4.3915232955103292e+01 0 0 0
1901 1 3.8759036303964134e+00 1.8943308265942136e+00 3.6525555276631195e+01 0 1 -1
342 1 1.8257761855707575e+00 8.1228993960603191e+00 4.1849282944090788e+01 0 1 -1
1341 1 1.0913605547333036e+01 1.1170256633388876e+01 3.5615086029098919e+01 -1 1 0
3374 1 9.6224655117871283e+00 6.3140681201612301e+00 4.2372842406541338e+01 3 0 -1
5364 1 7.7450514503178018e+00 8.2689766075784306e+00 4.2623651543582810e+01 1 2 -1
1752 1 5.9534118866878405e+00 7.4888200810012222e+00 4.1029478338887728e+01 1 -2 0
1879 1 3.7970341404443202e+00 5.8456680405018693e+00 4.1673516221670297e+01 2 -1 -1
96 1 3.3089766277068882e+00 1.0684138656967741e+01 4.2619828450648157e+01 1 0 -1
3810 1 1.1051416948614163e+01 6.7852211484292504e-02 4.1465610874630158e+01 1 2 -1
195 1 1.0496026436118182e+01 1.2077525801683098e+01 4.3968114519021782e+01 0 1 -1
4522 1 6.9268847406663048e-01 9.6845106881917664e-02 3.5394378129166086e+01 1 0 0
3605 1 7.1619581471578115e+00 1.7656377533642254e-03 4.3538385742810917e+01 2 -1 -1
6235 1 8.7539154420375631e+00 4.0734389988670419e+00 4.3798794832141652e+01 2 2 0
2917 1 3.5860672884735143e+00 1.3501651280203095e+00 4.4591976751554057e+01 -1 1 0
1998 1 5.0197121135133163e+00 1.1871505908626041e+01 4.5507610704843671e+01 1 -1 -1
1357 1 2.2284546191089651e+00 5.7165668710422346e-01 5.1271789541564956e+01 1 0 0
157 1 4.0624774412703557e+00 9.9289537614628731e+00 5.3205099548357580e+01 -2 1 -1
1633 1 5.8344247524486192e+00 6.8203076017872055e-01 4.6018561781676212e+01 0 1 0
2150 1 5.3137920995693415e+00 7.6454601162578406e-01 5.6586329885742771e+01 -1 1 0
30 1 5.7444574856551140e+00 3.4844038808502426e-01 4.9257681568107955e+01 2 0 0
3746 1 1.2054852266584589e+01 5.0371444984377076e+00 4.9953298067494231e+01 0 1 0
127 1 1.5820614078419331e+00 6.2469177507901541e-01 5.4199401349049907e+01 0 1 -1
313 1 1.1290178943801799e+01 6.3385844951716912e+00 5.1966915365828257e+01 0 1 -1
1763 1 2.8940133646535777e+00 6.8274791481944712e+00 4.6447317181942239e+01 1 0 -1
6431 1 1.5505311105754112e+00 4.7224053940675121e+00 4.8043532484126288e+01 1 0 -1
5349 1 1.6813006621572471e+00 8.3404202964539760e+00 4.4621507084844239e+01 0 0 -1