LAMMPS data file via write_data, version 16 Mar 2018, timestep = 8000000

6472 atoms
2 atom types

0.0000000000000000e+00 4.9219999999999999e+01 xlo xhi
0.0000000000000000e+00 4.9019635930410494e+01 ylo yhi
1.2291383339248512e+00 5.8832861666082749e+01 zlo zhi

Masses

1 18.015
2 12.01

Atoms # atomic

5186 1 2.1162646382514394e+00 3.6024540906368179e+00 3.3603979509101780e+00 -1 3 0
320 1 5.6816464370840514e-01 5.4152255061298753e+00 4.1045289579665578e+00 1 0 0
5442 1 4.6915329658657496e+00 4.1647143237996431e+00 4.3090874700259132e+00 1 3 1
4658 1 5.1534203760260082e+00 1.5559660621573486e+00 3.1433315787900602e+00 0 1 1
6108 1 8.0538992932325773e+00 2.0152691661175055e+00 4.0281078060271280e+00 2 3 1
1456 1 9.8056462640885869e+00 4.0722950419874131e+00 3.5631315655759050e+00 2 1 0
3308 1 3.9142909493643150e+00 8.1909776562470178e+00 3.9677757780521601e+00 5 3 0
5441 1 1.4736954340008817e+00 7.7892111595237177e+00 2.8338688785400361e+00 -1 5 1
3661 1 9.8879496830633204e+00 8.6791533184323750e+00 1.3076206791612337e+01 -1 1 0
3603 1 5.7131267238944927e+00 6.1888563246079444e+00 3.0175392694845113e+00 0 5 0
4881 1 8.1656194776239612e+00 6.1328011003459899e+00 4.1361968311524215e+00 -2 -2 1
5404 1 1.2234948738473269e+01 3.9414894447677766e+00 5.1992309294469310e+00 1 1 1
3310 1 6.6189397879025214e-01 1.0072848592323759e+01 4.2363041319865893e+00 1 -1 0
3597 1 5.5253335057424033e+00 1.0356028069666598e+01 3.3602298472361292e+00 1 0 0
5118 1 8.1936939036590051e+00 1.0345111289999766e+01 4.5806652814447535e+00 1 2 0
4835 1 9.5672011048927867e+00 8.2368391006590063e+00 3.7333261007975085e+00 -1 -2 1
4533 1 4.5507677227814686e-01 1.4651938560022950e+00 9.0172584978837698e+00 -1 2 1
5117 1 2.9588953098897330e+00 1.2579140690287050e+00 1.0009498900169415e+01 -1 0 0
1598 1 1.2050718791417994e+01 8.3213410494362279e+00 5.0027955110878306e+00 0 3 1
1907 1 3.1404498728016881e+00 4.4560781935126057e+00 6.6754904413039391e+00 2 3 0
58 1 5.9887919483832819e-01 5.4656153143013491e+00 9.2038482558419830e+00 0 -3 0
2860 1 4.8266202195525487e+00 7.0224656610778191e-01 6.9229740376205298e+00 -2 3 1
3437 1 4.4205857785953562e+00 3.2922977060359102e+00 8.9688828916924415e+00 -2 0 0
2101 1 7.0075569797812998e+00 3.7072199768489762e+00 9.9604505302635644e+00 2 -4 1
2122 1 6.3876105998354813e+00 3.2379944114499559e+00 6.5013373284219949e+00 1 -2 1
2966 1 8.3998658269684743e+00 1.9183288370651705e+00 8.5484571216389487e+00 4 -3 1
1935 1 1.0688377217712087e+01 2.0495241546886755e+00 9.3698249303566037e+00 -1 3 0
68 1 6.7525222584212630e-01 6.7732073626002762e+00 6.5419038363688760e+00 0 2 0
5343 1 3.1779117590467076e+00 5.4736324262486251e+00 1.0047547592513604e+01 -1 4 1
6350 1 4.5762976232732067e+00 7.2889990814756018e+00 7.0504615407869489e+00 -1 1 1
1458 1 9.0776716383661782e-01 1.3980548735235327e+00 4.2860846358466134e+00 3 -2 1
1951 1 7.1405851778470577e+00 6.0011321439646421e+00 6.7562036353162620e+00 1 -4 0
6282 1 6.8733827506632386e+00 8.3712246669580601e+00 1.0091756329918097e+01 5 -3 1
1670 1 8.2245457479861166e+00 6.0334680418629612e+00 9.1870537235470149e+00 -1 0 0
1753 1 4.2311280483982534e+00 8.0477343616361487e+00 9.9066855075874383e+00 1 4 0
5018 1 1.1990207075153211e+01 4.0414917027151773e+00 8.0101517254093970e+00 1 0 0
2984 1 1.0996465093692619e+01 6.2127107444847214e+00 8.9585373985667367e+00 4 -2 1
2050 1 7.8973777207092188e-01 9.9932174255129631e+00 9.0616559227702282e+00 2 1 1
4589 1 1.7995716276287010e+00 9.1972983238687469e+00 6.6133801177264084e+00 0 0 1
133 1 3.1157019688423886e+00 1.0350694285635493e+01 1.0480167422855361e+01 1 2 1
2948 1 4.4995328001329096e+00 1.0752428328443628e+01 6.6901742454446715e+00 0 -1 1
1854 1 6.8513568317247042e+00 9.3569609284152726e+00 6.6179836641316712e+00 3 6 0
6372 1 8.2531608995927339e+00 1.0291122713639552e+01 8.8317637929835762e+00 2 2 1
3259 1 1.1939262414524736e+01 8.3648256217756991e+00 7.9453107369411571e+00 0 4 1
6281 1 1.0949489066700089e+01 1.0585846423448105e+01 9.3494247570254139e+00 -5 1 1
5057 1 2.6117694084307566e+00 1.3402723327503911e+00 1.2862366695673296e+01 0 1 0
4896 1 1.5640904297527751e+00 3.7659084546686867e+00 1.3635711797725653e+01 3 4 0
3406 1 5.5314830498344749e+00 1.7385250088922160e+00 1.3704549320431941e+01 0 -3 1
5135 1 1.0336307651011106e+01 1.6770852380180896e+00 1.2196591782595696e+01 2 -2 0
6385 1 3.2948200947031605e+00 5.6722678928704608e+00 1.2815838090342128e+01 1 -1 1
5064 1 7.1374008535830837e+00 3.6515081830886440e+00 1.2673859653853972e+01 0 0 1
3439 1 5.8428183379066088e+00 6.1262957747627427e+00 1.3641202278448882e+01 0 -2 0
1520 1 9.7955001060518665e+00 4.0227372697235113e+00 1.3272936598350942e+01 -3 1 1
5004 1 1.1106771890083774e+01 6.2549246316283007e+00 1.2052689961201782e+01 2 2 0
1793 1 2.5621774225051581e+00 1.0456106939442641e+01 1.3026451246024298e+01 0 2 0
1529 1 1.7273292648757019e+00 7.7499855934046904e+00 1.3654273872708691e+01 -2 -3 1
6171 1 5.3787981307139630e+00 1.0405111715386388e+01 1.3286289488528142e+01 -3 -2 1
6271 1 7.2021736628858841e+00 8.3818942426252594e+00 1.2766955723902589e+01 1 0 1
1721 1 1.0898660072938140e+01 1.0789155221599090e+01 1.1952886282946253e+01 -1 0 0
1591 1 7.0871459044205976e-01 3.2149447632526780e+00 6.6587817197910226e+00 -1 1 0
1324 1 2.5485930908261101e+00 1.3635410525962171e+00 1.7511362339034747e+01 0 2 1
1816 1 1.4868525600452367e+00 3.7585230898580728e+00 1.6543157581148758e+01 2 1 0
177 1 2.8242795365292857e+00 1.3613608505619237e+00 2.0139735124383929e+01 2 0 0
4686 1 5.2085583416888328e+00 1.4208086505264683e+00 1.6341001142647279e+01 0 -2 1
1391 1 6.8826752904405266e+00 3.8803059838606599e+00 1.9798706848159291e+01 -1 1 1
1473 1 6.7184863300767637e+00 3.6548675646959325e+00 1.7140933260636913e+01 1 2 0
367 1 1.0822596533101104e+01 1.4374272724276460e+00 1.6677392936856805e+01 0 2 0
1580 1 1.0419754226300867e+01 1.6479707714557352e+00 1.9508732735369460e+01 3 1 0
4671 1 1.7178952734449455e+00 1.1803664128906574e+01 2.3940121603494305e+01 -1 2 0
3428 1 3.0548650853160546e+00 5.9212044954752443e+00 1.7595013099161566e+01 4 -1 0
169 1 3.0343603116454934e+00 5.8568239748110980e+00 2.0357210306802433e+01 1 1 1
5328 1 1.6312539566916064e+00 8.1480112850546966e+00 1.6228767731215520e+01 1 3 0
327 1 5.7432778069342820e+00 6.2288865281778589e+00 1.6403914966426562e+01 -2 -3 0
6312 1 1.0535792616053746e+01 6.0979161845299581e+00 1.6746882672895289e+01 2 5 1
1669 1 1.0524908012336667e+01 6.2862560282169477e+00 1.9482362507181108e+01 4 -2 0
4788 1 3.9139305358554949e-01 5.5896550965681868e+00 2.3676500272824338e+01 -2 1 1
1594 1 3.0453648712842751e+00 1.0486032381762609e+01 1.7007346606985784e+01 0 -1 1
3006 1 3.1205227760608620e+00 1.0364154938970245e+01 1.9707130479906755e+01 1 -3 1
2152 1 6.9333816702765301e+00 8.4015206237723277e+00 2.0125158044040486e+01 0 3 1
1595 1 7.0271721991335978e+00 8.3980200000652072e+00 1.7401246184624366e+01 -2 2 0
1431 1 5.8405824246293827e+00 1.0476442764125208e+01 1.6117876553647758e+01 3 0 1
1895 1 1.1077707432838109e+01 1.0834872971701202e+01 1.9650546202763994e+01 4 1 0
3390 1 1.1070266820914350e+01 1.0543935470365467e+01 1.6799352579211700e+01 0 2 0
50 1 4.6058118850212398e-01 1.3090926483762872e+00 2.3713218825046535e+01 3 2 0
3649 1 1.6261940848212051e+00 3.3581978561368770e+00 2.4562695872393711e+01 4 -1 0
6433 1 2.6142505065573218e-01 1.4279530022827200e+00 2.0844553574687623e+01 0 2 1
5307 1 4.2073466939090274e+00 3.8627157006426578e+00 2.3731890078467039e+01 3 1 0
5334 1 4.3933926653022048e+00 3.5125835148416913e+00 2.1020725876571419e+01 3 3 0
1466 1 5.4597723089853973e+00 1.4661412459765002e+00 2.4767977534454246e+01 0 -1 1
3415 1 7.8463088269935346e+00 1.4426123868679963e+00 2.0730199474042710e+01 0 0 1
1283 1 7.8041007171424548e+00 1.5326354183692299e+00 2.3588319379093956e+01 -3 1 1
245 1 9.3231557341282674e+00 3.9694471380412288e+00 2.4185661450669560e+01 1 2 0
3633 1 1.2216934560329040e+01 8.5172310572922090e+00 2.3287881138314031e+01 -2 2 0
418 1 1.1764648461341576e+01 3.9388232534205101e+00 2.3042961020507974e+01 3 0 0
6102 1 5.9577415605886497e-01 1.0034867850667439e+01 2.0362159402690974e+01 0 -2 1
5347 1 5.2444901928140544e+00 6.0733643130026493e+00 2.4284510603454564e+01 -2 0 1
388 1 8.1231189739483209e+00 6.1589391520495829e+00 2.3360756077825652e+01 1 2 0
3404 1 8.0888921219733376e+00 5.9886396571859963e+00 2.0555406410609475e+01 -2 1 0
138 1 9.2382781730149173e+00 8.3234054383036096e+00 1.5905420652215446e+01 2 0 0
5285 1 1.8824823300449720e+00 8.1088909346697182e+00 2.3803351264721115e+01 -3 3 0
575 1 4.5031750360965264e+00 8.2107453454077017e+00 2.0996386211836093e+01 -1 1 0
5226 1 4.3106964181627703e+00 8.4468501950224439e+00 2.3492448503642827e+01 -3 3 0
1394 1 1.1756381057602448e+01 3.9727703663080374e+00 2.0512884623311077e+01 1 0 1
6430 1 8.5186220600243185e+00 1.0844200827678051e+01 2.0530149802997858e+01 2 1 1
1287 1 5.7579290832448828e+00 1.0436158662245562e+01 2.4187334460426715e+01 1 -3 1
2184 1 8.3172183396785648e+00 1.0518885329948883e+01 2.3302160608974521e+01 -3 1 0
803 2 1.1074500000000002e+01 1.0656442593567498e+01 3.0031000000003175e+01 0 0 0
4934 1 9.2865967968210139e+00 3.6322914501058392e+00 1.5972430628779966e+01 3 -3 0
4898 1 9.6013241893762338e+00 8.3087868308696198e+00 2.4127424347482769e+01 2 -1 1
581 2 0.0000000000000000e+00 2.8417180249513345e+00 2.6786398692599743e+01 0 0 0
583 2 0.0000000000000000e+00 0.0000000000000000e+00 2.6786398692599743e+01 0 0 0
585 2 1.2305000000000001e+00 7.1042950623783474e-01 2.6786398692599743e+01 0 0 0
592 2 1.2305000000000001e+00 2.1312885187134998e+00 2.6786398692599743e+01 0 0 0
594 2 2.4610000000000003e+00 2.8417180249513345e+00 2.6786398692599743e+01 0 0 0
596 2 2.4610000000000003e+00 0.0000000000000000e+00 2.6786398692599743e+01 0 0 0
598 2 3.6915000000000004e+00 7.1042950623783474e-01 2.6786398692599743e+01 0 0 0
613 2 3.6914999999999996e+00 2.1312885187134998e+00 2.6786398692599743e+01 0 0 0
582 2 0.0000000000000000e+00 1.4208590124756650e+00 3.0031000000003175e+01 0 0 0
584 2 0.0000000000000000e+00 0.0000000000000000e+00 3.0031000000003175e+01 0 0 0
591 2 1.2305000000000001e+00 3.5521475311891644e+00 3.0031000000003175e+01 0 0 0
593 2 1.2305000000000001e+00 2.1312885187134998e+00 3.0031000000003175e+01 0 0 0
595 2 2.4610000000000003e+00 1.4208590124756650e+00 3.0031000000003175e+01 0 0 0
597 2 2.4610000000000003e+00 0.0000000000000000e+00 3.0031000000003175e+01 0 0 0
612 2 3.6914999999999996e+00 3.5521475311891644e+00 3.0031000000003175e+01 0 0 0
614 2 3.6914999999999996e+00 2.1312885187134998e+00 3.0031000000003175e+01 0 0 0
615 2 4.9220000000000006e+00 2.8417180249513332e+00 2.6786398692599743e+01 0 0 0
617 2 4.9220000000000006e+00 0.0000000000000000e+00 2.6786398692599743e+01 0 0 0
619 2 6.1524999999999999e+00 7.1042950623783407e-01 2.6786398692599743e+01 0 0 0
642 2 6.1524999999999999e+00 2.1312885187134989e+00 2.6786398692599743e+01 0 0 0
644 2 7.3829999999999991e+00 2.8417180249513345e+00 2.6786398692599743e+01 0 0 0
646 2 7.3829999999999991e+00 0.0000000000000000e+00 2.6786398692599743e+01 0 0 0
616 2 4.9220000000000006e+00 1.4208590124756650e+00 3.0031000000003175e+01 0 0 0
618 2 4.9220000000000006e+00 0.0000000000000000e+00 3.0031000000003175e+01 0 0 0
641 2 6.1524999999999999e+00 3.5521475311891644e+00 3.0031000000003175e+01 0 0 0
643 2 6.1524999999999999e+00 2.1312885187134989e+00 3.0031000000003175e+01 0 0 0
645 2 7.3829999999999991e+00 1.4208590124756659e+00 3.0031000000003175e+01 0 0 0
647 2 7.3829999999999991e+00 0.0000000000000000e+00 3.0031000000003175e+01 0 0 0
648 2 8.6134999999999984e+00 7.1042950623783407e-01 2.6786398692599743e+01 0 0 0
679 2 8.6134999999999984e+00 2.1312885187135002e+00 2.6786398692599743e+01 0 0 0
681 2 9.8440000000000012e+00 2.8417180249513332e+00 2.6786398692599743e+01 0 0 0
683 2 9.8440000000000012e+00 0.0000000000000000e+00 2.6786398692599743e+01 0 0 0
685 2 1.1074500000000002e+01 7.1042950623783330e-01 2.6786398692599743e+01 0 0 0
724 2 1.1074500000000002e+01 2.1312885187135002e+00 2.6786398692599743e+01 0 0 0
678 2 8.6134999999999984e+00 3.5521475311891657e+00 3.0031000000003175e+01 0 0 0
680 2 8.6134999999999984e+00 2.1312885187135002e+00 3.0031000000003175e+01 0 0 0
682 2 9.8440000000000012e+00 1.4208590124756659e+00 3.0031000000003175e+01 0 0 0
684 2 9.8440000000000012e+00 0.0000000000000000e+00 3.0031000000003175e+01 0 0 0
723 2 1.1074500000000002e+01 3.5521475311891644e+00 3.0031000000003175e+01 0 0 0
725 2 1.1074500000000002e+01 2.1312885187135002e+00 3.0031000000003175e+01 0 0 0
586 2 0.0000000000000000e+00 7.1042950623783341e+00 2.6786398692599743e+01 0 0 0
588 2 0.0000000000000000e+00 4.2625770374269996e+00 2.6786398692599743e+01 0 0 0
590 2 1.2305000000000001e+00 4.9730065436648339e+00 2.6786398692599743e+01 0 0 0
605 2 1.2305000000000001e+00 6.3938655561404980e+00 2.6786398692599743e+01 0 0 0
607 2 2.4610000000000003e+00 7.1042950623783341e+00 2.6786398692599743e+01 0 0 0
609 2 2.4610000000000003e+00 4.2625770374269996e+00 2.6786398692599743e+01 0 0 0
611 2 3.6914999999999996e+00 4.9730065436648339e+00 2.6786398692599743e+01 0 0 0
634 2 3.6914999999999996e+00 6.3938655561404980e+00 2.6786398692599743e+01 0 0 0
587 2 0.0000000000000000e+00 5.6834360499026637e+00 3.0031000000003175e+01 0 0 0
589 2 0.0000000000000000e+00 4.2625770374269996e+00 3.0031000000003175e+01 0 0 0
604 2 1.2305000000000001e+00 7.8147245686161639e+00 3.0031000000003175e+01 0 0 0
606 2 1.2305000000000001e+00 6.3938655561404980e+00 3.0031000000003175e+01 0 0 0
608 2 2.4610000000000003e+00 5.6834360499026637e+00 3.0031000000003175e+01 0 0 0
610 2 2.4610000000000003e+00 4.2625770374269996e+00 3.0031000000003175e+01 0 0 0
633 2 3.6914999999999996e+00 7.8147245686161639e+00 3.0031000000003175e+01 0 0 0
635 2 3.6914999999999996e+00 6.3938655561404980e+00 3.0031000000003175e+01 0 0 0
636 2 4.9220000000000006e+00 7.1042950623783341e+00 2.6786398692599743e+01 0 0 0
638 2 4.9220000000000006e+00 4.2625770374269978e+00 2.6786398692599743e+01 0 0 0
640 2 6.1524999999999999e+00 4.9730065436648339e+00 2.6786398692599743e+01 0 0 0
671 2 6.1524999999999999e+00 6.3938655561404980e+00 2.6786398692599743e+01 0 0 0
673 2 7.3830000000000009e+00 7.1042950623783341e+00 2.6786398692599743e+01 0 0 0
675 2 7.3829999999999991e+00 4.2625770374269996e+00 2.6786398692599743e+01 0 0 0
637 2 4.9220000000000006e+00 5.6834360499026637e+00 3.0031000000003175e+01 0 0 0
639 2 4.9220000000000006e+00 4.2625770374269978e+00 3.0031000000003175e+01 0 0 0
670 2 6.1524999999999999e+00 7.8147245686161639e+00 3.0031000000003175e+01 0 0 0
672 2 6.1524999999999999e+00 6.3938655561404980e+00 3.0031000000003175e+01 0 0 0
674 2 7.3829999999999991e+00 5.6834360499026637e+00 3.0031000000003175e+01 0 0 0
676 2 7.3829999999999991e+00 4.2625770374269996e+00 3.0031000000003175e+01 0 0 0
677 2 8.6135000000000002e+00 4.9730065436648339e+00 2.6786398692599743e+01 0 0 0
716 2 8.6135000000000002e+00 6.3938655561404980e+00 2.6786398692599743e+01 0 0 0
718 2 9.8440000000000012e+00 7.1042950623783341e+00 2.6786398692599743e+01 0 0 0
720 2 9.8440000000000012e+00 4.2625770374270004e+00 2.6786398692599743e+01 0 0 0
722 2 1.1074500000000002e+01 4.9730065436648339e+00 2.6786398692599743e+01 0 0 0
763 2 1.1074500000000002e+01 6.3938655561404980e+00 2.6786398692599743e+01 0 0 0
715 2 8.6135000000000002e+00 7.8147245686161639e+00 3.0031000000003175e+01 0 0 0
717 2 8.6135000000000002e+00 6.3938655561404980e+00 3.0031000000003175e+01 0 0 0
719 2 9.8440000000000012e+00 5.6834360499026637e+00 3.0031000000003175e+01 0 0 0
721 2 9.8440000000000012e+00 4.2625770374270004e+00 3.0031000000003175e+01 0 0 0
762 2 1.1074500000000002e+01 7.8147245686161639e+00 3.0031000000003175e+01 0 0 0
764 2 1.1074500000000002e+01 6.3938655561404980e+00 3.0031000000003175e+01 0 0 0
599 2 0.0000000000000000e+00 1.1366872099805333e+01 2.6786398692599743e+01 0 0 0
601 2 0.0000000000000000e+00 8.5251540748539991e+00 2.6786398692599743e+01 0 0 0
603 2 1.2305000000000001e+00 9.2355835810918343e+00 2.6786398692599743e+01 0 0 0
626 2 1.2305000000000001e+00 1.0656442593567498e+01 2.6786398692599743e+01 0 0 0
628 2 2.4610000000000003e+00 1.1366872099805333e+01 2.6786398692599743e+01 0 0 0
630 2 2.4610000000000003e+00 8.5251540748539991e+00 2.6786398692599743e+01 0 0 0
632 2 3.6915000000000004e+00 9.2355835810918343e+00 2.6786398692599743e+01 0 0 0
663 2 3.6914999999999996e+00 1.0656442593567499e+01 2.6786398692599743e+01 0 0 0
600 2 0.0000000000000000e+00 9.9460130873296642e+00 3.0031000000003175e+01 0 0 0
602 2 0.0000000000000000e+00 8.5251540748539991e+00 3.0031000000003175e+01 0 0 0
625 2 1.2305000000000001e+00 1.2077301606043163e+01 3.0031000000003175e+01 0 0 0
627 2 1.2305000000000001e+00 1.0656442593567498e+01 3.0031000000003175e+01 0 0 0
629 2 2.4610000000000003e+00 9.9460130873296642e+00 3.0031000000003175e+01 0 0 0
631 2 2.4610000000000003e+00 8.5251540748539991e+00 3.0031000000003175e+01 0 0 0
662 2 3.6914999999999996e+00 1.2077301606043163e+01 3.0031000000003175e+01 0 0 0
664 2 3.6914999999999996e+00 1.0656442593567499e+01 3.0031000000003175e+01 0 0 0
668 2 4.9220000000000006e+00 8.5251540748539991e+00 3.0031000000003175e+01 0 0 0
707 2 6.1524999999999999e+00 1.2077301606043163e+01 3.0031000000003175e+01 0 0 0
709 2 6.1524999999999999e+00 1.0656442593567499e+01 3.0031000000003175e+01 0 0 0
711 2 7.3830000000000009e+00 9.9460130873296642e+00 3.0031000000003175e+01 0 0 0
713 2 7.3830000000000009e+00 8.5251540748539991e+00 3.0031000000003175e+01 0 0 0
669 2 6.1524999999999999e+00 9.2355835810918343e+00 2.6786398692599743e+01 0 0 0
667 2 4.9220000000000006e+00 8.5251540748539991e+00 2.6786398692599743e+01 0 0 0
665 2 4.9220000000000006e+00 1.1366872099805333e+01 2.6786398692599743e+01 0 0 0
708 2 6.1524999999999999e+00 1.0656442593567499e+01 2.6786398692599743e+01 0 0 0
710 2 7.3829999999999991e+00 1.1366872099805333e+01 2.6786398692599743e+01 0 0 0
666 2 4.9220000000000006e+00 9.9460130873296642e+00 3.0031000000003175e+01 0 0 0
712 2 7.3830000000000009e+00 8.5251540748539991e+00 2.6786398692599743e+01 0 0 0
801 2 1.1074500000000002e+01 1.2077301606043163e+01 3.0031000000003175e+01 0 0 0
758 2 9.8440000000000012e+00 9.9460130873296642e+00 3.0031000000003175e+01 0 0 0
760 2 9.8440000000000012e+00 8.5251540748539956e+00 3.0031000000003175e+01 0 0 0
714 2 8.6134999999999984e+00 9.2355835810918343e+00 2.6786398692599743e+01 0 0 0
756 2 8.6134999999999984e+00 1.0656442593567498e+01 3.0031000000003175e+01 0 0 0
804 2 1.2304999999999998e+01 1.1366872099805333e+01 2.6786398692599743e+01 0 0 0
802 2 1.1074500000000002e+01 1.0656442593567498e+01 2.6786398692599743e+01 0 0 0
761 2 1.1074500000000002e+01 9.2355835810918343e+00 2.6786398692599743e+01 0 0 0
755 2 8.6134999999999984e+00 1.0656442593567498e+01 2.6786398692599743e+01 0 0 0
757 2 9.8440000000000012e+00 1.1366872099805333e+01 2.6786398692599743e+01 0 0 0
759 2 9.8440000000000012e+00 8.5251540748539956e+00 2.6786398692599743e+01 0 0 0
754 2 8.6135000000000002e+00 1.2077301606043163e+01 3.0031000000003175e+01 0 0 0
3357 1 1.1862319403540182e+01 8.4285484911518704e+00 2.0446852887348673e+01 3 1 0
2938 1 4.1752548963416064e-01 5.8141084773203451e+00 2.0855669347921619e+01 1 2 1
3161 1 1.1572418595147949e+01 5.1800299362703583e-02 2.3297566081930796e+01 -4 -2 1
910 2 0.0000000000000000e+00 2.8417180249513345e+00 3.3275601307390133e+01 0 0 0
911 2 0.0000000000000000e+00 0.0000000000000000e+00 3.3275601307390133e+01 0 0 0
912 2 1.2305000000000001e+00 7.1042950623783474e-01 3.3275601307390133e+01 0 0 0
916 2 1.2305000000000001e+00 2.1312885187134998e+00 3.3275601307390133e+01 0 0 0
917 2 2.4610000000000003e+00 2.8417180249513345e+00 3.3275601307390133e+01 0 0 0
918 2 2.4610000000000003e+00 0.0000000000000000e+00 3.3275601307390133e+01 0 0 0
919 2 3.6915000000000004e+00 7.1042950623783474e-01 3.3275601307390133e+01 0 0 0
927 2 3.6914999999999996e+00 2.1312885187134998e+00 3.3275601307390133e+01 0 0 0
928 2 4.9220000000000006e+00 2.8417180249513332e+00 3.3275601307390133e+01 0 0 0
929 2 4.9220000000000006e+00 0.0000000000000000e+00 3.3275601307390133e+01 0 0 0
930 2 6.1524999999999999e+00 7.1042950623783407e-01 3.3275601307390133e+01 0 0 0
942 2 6.1524999999999999e+00 2.1312885187134989e+00 3.3275601307390133e+01 0 0 0
943 2 7.3829999999999991e+00 2.8417180249513345e+00 3.3275601307390133e+01 0 0 0
944 2 7.3829999999999991e+00 0.0000000000000000e+00 3.3275601307390133e+01 0 0 0
945 2 8.6134999999999984e+00 7.1042950623783407e-01 3.3275601307390133e+01 0 0 0
961 2 8.6134999999999984e+00 2.1312885187135002e+00 3.3275601307390133e+01 0 0 0
962 2 9.8440000000000012e+00 2.8417180249513332e+00 3.3275601307390133e+01 0 0 0
963 2 9.8440000000000012e+00 0.0000000000000000e+00 3.3275601307390133e+01 0 0 0
964 2 1.1074500000000002e+01 7.1042950623783330e-01 3.3275601307390133e+01 0 0 0
984 2 1.1074500000000002e+01 2.1312885187135002e+00 3.3275601307390133e+01 0 0 0
913 2 0.0000000000000000e+00 7.1042950623783341e+00 3.3275601307390133e+01 0 0 0
914 2 0.0000000000000000e+00 4.2625770374269996e+00 3.3275601307390133e+01 0 0 0
915 2 1.2305000000000001e+00 4.9730065436648339e+00 3.3275601307390133e+01 0 0 0
923 2 1.2305000000000001e+00 6.3938655561404980e+00 3.3275601307390133e+01 0 0 0
924 2 2.4610000000000003e+00 7.1042950623783341e+00 3.3275601307390133e+01 0 0 0
925 2 2.4610000000000003e+00 4.2625770374269996e+00 3.3275601307390133e+01 0 0 0
926 2 3.6914999999999996e+00 4.9730065436648339e+00 3.3275601307390133e+01 0 0 0
938 2 3.6914999999999996e+00 6.3938655561404980e+00 3.3275601307390133e+01 0 0 0
939 2 4.9220000000000006e+00 7.1042950623783341e+00 3.3275601307390133e+01 0 0 0
940 2 4.9220000000000006e+00 4.2625770374269978e+00 3.3275601307390133e+01 0 0 0
941 2 6.1524999999999999e+00 4.9730065436648339e+00 3.3275601307390133e+01 0 0 0
957 2 6.1524999999999999e+00 6.3938655561404980e+00 3.3275601307390133e+01 0 0 0
958 2 7.3830000000000009e+00 7.1042950623783341e+00 3.3275601307390133e+01 0 0 0
959 2 7.3829999999999991e+00 4.2625770374269996e+00 3.3275601307390133e+01 0 0 0
960 2 8.6135000000000002e+00 4.9730065436648339e+00 3.3275601307390133e+01 0 0 0
980 2 8.6135000000000002e+00 6.3938655561404980e+00 3.3275601307390133e+01 0 0 0
981 2 9.8440000000000012e+00 7.1042950623783341e+00 3.3275601307390133e+01 0 0 0
982 2 9.8440000000000012e+00 4.2625770374270004e+00 3.3275601307390133e+01 0 0 0
983 2 1.1074500000000002e+01 4.9730065436648339e+00 3.3275601307390133e+01 0 0 0
1004 2 1.1074500000000002e+01 6.3938655561404980e+00 3.3275601307390133e+01 0 0 0
920 2 0.0000000000000000e+00 1.1366872099805333e+01 3.3275601307390133e+01 0 0 0
921 2 0.0000000000000000e+00 8.5251540748539991e+00 3.3275601307390133e+01 0 0 0
922 2 1.2305000000000001e+00 9.2355835810918343e+00 3.3275601307390133e+01 0 0 0
934 2 1.2305000000000001e+00 1.0656442593567498e+01 3.3275601307390133e+01 0 0 0
935 2 2.4610000000000003e+00 1.1366872099805333e+01 3.3275601307390133e+01 0 0 0
936 2 2.4610000000000003e+00 8.5251540748539991e+00 3.3275601307390133e+01 0 0 0
937 2 3.6915000000000004e+00 9.2355835810918343e+00 3.3275601307390133e+01 0 0 0
953 2 3.6914999999999996e+00 1.0656442593567499e+01 3.3275601307390133e+01 0 0 0
954 2 4.9220000000000006e+00 1.1366872099805333e+01 3.3275601307390133e+01 0 0 0
955 2 4.9220000000000006e+00 8.5251540748539991e+00 3.3275601307390133e+01 0 0 0
956 2 6.1524999999999999e+00 9.2355835810918343e+00 3.3275601307390133e+01 0 0 0
976 2 6.1524999999999999e+00 1.0656442593567499e+01 3.3275601307390133e+01 0 0 0
977 2 7.3829999999999991e+00 1.1366872099805333e+01 3.3275601307390133e+01 0 0 0
978 2 7.3830000000000009e+00 8.5251540748539991e+00 3.3275601307390133e+01 0 0 0
979 2 8.6134999999999984e+00 9.2355835810918343e+00 3.3275601307390133e+01 0 0 0
1000 2 8.6134999999999984e+00 1.0656442593567498e+01 3.3275601307390133e+01 0 0 0
1001 2 9.8440000000000012e+00 1.1366872099805333e+01 3.3275601307390133e+01 0 0 0
1002 2 9.8440000000000012e+00 8.5251540748539956e+00 3.3275601307390133e+01 0 0 0
1003 2 1.1074500000000002e+01 9.2355835810918343e+00 3.3275601307390133e+01 0 0 0
1024 2 1.1074500000000002e+01 1.0656442593567498e+01 3.3275601307390133e+01 0 0 0
1025 2 1.2304999999999998e+01 1.1366872099805333e+01 3.3275601307390133e+01 0 0 0
1709 1 1.9199963039200831e+00 3.4966382366529207e+00 3.6770009250367501e+01 1 0 -1
3339 1 1.8411450985019495e+00 3.3400189964439209e+00 3.9513378826601183e+01 1 -2 0
3463 1 3.3620545931040726e+00 1.3544241397349985e+00 3.5817309013729208e+01 -2 -1 -1
6471 1 6.1550715854273310e+00 2.0151496650276548e+00 3.6495949259151345e+01 1 -1 0
3446 1 1.3913663410239716e+00 1.2135882125017632e+01 3.6271742986262524e+01 2 2 -1
4565 1 8.9680053905110242e+00 1.2603845721229734e+00 3.6703594953466272e+01 0 2 0
1351 1 8.6321240029831152e+00 1.3093930083109717e+00 3.9374109747420960e+01 -1 -3 0
1720 1 9.9670245503247816e+00 3.7052811400756127e+00 3.5986781754525708e+01 0 1 -1
6161 1 3.3589652692289644e+00 5.4722196319332443e+00 3.5873447091971130e+01 5 -2 0
3169 1 1.9172499101271610e+00 7.6547538336149854e+00 3.6422151340016583e+01 -2 -1 0
190 1 2.1379588021524527e+00 7.6990800542022129e+00 3.9219643827529836e+01 5 0 -1
6469 1 3.1212462501774279e+00 5.4525018697366825e+00 4.0412975505842368e+01 -1 4 -1
1414 1 5.9232828651994041e+00 4.8867421069829478e+00 3.6867970951905576e+01 3 0 0
1377 1 8.5875192565011407e+00 5.7515578677989412e+00 3.7188784709286281e+01 -4 -4 0
5281 1 9.6945224307254243e+00 7.9537854362282880e+00 3.6032616024908450e+01 3 1 -1
3128 1 3.0312520912765755e+00 1.0157856013858158e+01 3.5888123808477815e+01 -1 1 0
4784 1 5.5942518604815046e+00 1.1349628449377301e+01 3.6570401970129630e+01 1 -2 -1
1728 1 8.3001778189213447e+00 1.0072244283207359e+01 3.7104700699887424e+01 1 2 -1
1443 1 1.6858308235328179e+00 1.2066205910613437e+01 3.8925554346831056e+01 2 -2 0
3544 1 2.0259063997707480e+00 3.3184707461156444e+00 4.3760781797987313e+01 4 0 -1
2980 1 3.4620795251700716e+00 1.0278412810488582e+00 4.3124523062070345e+01 -2 -1 0
3001 1 3.0022854613498438e+00 1.0811562772407923e+00 4.0193645180137146e+01 0 4 0
149 1 6.0134844255226136e+00 1.9384424877811322e+00 4.0305975465304030e+01 2 1 -1
1660 1 7.2927557500138604e+00 3.0071383110271328e+00 4.3929732559402211e+01 0 1 0
2127 1 6.1835073106375269e+00 6.5545801845397045e-01 4.2890362988979419e+01 -4 3 -1
2058 1 1.1313364294178278e+01 1.0311756859844885e+00 4.4020030692379670e+01 -1 5 -1
1933 1 1.0059337977621292e+01 3.3862096244480671e+00 4.0488831385485980e+01 -2 1 -1
4842 1 1.0010554530307637e+01 3.2794242392776822e+00 4.3057629406747409e+01 0 4 0
1862 1 3.2434532990939458e+00 5.5654383341448437e+00 4.3187747514609860e+01 -1 1 -1
5098 1 1.9117533992149411e+00 7.8397445253994222e+00 4.3741338117469795e+01 -1 -5 -1
3157 1 5.9518402448492482e+00 4.7757292847179444e+00 4.0209749085301006e+01 0 2 0
109 1 6.0639948384934126e+00 5.1838544310183128e+00 4.3323170437345659e+01 3 2 -1
1542 1 8.3361273250575945e+00 5.7308692859619539e+00 4.0035556768965961e+01 -4 -2 0
4550 1 9.5825122508688061e+00 8.0138586330429131e+00 4.3714669253532968e+01 1 1 0
3294 1 9.8281516394665083e+00 8.0790279479321931e+00 4.0897003787854530e+01 0 1 -1
353 1 1.1031330198782424e+01 5.6435723609650248e+00 4.4090359390127169e+01 3 -4 -1
2913 1 3.6026589742075701e+00 1.0165699443734427e+01 4.3041450893059441e+01 -2 0 0
181 1 3.2946884873531026e+00 1.0028009576089930e+01 4.0279646726099045e+01 0 -2 -1
4895 1 6.6154462842293951e+00 1.0217187405678724e+01 4.2477529949676359e+01 1 -3 0
2163 1 5.7780601328870045e+00 1.0907960773595706e+01 3.9775630267588681e+01 -1 4 0
3790 1 6.9776752585043091e+00 7.8355871114044069e+00 4.4222427090003222e+01 1 0 -1
171 1 8.5436385759929117e+00 1.0138981665536086e+01 3.9711011028349951e+01 4 -2 0
299 1 1.0020396749989322e+01 1.1747753003462526e+01 3.5917652116716631e+01 -2 1 -1
2052 1 1.2237584425683972e+01 7.6972044661032060e+00 3.9702006814318558e+01 0 -3 -1
6392 1 1.1016489127699613e+01 1.0399466209491303e+01 4.4001412776750456e+01 0 1 0
150 1 2.3257349610760283e+00 3.8807196062351390e+00 4.6646656717117580e+01 0 1 -1
100 1 7.8934826232098720e-01 1.5687653739667784e+00 4.7358808405487558e+01 0 -1 -1
1718 1 4.7395150082085369e+00 1.7973173688648287e+00 4.5767492242899394e+01 -2 2 0
4886 1 7.6597848526067951e+00 3.3121751460153610e+00 4.6627976060486041e+01 0 3 -1
5371 1 8.6153439574353108e+00 1.1916721772925085e+00 4.7633982466374583e+01 -2 1 0
1396 1 1.1415704668766717e+01 1.1127450540102044e+00 4.6908500466140204e+01 -1 1 0
6098 1 5.3052207389377759e-01 5.8286732910892018e+00 4.7122384871941520e+01 3 -1 0
5051 1 4.9473338225130581e+00 4.2612366872437368e+00 4.7281763756698879e+01 2 -1 -1
4799 1 4.6846887044029737e+00 7.1715867219037301e+00 4.7091307754188506e+01 1 2 -1
128 1 6.9493704448433160e+00 8.2884226194096193e+00 4.7000884177558220e+01 6 5 0
5101 1 8.4483173023623266e+00 5.8400435694108443e+00 4.7567760112617691e+01 4 0 0
1644 1 1.0912399935671388e+01 5.5900719244703758e+00 4.6986604153274747e+01 0 2 -1
66 1 6.2716248097310445e-01 6.0322635476316115e+00 5.4827207953014195e+01 5 1 0
1617 1 2.0440035816509123e+00 8.0670077983994606e+00 4.6500150604837138e+01 -1 0 0
3558 1 6.9155011635087515e-01 1.0217963061102612e+01 4.7594157719192019e+01 2 1 -1
3466 1 8.2320521775119637e+00 1.0664779822762121e+01 4.7871363645010511e+01 3 0 -1
5276 1 1.0810898266686397e+01 1.0457486063980024e+01 4.6903608839366271e+01 4 1 -1
3402 1 3.2366432215668413e+00 1.2717966766842654e+00 5.1084869519991798e+01 0 -1 -1
5003 1 3.3382069307487150e+00 1.2672328273628444e+00 5.3816166142964825e+01 1 2 -1
3332 1 5.6032180748142102e-01 1.1046866295329132e+00 5.0231416248660572e+01 -2 0 -1
1855 1 4.3126889704966516e+00 3.6343513058194197e+00 5.0027876909388240e+01 0 1 0
2862 1 6.8636712770643014e+00 3.9890991632481905e+00 5.0881035435090034e+01 -1 -1 0
3430 1 6.6693775342120247e+00 3.8278394711012185e+00 5.3450443790023684e+01 0 -2 -1
294 1 8.4840672847345946e+00 1.7162814037410414e+00 5.0368528335956903e+01 0 -1 -1