LAMMPS data file via write_data, version 29 Oct 2020, timestep = 250000

6337 atoms
2 atom types

0.0 49.22 xlo xhi
0.0 49.019635930410494 ylo yhi
2.1778032002575003 57.88419679974031 zlo zhi

Masses

1 18.015
2 12.01

Atoms # atomic

2026 1 9.386759607132335 6.425782474723087 3.0333454337107217 1 1 1
3293 1 0.22277406893654486 4.588807893952097 16.91044679175679 0 1 0
141 1 15.079522739234902 17.52017604617841 3.9651050737036027 0 0 0
3387 1 10.709615879573942 1.2261516132749204 3.195523700683487 0 0 1
1844 1 16.53810892712866 0.7319116842383129 6.670330484816609 0 1 0
6277 1 24.410254896400335 22.08467180081749 20.094562861397854 0 1 0
4598 1 3.2844220410249463 22.96763860986924 15.210635338635909 1 0 1
83 1 24.127626552993217 21.660506711045205 17.50198913819762 0 0 0
4863 1 23.627643224081346 14.640752992228418 19.70971988349187 0 1 0
4938 1 14.474784740799112 6.582344282150174 2.54600110310742 0 0 0
2982 1 10.86741706598197 24.189469406038917 13.06518165885035 0 1 0
1591 1 8.104941594744016 4.638799746749324 4.604131547593081 -1 0 1
6039 1 8.446210367632828 1.9891133466723214 4.292697969572916 1 0 1
2008 1 9.094651202553768 4.848097385886493 7.076691725038763 0 1 0
103 1 11.552843006907441 4.3697838553409145 6.381450712550458 0 0 1
4523 1 20.62473546652123 11.087162875431792 2.8474840457575623 1 0 1
3254 1 16.323778554949026 6.002594559140365 5.0741888846941805 0 0 1
24 1 17.006861576185276 3.630338514294736 6.804287995516309 0 1 1
2059 1 19.694010596236637 3.743274970683491 6.485667104283691 0 1 0
6308 1 22.146185176679882 7.940521940237664 3.486209141026875 0 0 0
1427 1 2.2012904686144097 7.182096733704707 5.13391991847989 0 1 0
6249 1 5.5207619376411845 5.040846755569601 5.65209271836966 0 0 1
1292 1 18.91535956628779 1.5676671026753022 2.3134157108404314 0 0 1
1438 1 13.089355823083045 6.29154342159211 7.515289978561205 0 1 0
282 1 14.670626937554058 7.871824625334625 5.934777975252091 1 0 0
4465 1 20.940284970408413 5.277268270943963 8.725503758844505 0 0 1
4521 1 20.829720241603887 7.940374299275811 6.036650846495429 0 0 1
155 1 2.1044465643120827 9.530999262821885 3.3579494937103265 1 1 1
2040 1 7.040149779451836 23.758671946219387 11.697701733297729 0 0 0
5282 1 8.555981926808219 8.932506059012285 4.505306922929062 0 0 1
3051 1 12.327185921655667 13.39092750099233 4.8519724863538745 1 0 1
264 1 22.10297389130949 10.910205287969424 17.9295369369124 1 0 0
4794 1 16.952994086653973 11.604919711813675 5.013866305910424 1 0 1
4965 1 12.764241011636841 10.331895271772067 4.964032902633676 1 1 0
1901 1 17.890728177638753 9.748226099744706 3.218922330681501 -1 1 0
2834 1 16.06338464454415 9.413644203634377 7.905549269760086 0 1 1
3650 1 21.688040180258074 13.6219097179162 7.107461532377058 0 0 0
1583 1 24.566112190830232 11.80132414211225 3.6757325222375608 -1 0 1
1988 1 24.22282532819543 12.537063312617766 6.11959890023444 0 0 0
5302 1 4.295343854253379 6.720581231668963 3.2343033042657554 0 1 1
3029 1 23.74102789891292 0.0869345247196884 9.27552624471031 1 -1 1
6192 1 4.879115251483835 18.130966179972184 4.945486261777315 1 0 0
3569 1 4.112856465367621 13.325183200953903 3.479802579265505 0 1 0
432 1 5.642774323541889 13.336477216205012 5.612825665258613 0 0 1
4715 1 16.55461989905356 0.9328017596647556 3.851198496916492 1 1 1
6090 1 13.804570084929376 15.246050522657086 7.298980422344882 0 0 1
1578 1 17.524220089819288 14.368035871975247 4.981781865641153 1 0 1
4786 1 20.23630755367568 14.096746525130929 4.640833981747724 0 1 0
546 1 0.85202961338087 4.126407921006261 8.038424920423887 1 1 0
4980 1 20.523143034172158 23.749732378101857 19.089234039818784 0 0 1
366 1 22.892333666089133 3.2935747128088546 3.658554643060938 0 1 0
1646 1 2.50330319729857 16.525839041791105 5.894824673501009 1 0 1
4597 1 21.285762004633508 0.7979133654018934 18.28940972842076 -1 0 0
1314 1 8.010851099166741 18.881464512597734 4.717119292698733 1 0 1
2954 1 12.262071017047791 16.559070012252082 4.179170538908076 0 0 1
5228 1 13.39645046091876 21.494261880709487 4.753897527489793 0 0 1
3440 1 3.3973232388761625 19.462860838625115 19.539703057843465 0 0 0
1652 1 16.984455899083358 19.130427491239562 6.0494062394619945 -1 0 1
3424 1 22.757408018590528 14.796712656001272 15.673489908952694 -1 0 0
1856 1 0.18442943228968475 8.333670904500392 19.139837447348633 0 1 0
5305 1 20.91171255252333 21.195651521528173 6.391976999536618 0 0 1
1815 1 19.956818790294168 20.77129388299689 3.623300054020545 0 1 0
6128 1 1.8202850293126989 22.336346264972516 4.333311182801059 1 0 1
1981 1 9.299300616439428 23.681109272562434 4.323476148799826 0 0 0
4641 1 11.797067737347987 23.270493911483342 3.6925011620229498 -1 0 1
3434 1 0.9691048306785243 21.97146868075441 16.791419260013242 1 0 1
6328 1 22.79504677114644 18.266630776796237 8.50611798573668 0 0 0
2894 1 13.970154530950369 0.1914501674606869 7.42187732454604 1 1 1
1797 1 0.36381795697575986 15.916943637678017 16.255635828795057 0 1 1
530 1 0.8939779827686786 13.734357958980915 17.89251366425166 -1 1 0
3422 1 23.69515002401146 15.829260183175705 7.305951612109929 -1 1 0
3197 1 7.685531718692682 0.046110094340417 14.106078109093206 1 0 1
2908 1 22.497515011033197 17.62070663498775 18.764577150467954 0 0 1
2839 1 9.13121411200531 1.113700215487286 9.175501079229615 0 1 0
4661 1 11.738930982249773 2.168385785327242 8.239357142995921 1 0 1
4997 1 23.744282967706525 13.125501445804396 17.49919979310323 0 1 0
2950 1 19.63284419943152 1.2297190690792719 7.784572475992053 0 0 1
6320 1 24.5077508429632 8.755170093680825 12.325147551995633 0 1 1
2010 1 24.450256795595255 16.813696199405314 4.632053916440528 -1 0 0
3315 1 23.540648001172798 2.381322135268485 6.215011646252319 -1 0 0
1443 1 2.699679567562535 3.8226735192328944 5.797274629064026 0 0 1
3461 1 3.1305242131903483 1.4647435313526749 7.263396403176175 1 0 1
4901 1 5.323797969651602 4.254978360549377 10.096786058379458 1 1 0
6227 1 8.366644638303418 3.787258878669372 9.641062015661351 0 0 1
504 1 9.472509113290782 5.199226951815226 11.52475037692724 1 0 0
1884 1 15.175763283118235 4.903927684418582 8.94457415460531 0 1 0
33 1 17.706186996777095 2.4362089615057925 11.262859526172083 0 -1 0
4972 1 18.03322607603261 4.66592313406546 9.567629236105258 0 0 0
6006 1 22.21819854486386 2.4911327990789647 8.700196877596063 0 1 1
1695 1 22.373749615340326 5.440341455673089 6.214549134355059 0 0 0
1773 1 6.406716887277101 8.975697023161777 8.919641865193869 0 1 0
2974 1 3.2703925559166676 7.95069237971591 7.911391193394491 1 0 1
1535 1 5.428816015094204 6.338870961683758 8.19195364494389 0 0 0
74 1 11.290710348326451 7.480426096135755 10.756594834556532 0 0 0
5207 1 13.83264739954111 7.752598265899186 11.732878299975834 0 0 0
2846 1 15.923013453857212 7.33753774429154 9.790732058283538 0 1 1
4967 1 13.75935677101256 10.639304927256466 9.641118998727208 1 1 0
4501 1 18.621026701544384 7.285786583173917 4.3814690960224 0 0 0
3705 1 23.391733831565055 5.989391199810646 10.287842681664456 0 0 1
4881 1 21.09151389593842 11.027682550471733 5.647075471553306 0 1 1
209 1 1.9848291629985426 10.621555112677743 5.900282372236257 0 1 1
4766 1 4.599547989474858 10.54349415059385 7.773989768624819 1 -1 0
4639 1 7.4788930351271015 11.012393033679803 6.197086179677312 1 1 1
265 1 10.753135660226368 13.202502309248885 9.04739423168009 1 0 0
1952 1 8.470370533452972 7.683705232598096 7.123957069801629 1 0 0
2991 1 11.008072659278396 8.048884007882117 8.038870095163205 0 0 1
4430 1 11.728776097859015 10.36280212060441 7.644752036948887 1 0 0
347 1 19.09261325758921 12.161013913152313 9.453953934142538 0 0 0
1332 1 18.397307011814945 10.616175967245006 7.137838422915885 0 0 1
3095 1 19.814303174855855 7.927817018130132 8.498129346865957 1 1 1
188 1 21.818038952004407 11.93996885836172 9.581600258051393 0 1 0
3678 1 22.53017532605159 9.309415693332037 9.068651944115631 0 1 1
1910 1 2.125779333611616 14.203772167218071 7.5414875533225 -1 0 0
3072 1 1.9775436891240628 13.115982700380945 4.937333988512373 1 1 1
5198 1 6.371696376780724 16.504169018813762 6.937519636076489 1 0 0
4736 1 8.195092966238091 14.834543120391992 5.488202803530097 0 0 0
3136 1 11.56469683602025 13.668512234035623 11.444497377608686 0 1 0
1631 1 13.882473336391884 19.044288526739077 9.14004828364872 1 0 1
321 1 10.586074626853323 15.223441931705015 6.837726791350412 0 -1 0
4833 1 14.575173965769942 12.1541796197512 6.554413635882269 0 0 0
5251 1 21.145195204100567 16.892448701536747 5.179315489886746 0 0 1
1452 1 17.528345494539394 14.88794293931383 9.058039661725196 0 0 1
6215 1 2.2932452262922336 23.935311739048938 20.41515548770943 0 0 1
5067 1 5.607805082654471 20.56580365211972 9.045186037276448 1 0 1
271 1 6.1841474400629375 8.469608402528127 2.6791746292617846 0 1 0
4795 1 4.048024431001362 20.883411606124763 5.276943868717677 1 1 0
4913 1 10.50715253648212 18.112138468851697 5.823475300536854 1 1 0
2167 1 11.869449983295764 20.089417814476324 7.037196212410637 0 0 1
3574 1 14.697399247455913 22.572503946696415 6.847510474236102 0 0 0
6322 1 16.222216066046215 20.58719022744454 8.0600491293232 0 0 0
2938 1 16.38617277317117 16.289579173161695 6.552332172302956 0 0 0
3542 1 19.798143250476283 18.650333358847575 6.707831345243373 -1 0 0
1527 1 2.234758125634294 15.228021061009878 14.55014242782813 1 0 0
5211 1 19.999230716086927 18.15409641749472 20.60216391804247 -1 -1 0
351 1 0.05648123226868541 21.167439210505734 6.1619611444178 0 0 1
3656 1 6.492225383183273 21.947072593410105 5.909224223678125 1 0 1
5128 1 7.589979456969256 19.025267485646427 7.489310809181912 1 1 1
3201 1 8.92701970258323 23.456301301249386 7.100266890525767 0 0 0
1551 1 11.274253130092548 22.54007196835307 8.632628657149858 0 1 1
1713 1 18.62182925321501 22.187080121313297 8.209549791101017 -1 0 0
1957 1 17.411769362032466 21.29077098693976 4.156725631188744 0 0 0
2011 1 19.268861122706657 20.548393591027768 10.621214109944287 0 1 0
3479 1 0.8535972912600703 12.759963580235059 13.268622757076137 0 0 0
1874 1 7.873730522936671 21.463857037477176 3.1800418694768164 1 1 0
1938 1 3.491195239118392 2.209796832764803 9.792246562718585 1 1 0
6119 1 10.685325536377725 9.580264361469125 2.910676948227552 0 0 0
146 1 12.137891078391117 3.891320682764777 3.43225361150885 0 0 0
1980 1 6.219667178611618 2.258128163968993 18.65696283083704 0 1 0
3020 1 0.9756135638233046 3.5539653509400773 3.653699392207824 1 0 1
4708 1 11.602875989487533 1.7422467361229332 14.010572384754047 0 0 0
3482 1 15.051151585525199 1.8320401570683154 12.206764280951992 0 2 0
1879 1 7.765572655148682 0.404095970063557 6.7973956929148915 0 1 0
1889 1 9.760747471079162 22.296812000354905 19.353392365138443 0 0 0
6135 1 0.28055198714356605 17.24699659719281 20.102779711917815 1 0 1
3590 1 0.6278650343415101 7.912413476076083 10.265238033376853 1 -1 0
1914 1 24.453618192941693 6.757680593562528 19.52364433467108 0 1 0
4900 1 4.8430298065322575 5.110598162671178 12.521028924535134 1 0 0
3209 1 7.456589858253219 6.089978377726988 13.360630995890798 1 0 0
2058 1 11.884934409757218 4.200318337900369 12.440666450375264 0 1 0
1634 1 13.37963005827365 3.440170259634823 10.565162423835345 0 0 0
5984 1 13.904913700910406 5.9217629946435775 13.611109070629443 0 1 1
6011 1 16.139567129627935 4.154149641402548 13.96879951654681 0 0 1
3413 1 22.69072931688121 3.4593628480796204 11.256576248139814 0 0 0
4517 1 21.278883820936482 24.27576061426998 5.5523002426879415 -1 0 1
293 1 21.391021651758194 5.3205380600695005 13.916484870046176 0 0 0
5030 1 3.3181585661462765 8.815884952915878 10.735263425345757 0 0 0
3409 1 4.213241605111572 7.960736351311796 13.074453393674109 0 0 0
182 1 5.999759786049076 9.576751481015032 14.111385130947824 0 1 1
4790 1 9.770706772796009 9.242618818966566 12.301051685985975 0 0 0
1785 1 18.492058814704475 7.029574510102872 11.079226636406997 1 0 0
2989 1 18.754533178497805 5.002825598124711 12.939156752264685 -1 2 1
1499 1 21.77769069748127 7.3272762869192425 12.057698756953588 1 0 0
1541 1 3.84030286129662 11.418141191188644 10.692629341912028 1 0 1
5134 1 4.596496532627819 13.563774983786171 8.816318744559927 1 1 0
4558 1 7.994581547324223 12.670053122820832 8.616563596760656 1 -1 1
3145 1 7.86192758304169 10.793676396371165 10.619741748857116 0 0 1
3545 1 12.13770819550072 15.531137536095244 14.358762700551123 0 0 0
3320 1 10.871509164190968 14.561439678371743 16.834861579346864 1 0 1
6110 1 15.936350188163242 12.691209209696364 9.234629709801656 0 0 1
3239 1 20.915499164120565 10.029224709829604 12.174522272575677 0 0 0
1651 1 20.886904680432856 13.633238499284198 14.063031619377337 0 1 0
3009 1 3.9962558622325397 17.046068613743657 8.587361235318827 0 0 1
1820 1 7.039277724157329 15.063165179058057 9.33801099159282 0 0 0
4739 1 9.70292594692475 16.039016945007397 9.48195126385739 -1 0 1
3579 1 14.36387705930277 14.80787508869659 12.807359161894325 0 0 0
1849 1 15.743969404146076 17.12237889417185 10.16113438709169 -1 0 0
3245 1 21.790153467217383 14.205810476252799 11.271424675827625 0 -1 0
1757 1 24.15128802333738 24.175707337332202 12.612952629930858 0 0 0
1680 1 3.4471110814247523 19.829657944253107 7.658220435648548 0 0 0
3191 1 5.3229443764079205 16.611685667963222 11.456950703577766 1 0 1
3493 1 9.899217525553688 18.87760858835752 8.9789758827466 0 0 0
3455 1 9.157944446769674 19.933995873137015 11.391810068354909 1 0 1
3159 1 13.461262842497964 19.672105333752775 12.010895169577843 0 0 1
6026 1 10.986204575161885 18.350123822777825 13.045679131735536 0 -1 1
6222 1 13.976705308305455 14.627562056608864 9.973649960619976 0 0 1
178 1 19.65069087939327 15.961831496210047 10.555236220064932 0 1 1
6077 1 16.006985023542814 17.172961057381308 13.23238579868131 1 -1 1
1430 1 20.345173031221936 18.353853885026687 9.600881735360012 0 1 1
4943 1 18.239512867050387 7.259302142768373 19.782070581156567 0 1 0
3682 1 17.76666250683589 19.451490505224395 18.60294346975017 0 0 0
162 1 6.355683972535617 23.29598411832373 8.880720098634546 0 0 0
3003 1 1.2144672647754626 20.812790460088408 8.680112977872433 0 -1 1
215 1 9.668048066401267 22.57990819819663 10.85928025674698 0 -1 0
6003 1 12.913339125378842 22.476260012845543 11.449322318933769 0 -1 1
4960 1 16.615942053925746 20.234569501937635 11.025671125895729 0 1 0
3410 1 15.619120363250241 22.632193621632418 11.640748709715597 0 1 0
2842 1 24.473205325694536 20.171102543983924 10.041560199078278 0 0 1
1446 1 19.92606222421123 22.284073987661607 12.55689421509598 0 -1 1
1693 1 17.855635186056023 2.220610093908155 19.098462124036352 -1 0 0
3666 1 1.5192037438911372 4.606258632790837 20.642122707238048 2 1 0
1539 1 9.13451847146273 13.987245324599902 2.493516639166727 0 0 0
3726 1 16.014487269940798 21.73013744905743 18.364589659239275 0 0 1
1830 1 3.9701266803723008 3.29232930800943 14.284537942782855 0 0 1
335 1 2.061352694687208 3.2153342181268014 18.41927300126812 0 0 0
1816 1 8.764129300178544 6.2623289857562074 17.664699488466738 0 0 0
38 1 1.9624056832891552 23.0495960809549 9.896380550719952 0 0 1
1944 1 13.809338661282345 2.6299031364842747 18.24350790332789 0 1 0
6063 1 18.60496974135112 0.858837405926383 14.799237720561507 0 0 1
2897 1 19.27687078386937 3.0925370022243674 16.76618699476965 -1 0 1
5241 1 9.848238427892706 2.8298015229577635 16.008983376968978 0 0 0
1531 1 12.753039122484706 14.179493275922802 20.245104450592002 0 0 1
2969 1 23.67033108481407 9.852912965557366 6.523998918109729 1 1 1
4785 1 7.457664210198475 4.632385951433335 15.562033422717835 1 2 0
5138 1 8.745291337290764 8.277842586780618 14.441368568243346 1 1 0
110 1 10.990843290613919 3.7433123129613786 18.40139468645386 2 1 0
5017 1 11.43417962415034 6.840483529787068 18.028249382654998 0 0 0
1898 1 16.179706674335932 2.1154626629225204 15.968234792851524 0 1 0
1556 1 15.998119866006887 4.887783462872236 17.288545129124145 0 1 1
1571 1 22.897518002630445 2.387787866109144 13.719161567315444 -1 0 0
255 1 20.02197181871735 2.167399179832567 12.834697017576454 0 2 0
1833 1 0.2653792799822606 18.245984355121333 6.03894552116847 0 0 0
3065 1 7.737272841198741 8.868892951765874 18.820247933610425 1 1 1
1661 1 1.855748255277617 8.406941931672005 14.651172817096148 0 0 0
471 1 4.8617705838939855 9.102314758441254 18.828818091885818 0 0 1
306 1 9.160637361709533 9.984142068680157 16.59511920691736 1 0 0
294 1 14.26446853654183 9.875919138688735 13.590974583320941 1 2 0
1724 1 12.11835806392452 10.957239427664302 12.249898527618582 0 0 0
144 1 14.177773272231093 9.345511057290091 16.09468954964172 0 1 1
4612 1 18.13537905268372 9.566993818915558 12.32827573287402 0 1 1
85 1 18.254543598294276 5.888329186813549 15.945962167730263 0 0 1
6175 1 14.704215405479765 11.113055444970298 2.978241838458456 0 0 1
6259 1 23.222757865323466 19.503401961471813 6.0757134991473105 0 1 1
3616 1 22.35885729865514 6.613519792745601 16.296753853363654 0 0 1
3485 1 1.6949696658314153 10.758501196096082 15.783809119994958 1 0 0
70 1 16.065289330340725 13.58650323612511 19.65538616145214 0 1 1
1822 1 6.088591127565317 11.62789818245643 12.438321827120602 0 1 0
1709 1 4.035031207479111 13.658112728677612 15.684970572708027 0 1 0
4992 1 8.633039848273418 12.7184221093682 16.226015383630973 1 0 0
3382 1 7.657839337979457 13.860249543980851 18.462586950921494 0 0 1
4760 1 16.11573691897367 11.505009046830878 11.966848637588749 1 0 1
442 1 15.502741705759107 13.324956498109 16.626841287193507 0 0 0
3639 1 21.954963746152412 11.321579695559352 14.471314544327994 1 0 0
57 1 3.1822094132350465 17.317574891836458 12.828075041684759 0 1 0
1435 1 7.500963552205854 15.727901434659373 13.188931038416824 -1 0 1
2966 1 10.0037062514806 15.748322010681452 12.638427874045833 0 0 0
258 1 6.607594543420179 13.473112635511018 14.355741307871615 0 -1 0
6299 1 13.193037679495967 18.012919131790664 15.74291101306867 1 0 1
1754 1 16.17005639508913 13.36530841003014 13.82625121488267 0 0 0
3412 1 15.239603809306681 16.126207743132078 15.938434562749826 0 0 0
62 1 18.438461175175803 14.661742567203456 14.47847222581691 1 1 0
167 1 22.648663951359662 4.396012055347808 19.295511154733433 0 0 0
1644 1 1.5953301617777567 16.636435704060265 10.42486814572236 1 1 0
4631 1 6.559163799560251 19.026369011109345 12.501388705417055 1 0 1
2856 1 7.494585186447766 17.6552336424994 15.311930169626773 1 1 1
2048 1 4.723656385022834 18.740400820771566 15.089794578420413 1 1 0
4814 1 9.992562875305323 18.928309521810895 15.658522030370154 1 0 0
54 1 14.669322554608824 22.18716413016516 15.851708554500652 0 0 0
5050 1 10.571043710714337 17.080352788410224 17.69668524725498 -1 1 0
4851 1 14.895456106690443 19.712238685731254 14.215622133184324 0 0 0
5070 1 18.65227238336766 17.23790164428749 13.245501557007946 0 0 0
5063 1 23.208810558909434 19.318466007058163 14.577648772642833 0 1 0
2033 1 20.49944688608743 18.38808071362801 15.018636208188164 0 0 0
4966 1 0.6553118845275081 19.135345212450012 12.999178217486971 0 1 0
4667 1 1.1900949079279175 2.632004735858469 13.611889775716602 0 2 1
4848 1 5.394750468058844 21.786089500217862 11.85143508977128 -1 0 0
1729 1 17.959818158854542 24.19277356379496 17.800843560743402 0 -1 0
1973 1 7.429360281327052 22.680950501068686 16.372118730366665 0 -1 0
3075 1 5.318699373502324 12.609460107669603 18.80817422375895 0 1 1
4671 1 11.965938055240068 22.965496283956067 15.430394983290027 -1 -1 1
3129 1 23.960761071883173 16.066821392929846 11.152509962078351 0 -1 0
75 1 16.345108780533415 23.392895284657293 14.196751039615657 1 0 0
3327 1 17.87318520201017 21.08787533808681 14.205459681180521 0 -1 1
1867 1 19.386420941106994 20.61444112897485 16.37412429471641 0 1 0
3269 1 22.39965894079984 22.15773572292133 13.889411162773168 1 0 1
5208 1 21.026407536366598 22.911383564563792 16.44430951506329 0 -1 0
5182 1 22.988983467820056 0.9314970754724167 2.3244690642515544 0 1 0
15 1 20.093424063473275 3.6309515745338703 3.795782463962139 -1 0 1
1244 1 0.5080800251417816 0.29832064787561463 7.099414978016216 1 0 0
350 1 4.675388563514684 4.189639030176687 16.993765226847998 0 0 0
2148 1 3.6417726383625855 16.07676840742742 2.986534505216731 0 0 1
2111 1 14.687386629177794 16.204232791619145 19.96179435726179 0 0 0
3034 1 24.464173003238805 18.982456300622058 17.013104454598796 1 0 1
4865 1 15.411173626404107 5.966109904193211 19.866582736538405 -1 1 0
1493 1 3.198121929205125 23.30241325781595 12.423393978971909 0 0 0
6170 1 14.921601354336584 20.180447681749197 3.0229782931722577 1 0 1
383 1 3.9687565747763567 6.495963284548312 18.427823823494172 0 1 0
1647 1 19.66164333718311 20.941851861818083 20.317117849625507 0 0 0
6007 1 8.181303899753397 0.8752745567017545 16.958088099402772 0 0 1
111 1 16.755239034645044 14.002500966737891 2.2826137433134206 1 1 0
4787 1 13.626676359820443 6.516840289975335 16.472911234507162 0 0 0
3503 1 22.255468075371006 2.925230600448259 16.616714086300604 1 0 0
5184 1 20.34708834368639 5.7125671152609225 18.067961024183774 1 1 0
2069 1 3.0264208721291186 24.4812087198339 5.542293094062163 1 0 1
52 1 1.075732778991483 12.432758474944542 10.590926599415454 1 0 1
1649 1 1.4758196094408988 7.104314087232575 17.024055086217835 0 1 0
1716 1 14.39816248032854 20.285196945462015 20.445324848322105 0 1 0
1502 1 11.899424603808217 9.896659824344027 17.60847857903176 0 0 0
4802 1 8.43546693655228 3.93247116843756 19.757630396268798 0 0 0
3529 1 12.35084075512834 7.208156427001074 4.319876918946973 -1 0 1
4993 1 12.845938152641441 12.712352078778697 17.788509463394874 1 0 0
2832 1 16.70021488493819 10.059359375559767 16.89163217369844 0 0 1
5297 1 0.7176530933686643 0.014274736338348434 14.337014429254497 1 1 1
4844 1 18.29121043556627 8.839433450454818 15.062020262138114 -1 0 0
3196 1 5.598862694003022 21.22469869290645 14.868141019079852 0 0 1
2003 1 15.58941074822232 0.21360788243263004 18.625263346101935 1 0 1
3473 1 1.0699245312987689 2.872116611093207 10.88673127181681 1 0 0
10 1 1.806010241515274 0.3749471928550675 19.33284073046119 1 1 0
4812 1 3.313400244385416 21.982005749237135 18.49783653295437 1 0 1
1787 1 4.597235389710128 10.81708337885211 16.36074789777189 1 1 0
1769 1 15.895176061778404 23.48055347750466 20.727532523293448 1 0 1
2876 1 17.435296103844248 9.791213215161976 19.37531015275401 0 -1 0
218 1 17.478767621534526 0.3606030818022175 9.44384137499812 -1 1 0
3435 1 19.104468460192567 14.065400784547828 19.795841803393543 0 1 0
5129 1 20.580698171228914 18.223087780887262 2.7120782205517773 0 1 0
4941 1 20.988091658770436 9.210293800607102 15.96379806181127 0 0 0
3292 1 3.3879659744609563 14.738359700878856 18.43530102045018 1 0 0
4805 1 4.587353416573276 17.47881756053121 17.696196788908633 0 0 1
4907 1 7.422746419550025 16.568547462826047 17.87944217996914 0 -1 0
185 1 5.008945879810819 0.8794349360578435 13.590097927209879 0 0 0
1711 1 19.866091262641323 11.528023983899391 19.51063935046329 -1 0 0
4948 1 13.015525281732948 18.077383773281884 18.846739266342336 0 1 0
1364 1 16.76519365546163 16.960251982530604 17.978633633777342 0 0 1
2001 1 2.2237933892802584 20.081009817132806 15.23353270505375 0 0 0
1662 1 22.918845913648337 8.912384626916483 19.864049421258205 -1 1 0
6203 1 18.679687585876582 15.005119950901326 17.319131585464397 0 1 0
4995 1 20.883135749197546 16.390123627745968 16.82984208640678 0 1 0
1607 1 9.752950804393546 12.132721460615892 4.576317139647939 2 0 0
2830 1 1.274001390489256 18.13704811465843 17.406518414793133 0 0 1
5202 1 6.101535925083319 22.450445765492155 18.874379584787306 1 1 0
164 1 9.269859375048231 18.449188486569586 19.991787530819813 1 1 0
3380 1 9.920092531494253 21.50620347448816 16.694169484298364 1 0 0
4843 1 7.939135482719077 16.51253527151034 2.9437769382450067 0 -1 0
1752 1 9.716613897030784 13.696229903201067 20.3365476403608 1 0 0
5094 1 15.013546353066033 3.6894814154093374 2.9634817625826133 1 0 0
2935 1 16.426594270937187 23.810511454081148 5.01265049710098 0 0 1
6177 1 11.963016454614849 8.709227565116251 20.349483629655133 0 1 1
3527 1 14.16666315048854 0.8330776663182533 14.717778326811406 -1 0 0
3240 1 23.921379600227556 23.564931459343743 5.940301322500808 -1 -1 1
1908 1 6.359239439959665 1.4162724709764896 2.4984853326108887 0 1 0
1904 1 21.829719558274032 24.332715699619747 2.667293013529813 -1 0 0
6028 1 7.843834025499527 20.658940542525336 20.592378841565907 0 -1 0
4919 1 22.87883319684119 1.8145528495767744 20.714574258955345 -1 0 0
6198 1 0.5600463272306803 11.242623331108565 20.695052306630235 0 1 1
1238 1 12.689539962983282 5.497495524864746 20.67864802147109 0 0 1
1899 1 0.6018435195236922 5.934468320774134 2.2134091210363978 1 1 1
4899 1 9.38509336618947 0.02529280800509781 11.847925171449614 0 1 0
275 1 12.183420689968713 0.7327400320535752 23.713617234808073 0 0 0
535 1 3.3062676257020156 1.915815556028296 23.45142487946285 1 1 1
4742 1 7.805545879864026 0.7223123155185972 23.424535337780366 0 1 0
448 1 9.914926439145061 2.143708856438005 24.522242981562382 -1 1 0
1269 1 10.776989675528645 23.19747630208607 36.99038003155366 1 0 -1
6196 1 17.37021476134381 0.9120737327018845 23.0955614320312 2 1 0
3681 1 5.942421700862815 3.116779865731604 38.80388452022889 0 0 0
1522 1 19.637831151857327 1.290736127264153 21.055039510968346 0 0 1
5125 1 20.42531997836202 3.937573856327957 21.411239063902883 0 0 0
446 1 12.204344039343693 2.042472006697053 20.955383845089507 1 0 0
1512 1 18.766670326505853 23.5902082282208 23.761449925401664 1 0 1
1431 1 19.948522434033794 23.45604666096559 36.28056858356324 0 -1 0
6200 1 8.952228837430447 24.346648819346626 20.80231919811823 1 0 0
5978 1 3.4147967163350494 5.52852353084842 24.302406151564828 0 1 1
4587 1 1.2826485757097932 20.80035653085118 23.464766486537624 0 -1 1
3381 1 5.693163131766266 2.122256100278668 24.64720753792575 1 0 0
1727 1 22.545864781515114 20.998220301567915 24.414656063008188 0 1 1
312 1 7.905957796093148 6.577001845937741 23.884341819596962 0 0 0
3147 1 4.876450959247352 23.710147195296543 22.850452323336462 0 0 0
5121 1 9.199175489603789 1.3621695205453057 21.004738435110237 1 1 1
134 1 24.408043356725855 11.47675691867711 38.40205292993221 -1 0 -1
3515 1 24.06111604769539 19.52764137678276 21.059775986418803 1 0 0
1439 1 13.84706272356392 0.15863735565920317 39.030418374810885 0 1 -1
4427 1 6.217154881716903 7.654737252171594 21.479980070286594 1 0 1
1772 1 2.842313461645847 11.577996330269068 24.163611525289994 0 1 1
4755 1 5.965431092226575 4.79771328954164 23.791059509490708 1 1 0
4889 1 8.54499870319652 9.506399509828077 24.416935339648713 1 1 1
1579 1 19.858638170168543 11.696007874508357 38.3622932045995 1 0 -1
4937 1 5.734640975457956 9.315792922541588 23.919225002397194 0 1 0
3552 1 19.100586876895928 7.518845206978499 22.37094955524451 0 1 0
3093 1 12.533998193166719 6.424892775377967 23.93277327743554 0 1 1
6081 1 23.416550985661 20.417116345133202 35.52403537415502 0 -1 0
3304 1 17.44173364881957 5.532382584341299 23.94890195135316 0 0 1
2006 1 21.484646770025726 8.770045166661252 22.35150942564053 0 0 0
5080 1 22.98912193515851 6.959218447731216 24.06859711736537 1 0 0
2053 1 13.194839818465837 3.6100099296728696 22.734495848426675 0 0 1
3335 1 10.195133440801634 4.8975282975679635 23.79039197450753 -1 0 0
4847 1 4.414719230579374 13.760653026292564 24.592178148054927 1 0 0
3488 1 6.361931262455959 13.96732900110866 22.446730377855573 0 1 0
1765 1 9.738248496163106 12.676071201540605 24.2295448537404 -1 0 1
1547 1 1.3620250976925252 4.158205862279595 38.67261840162703 1 -1 -1
1488 1 14.906523834308143 14.006217324008485 23.961723604581614 0 0 1
3246 1 23.389541010956787 17.611556000245518 38.99680403777687 1 -1 -1
5171 1 11.56432771550607 9.257043889153035 23.22898346835982 1 1 0
5323 1 17.57060955435818 4.632703728822691 21.24923531878689 0 1 1
5002 1 20.84367863031241 11.331914871026736 22.197354240388727 0 1 0
3714 1 0.26883824000416884 11.048998031838112 38.646578190096555 -1 1 1
1343 1 14.636840431991018 8.630821666309203 21.836657958204594 0 0 1
5107 1 23.318088399822834 10.494452450522642 24.21068994113516 1 0 0
5116 1 3.412534921864581 16.13500468436509 24.258995788072127 1 1 0
5230 1 22.61268788056947 1.4147838677706395 36.53045160245383 1 1 0
5966 1 5.8501388544290105 17.54522105492385 23.51337258328975 1 -1 1
4868 1 8.171936743601455 18.255430060710403 24.344578986925637 0 0 0
266 1 12.600524110404383 11.659985608805293 24.058368629484317 1 0 0
3306 1 13.517017243766773 16.575604763363767 24.24626615209795 0 0 0
232 1 17.285571640878054 13.802050804593849 22.390686186797147 -1 0 0
2046 1 15.138946828901439 17.848266325753748 22.124132135035758 1 -1 0
230 1 19.29548686257756 17.460624909491433 24.22236790971429 0 0 1
3416 1 17.56958359893909 16.552866915310187 21.872970047957047 -1 1 1
1926 1 20.254172569712942 14.824373420061699 23.682615994903912 0 1 0
1558 1 21.078332058730748 2.7004544771743944 24.210283253205834 0 1 1
3547 1 22.78621507072116 13.24593084076718 24.159214123484258 0 0 0
4499 1 1.2513312132478986 21.56221292098317 38.209568563198545 1 0 0
326 1 5.138603402543751 19.547807058311303 21.879485202151294 0 0 1
3518 1 11.824375762226316 14.523597010080394 22.98557771037171 0 0 0
3165 1 8.679455979987384 20.946878491269274 23.38287928283512 0 0 0
5010 1 11.525678068826243 21.46548307973534 23.642601919151062 1 -1 0
3429 1 17.259680808826662 24.380044594698344 36.15693061677907 1 0 -1
5197 1 14.292982105475927 20.70928407651277 23.369410250672903 0 0 0
1466 1 18.005484221326274 8.986976025400486 39.301570075613434 2 -1 0
4703 1 21.606145692855623 21.40469618083609 37.4286879729351 1 0 0
3445 1 19.632117847957137 0.45828967516583624 24.260401078733533 0 1 0
3329 1 4.008528444850581 21.236846489950203 23.603120653416248 0 -1 0
3037 1 14.558162874758453 6.397283771989777 38.82132618096077 0 0 -1
1361 1 18.815216111940835 18.076197435587613 36.876239325813565 0 0 -1
6123 1 17.61456547206029 23.795851264589135 38.93372744460317 1 -1 0
1413 1 17.42891534880965 3.2670342807451878 38.61340886299395 0 0 0
3334 1 3.1054631679720206 8.625354079721284 23.891070665465776 1 0 0