LAMMPS data file via write_data, version 16 Mar 2018, timestep = 6000000

5021 atoms
2 atom types

0.0000000000000000e+00 4.9219999999999999e+01 xlo xhi
0.0000000000000000e+00 4.9019635930410494e+01 ylo yhi
1.0342643008249084e+00 3.8965735699164682e+01 zlo zhi

Masses

1 18.015
2 12.01

Atoms # atomic

201 2 0.0000000000000000e+00 2.8417180249513345e+00 2.7577576018855328e+00 0 0 0
203 2 0.0000000000000000e+00 0.0000000000000000e+00 2.7577576018855328e+00 0 0 0
205 2 1.2305000000000001e+00 7.1042950623783474e-01 2.7577576018855328e+00 0 0 0
212 2 1.2305000000000001e+00 2.1312885187134998e+00 2.7577576018855328e+00 0 0 0
214 2 2.4610000000000003e+00 2.8417180249513345e+00 2.7577576018855328e+00 0 0 0
216 2 2.4610000000000003e+00 0.0000000000000000e+00 2.7577576018855328e+00 0 0 0
218 2 3.6915000000000004e+00 7.1042950623783474e-01 2.7577576018855328e+00 0 0 0
233 2 3.6914999999999996e+00 2.1312885187134998e+00 2.7577576018855328e+00 0 0 0
235 2 4.9220000000000006e+00 2.8417180249513332e+00 2.7577576018855328e+00 0 0 0
237 2 4.9220000000000006e+00 0.0000000000000000e+00 2.7577576018855328e+00 0 0 0
239 2 6.1524999999999999e+00 7.1042950623783407e-01 2.7577576018855328e+00 0 0 0
262 2 6.1524999999999999e+00 2.1312885187134989e+00 2.7577576018855328e+00 0 0 0
264 2 7.3829999999999991e+00 2.8417180249513345e+00 2.7577576018855328e+00 0 0 0
266 2 7.3829999999999991e+00 0.0000000000000000e+00 2.7577576018855328e+00 0 0 0
268 2 8.6134999999999984e+00 7.1042950623783407e-01 2.7577576018855328e+00 0 0 0
299 2 8.6134999999999984e+00 2.1312885187135002e+00 2.7577576018855328e+00 0 0 0
208 2 0.0000000000000000e+00 4.2625770374269996e+00 2.7577576018855328e+00 0 0 0
210 2 1.2305000000000001e+00 4.9730065436648339e+00 2.7577576018855328e+00 0 0 0
225 2 1.2305000000000001e+00 6.3938655561404980e+00 2.7577576018855328e+00 0 0 0
229 2 2.4610000000000003e+00 4.2625770374269996e+00 2.7577576018855328e+00 0 0 0
231 2 3.6914999999999996e+00 4.9730065436648339e+00 2.7577576018855328e+00 0 0 0
254 2 3.6914999999999996e+00 6.3938655561404980e+00 2.7577576018855328e+00 0 0 0
206 2 0.0000000000000000e+00 7.1042950623783341e+00 2.7577576018855328e+00 0 0 0
227 2 2.4610000000000003e+00 7.1042950623783341e+00 2.7577576018855328e+00 0 0 0
258 2 4.9220000000000006e+00 4.2625770374269978e+00 2.7577576018855328e+00 0 0 0
260 2 6.1524999999999999e+00 4.9730065436648339e+00 2.7577576018855328e+00 0 0 0
291 2 6.1524999999999999e+00 6.3938655561404980e+00 2.7577576018855328e+00 0 0 0
295 2 7.3829999999999991e+00 4.2625770374269996e+00 2.7577576018855328e+00 0 0 0
297 2 8.6135000000000002e+00 4.9730065436648339e+00 2.7577576018855328e+00 0 0 0
336 2 8.6135000000000002e+00 6.3938655561404980e+00 2.7577576018855328e+00 0 0 0
256 2 4.9220000000000006e+00 7.1042950623783341e+00 2.7577576018855328e+00 0 0 0
293 2 7.3830000000000009e+00 7.1042950623783341e+00 2.7577576018855328e+00 0 0 0
221 2 0.0000000000000000e+00 8.5251540748539991e+00 2.7577576018855328e+00 0 0 0
223 2 1.2305000000000001e+00 9.2355835810918343e+00 2.7577576018855328e+00 0 0 0
250 2 2.4610000000000003e+00 8.5251540748539991e+00 2.7577576018855328e+00 0 0 0
252 2 3.6915000000000004e+00 9.2355835810918343e+00 2.7577576018855328e+00 0 0 0
219 2 0.0000000000000000e+00 1.1366872099805333e+01 2.7577576018855328e+00 0 0 0
246 2 1.2305000000000001e+00 1.0656442593567498e+01 2.7577576018855328e+00 0 0 0
248 2 2.4610000000000003e+00 1.1366872099805333e+01 2.7577576018855328e+00 0 0 0
283 2 3.6914999999999996e+00 1.0656442593567499e+01 2.7577576018855328e+00 0 0 0
287 2 4.9220000000000006e+00 8.5251540748539991e+00 2.7577576018855328e+00 0 0 0
289 2 6.1524999999999999e+00 9.2355835810918343e+00 2.7577576018855328e+00 0 0 0
332 2 7.3830000000000009e+00 8.5251540748539991e+00 2.7577576018855328e+00 0 0 0
334 2 8.6134999999999984e+00 9.2355835810918343e+00 2.7577576018855328e+00 0 0 0
285 2 4.9220000000000006e+00 1.1366872099805333e+01 2.7577576018855328e+00 0 0 0
328 2 6.1524999999999999e+00 1.0656442593567499e+01 2.7577576018855328e+00 0 0 0
330 2 7.3829999999999991e+00 1.1366872099805333e+01 2.7577576018855328e+00 0 0 0
375 2 8.6134999999999984e+00 1.0656442593567498e+01 2.7577576018855328e+00 0 0 0
202 2 0.0000000000000000e+00 1.4208590124756650e+00 5.9139264062984056e+00 0 0 0
204 2 0.0000000000000000e+00 0.0000000000000000e+00 5.9139264062984056e+00 0 0 0
213 2 1.2305000000000001e+00 2.1312885187134998e+00 5.9139264062984056e+00 0 0 0
215 2 2.4610000000000003e+00 1.4208590124756650e+00 5.9139264062984056e+00 0 0 0
217 2 2.4610000000000003e+00 0.0000000000000000e+00 5.9139264062984056e+00 0 0 0
234 2 3.6914999999999996e+00 2.1312885187134998e+00 5.9139264062984056e+00 0 0 0
211 2 1.2305000000000001e+00 3.5521475311891644e+00 5.9139264062984056e+00 0 0 0
232 2 3.6914999999999996e+00 3.5521475311891644e+00 5.9139264062984056e+00 0 0 0
530 2 0.0000000000000000e+00 2.8417180249513345e+00 9.0700952107075388e+00 0 0 0
531 2 0.0000000000000000e+00 0.0000000000000000e+00 9.0700952107075388e+00 0 0 0
532 2 1.2305000000000001e+00 7.1042950623783474e-01 9.0700952107075388e+00 0 0 0
536 2 1.2305000000000001e+00 2.1312885187134998e+00 9.0700952107075388e+00 0 0 0
537 2 2.4610000000000003e+00 2.8417180249513345e+00 9.0700952107075388e+00 0 0 0
538 2 2.4610000000000003e+00 0.0000000000000000e+00 9.0700952107075388e+00 0 0 0
539 2 3.6915000000000004e+00 7.1042950623783474e-01 9.0700952107075388e+00 0 0 0
547 2 3.6914999999999996e+00 2.1312885187134998e+00 9.0700952107075388e+00 0 0 0
236 2 4.9220000000000006e+00 1.4208590124756650e+00 5.9139264062984056e+00 0 0 0
238 2 4.9220000000000006e+00 0.0000000000000000e+00 5.9139264062984056e+00 0 0 0
263 2 6.1524999999999999e+00 2.1312885187134989e+00 5.9139264062984056e+00 0 0 0
265 2 7.3829999999999991e+00 1.4208590124756659e+00 5.9139264062984056e+00 0 0 0
267 2 7.3829999999999991e+00 0.0000000000000000e+00 5.9139264062984056e+00 0 0 0
300 2 8.6134999999999984e+00 2.1312885187135002e+00 5.9139264062984056e+00 0 0 0
261 2 6.1524999999999999e+00 3.5521475311891644e+00 5.9139264062984056e+00 0 0 0
298 2 8.6134999999999984e+00 3.5521475311891657e+00 5.9139264062984056e+00 0 0 0
548 2 4.9220000000000006e+00 2.8417180249513332e+00 9.0700952107075388e+00 0 0 0
549 2 4.9220000000000006e+00 0.0000000000000000e+00 9.0700952107075388e+00 0 0 0
550 2 6.1524999999999999e+00 7.1042950623783407e-01 9.0700952107075388e+00 0 0 0
562 2 6.1524999999999999e+00 2.1312885187134989e+00 9.0700952107075388e+00 0 0 0
563 2 7.3829999999999991e+00 2.8417180249513345e+00 9.0700952107075388e+00 0 0 0
564 2 7.3829999999999991e+00 0.0000000000000000e+00 9.0700952107075388e+00 0 0 0
565 2 8.6134999999999984e+00 7.1042950623783407e-01 9.0700952107075388e+00 0 0 0
581 2 8.6134999999999984e+00 2.1312885187135002e+00 9.0700952107075388e+00 0 0 0
207 2 0.0000000000000000e+00 5.6834360499026637e+00 5.9139264062984056e+00 0 0 0
209 2 0.0000000000000000e+00 4.2625770374269996e+00 5.9139264062984056e+00 0 0 0
226 2 1.2305000000000001e+00 6.3938655561404980e+00 5.9139264062984056e+00 0 0 0
228 2 2.4610000000000003e+00 5.6834360499026637e+00 5.9139264062984056e+00 0 0 0
230 2 2.4610000000000003e+00 4.2625770374269996e+00 5.9139264062984056e+00 0 0 0
255 2 3.6914999999999996e+00 6.3938655561404980e+00 5.9139264062984056e+00 0 0 0
224 2 1.2305000000000001e+00 7.8147245686161639e+00 5.9139264062984056e+00 0 0 0
253 2 3.6914999999999996e+00 7.8147245686161639e+00 5.9139264062984056e+00 0 0 0
534 2 0.0000000000000000e+00 4.2625770374269996e+00 9.0700952107075388e+00 0 0 0
535 2 1.2305000000000001e+00 4.9730065436648339e+00 9.0700952107075388e+00 0 0 0
543 2 1.2305000000000001e+00 6.3938655561404980e+00 9.0700952107075388e+00 0 0 0
545 2 2.4610000000000003e+00 4.2625770374269996e+00 9.0700952107075388e+00 0 0 0
546 2 3.6914999999999996e+00 4.9730065436648339e+00 9.0700952107075388e+00 0 0 0
558 2 3.6914999999999996e+00 6.3938655561404980e+00 9.0700952107075388e+00 0 0 0
533 2 0.0000000000000000e+00 7.1042950623783341e+00 9.0700952107075388e+00 0 0 0
544 2 2.4610000000000003e+00 7.1042950623783341e+00 9.0700952107075388e+00 0 0 0
257 2 4.9220000000000006e+00 5.6834360499026637e+00 5.9139264062984056e+00 0 0 0
259 2 4.9220000000000006e+00 4.2625770374269978e+00 5.9139264062984056e+00 0 0 0
292 2 6.1524999999999999e+00 6.3938655561404980e+00 5.9139264062984056e+00 0 0 0
294 2 7.3829999999999991e+00 5.6834360499026637e+00 5.9139264062984056e+00 0 0 0
296 2 7.3829999999999991e+00 4.2625770374269996e+00 5.9139264062984056e+00 0 0 0
337 2 8.6135000000000002e+00 6.3938655561404980e+00 5.9139264062984056e+00 0 0 0
290 2 6.1524999999999999e+00 7.8147245686161639e+00 5.9139264062984056e+00 0 0 0
335 2 8.6135000000000002e+00 7.8147245686161639e+00 5.9139264062984056e+00 0 0 0
560 2 4.9220000000000006e+00 4.2625770374269978e+00 9.0700952107075388e+00 0 0 0
561 2 6.1524999999999999e+00 4.9730065436648339e+00 9.0700952107075388e+00 0 0 0
577 2 6.1524999999999999e+00 6.3938655561404980e+00 9.0700952107075388e+00 0 0 0
579 2 7.3829999999999991e+00 4.2625770374269996e+00 9.0700952107075388e+00 0 0 0
580 2 8.6135000000000002e+00 4.9730065436648339e+00 9.0700952107075388e+00 0 0 0
600 2 8.6135000000000002e+00 6.3938655561404980e+00 9.0700952107075388e+00 0 0 0
559 2 4.9220000000000006e+00 7.1042950623783341e+00 9.0700952107075388e+00 0 0 0
578 2 7.3830000000000009e+00 7.1042950623783341e+00 9.0700952107075388e+00 0 0 0
220 2 0.0000000000000000e+00 9.9460130873296642e+00 5.9139264062984056e+00 0 0 0
222 2 0.0000000000000000e+00 8.5251540748539991e+00 5.9139264062984056e+00 0 0 0
249 2 2.4610000000000003e+00 9.9460130873296642e+00 5.9139264062984056e+00 0 0 0
251 2 2.4610000000000003e+00 8.5251540748539991e+00 5.9139264062984056e+00 0 0 0
245 2 1.2305000000000001e+00 1.2077301606043163e+01 5.9139264062984056e+00 0 0 0
247 2 1.2305000000000001e+00 1.0656442593567498e+01 5.9139264062984056e+00 0 0 0
282 2 3.6914999999999996e+00 1.2077301606043163e+01 5.9139264062984056e+00 0 0 0
284 2 3.6914999999999996e+00 1.0656442593567499e+01 5.9139264062984056e+00 0 0 0
541 2 0.0000000000000000e+00 8.5251540748539991e+00 9.0700952107075388e+00 0 0 0
542 2 1.2305000000000001e+00 9.2355835810918343e+00 9.0700952107075388e+00 0 0 0
556 2 2.4610000000000003e+00 8.5251540748539991e+00 9.0700952107075388e+00 0 0 0
557 2 3.6915000000000004e+00 9.2355835810918343e+00 9.0700952107075388e+00 0 0 0
540 2 0.0000000000000000e+00 1.1366872099805333e+01 9.0700952107075388e+00 0 0 0
554 2 1.2305000000000001e+00 1.0656442593567498e+01 9.0700952107075388e+00 0 0 0
555 2 2.4610000000000003e+00 1.1366872099805333e+01 9.0700952107075388e+00 0 0 0
573 2 3.6914999999999996e+00 1.0656442593567499e+01 9.0700952107075388e+00 0 0 0
620 2 8.6134999999999984e+00 1.0656442593567498e+01 9.0700952107075388e+00 0 0 0
286 2 4.9220000000000006e+00 9.9460130873296642e+00 5.9139264062984056e+00 0 0 0
288 2 4.9220000000000006e+00 8.5251540748539991e+00 5.9139264062984056e+00 0 0 0
331 2 7.3830000000000009e+00 9.9460130873296642e+00 5.9139264062984056e+00 0 0 0
333 2 7.3830000000000009e+00 8.5251540748539991e+00 5.9139264062984056e+00 0 0 0
327 2 6.1524999999999999e+00 1.2077301606043163e+01 5.9139264062984056e+00 0 0 0
329 2 6.1524999999999999e+00 1.0656442593567499e+01 5.9139264062984056e+00 0 0 0
374 2 8.6135000000000002e+00 1.2077301606043163e+01 5.9139264062984056e+00 0 0 0
376 2 8.6134999999999984e+00 1.0656442593567498e+01 5.9139264062984056e+00 0 0 0
575 2 4.9220000000000006e+00 8.5251540748539991e+00 9.0700952107075388e+00 0 0 0
576 2 6.1524999999999999e+00 9.2355835810918343e+00 9.0700952107075388e+00 0 0 0
598 2 7.3830000000000009e+00 8.5251540748539991e+00 9.0700952107075388e+00 0 0 0
599 2 8.6134999999999984e+00 9.2355835810918343e+00 9.0700952107075388e+00 0 0 0
574 2 4.9220000000000006e+00 1.1366872099805333e+01 9.0700952107075388e+00 0 0 0
596 2 6.1524999999999999e+00 1.0656442593567499e+01 9.0700952107075388e+00 0 0 0
597 2 7.3829999999999991e+00 1.1366872099805333e+01 9.0700952107075388e+00 0 0 0
1058 1 4.2888111876737725e+00 2.0600719033588946e+00 1.1959940645108690e+01 0 1 0
4666 1 4.2768050565164337e+00 3.4288524588225786e+00 1.4988567166184234e+01 -1 1 0
2572 1 2.2444475091369465e+00 4.8245545024963556e+00 1.9750719728264922e+01 -2 1 0
3966 1 6.1458776753566822e+00 9.7397677232559783e+00 1.8455048961931102e+01 1 0 0
31 1 2.2720008962570821e+00 1.0376039037153396e-01 1.1761825258474344e+01 -1 -1 0
1153 1 8.9514587338554090e+00 2.9283932046971337e+00 1.2300953935567414e+01 0 -2 0
1477 1 8.8732180683828563e+00 3.1117095926163176e+00 1.5013465252311882e+01 2 0 0
1262 1 4.2972388929181822e+00 4.9107660988164215e+00 1.1706631679398486e+01 -1 1 -1
55 1 2.0375642699370013e+00 6.5269336278382903e+00 1.2540579028534426e+01 3 0 0
3707 1 1.8493593043826300e+00 7.0486590038656187e+00 1.4931072357596195e+01 2 -1 0
2270 1 8.6248000741824171e+00 5.5869786502036414e+00 1.1274470647789487e+01 1 -1 0
3909 1 6.1332009215187560e+00 6.6120719152837175e+00 1.2134287306763643e+01 0 -1 0
3630 1 6.2578215318908468e+00 7.1147160477992921e+00 1.4851575138802666e+01 2 -1 0
1097 1 2.4751112085123350e+00 9.1416624909845172e+00 1.1563630614635365e+01 1 0 0
3884 1 4.1430877393245202e+00 1.0935957525334764e+01 1.2616830091631153e+01 2 -3 0
3845 1 3.9090760530576127e+00 1.0864169120738499e+01 1.5249760524595812e+01 0 -1 0
1279 1 5.9207177158108921e+00 9.2431176460803730e+00 1.1369761759853120e+01 1 0 0
3677 1 8.2270663580208812e+00 1.0579104594649005e+01 1.1992049423273457e+01 -1 0 0
1433 1 8.5450847447894596e+00 1.0647459770995917e+01 1.4651459061077635e+01 0 2 0
2452 1 6.6373237397959350e+00 4.5565898210377505e+00 1.9749039522967671e+01 0 1 -1
2283 1 1.7309983907053077e+00 2.0565879745595113e+00 1.5821097442570954e+01 0 0 0
4997 1 2.0582395088769840e+00 2.1061538257708046e+00 1.8740743738516677e+01 1 1 0
3698 1 6.4316040846513420e+00 2.3635618539212335e+00 1.6367901618703478e+01 1 1 -1
3649 1 6.3867175440078352e+00 1.8615875002343156e+00 1.9078314452150316e+01 1 0 0
3619 1 4.5171821945295783e+00 6.1034835745447316e+00 1.8801981380657999e+01 0 2 0
1005 1 4.1663615050203413e+00 5.8324493416552645e+00 1.6211283346075916e+01 1 -1 0
3664 1 4.0346785325932322e+00 8.7465124226040345e+00 1.9583582509174381e+01 2 2 0
3722 1 6.8384370767090754e+00 2.8062852428700796e-01 1.4628708556425721e+01 1 1 -1
141 1 8.5878416769139818e+00 5.6239892169291608e+00 1.5854497459352984e+01 0 -1 0
947 1 8.8957026897456970e+00 5.8394613972782370e+00 1.8722823213461226e+01 -1 0 0
1236 1 6.2717876759523659e+00 9.7128565062147469e+00 1.5815227990242128e+01 1 -1 -1
4739 1 1.5507369982473154e+00 9.5295703214948126e+00 1.5891077338326586e+01 1 1 0
3815 1 1.8803725322004807e+00 9.9556394175003344e+00 1.8632676464319115e+01 1 0 0
3560 1 6.8454315642844747e+00 1.0170056466150552e+00 1.1732346875614050e+01 1 0 0
2435 1 8.2842160661795425e+00 8.3450236971183909e+00 1.9475157139600825e+01 0 3 -1
3661 1 4.0888370294733738e+00 7.9588527035176126e-01 1.9933568693073120e+01 -1 1 0
3896 1 4.4524549923701100e+00 3.7613549886174558e+00 2.3643635825606289e+01 3 -1 0
2352 1 4.2501394126779948e+00 1.0319200940923108e+00 2.2663006602172381e+01 -1 2 0
3788 1 6.1392074191765600e+00 9.4112608485723737e+00 2.7103517082356607e+01 0 1 0
4961 1 8.9144565103690159e+00 1.1422184510219398e+00 2.2808710022431832e+01 0 0 -1
1019 1 9.0093672483598795e+00 3.7490527951431667e+00 2.3934977736583175e+01 1 1 0
2359 1 8.2269387308933872e+00 1.0861422608303307e+01 2.6188481187772354e+01 0 2 0
1066 1 2.3171041654902380e+00 4.9502702188267724e+00 2.2513210077914287e+01 0 0 0
4789 1 2.0109289470105738e+00 7.5226279895558141e+00 2.3337439101686563e+01 -1 0 -1
3622 1 6.8013718634518119e+00 4.6345413348311810e+00 2.2582313350457053e+01 2 0 0
5010 1 6.5591639998428990e+00 7.2170726940962080e+00 2.3245665607489155e+01 1 2 0
3500 1 4.3839908216763286e+00 8.6183719177862734e+00 2.2227106752172581e+01 -1 1 -1
961 1 3.6852690322306056e+00 1.1073456369227827e+01 2.3280598595435322e+01 1 -2 0
1170 1 8.5215676627241947e+00 8.5737099565998811e+00 2.2273924712190126e+01 2 0 0
1085 1 7.8905972911916464e+00 1.0995149168909732e+01 2.3470968669349329e+01 1 1 0
2673 1 2.3766926690140049e+00 2.4182575485594016e+00 2.7492717328237973e+01 0 0 1
3503 1 4.4333706899182470e+00 3.7018674827263029e+00 2.6313082148634532e+01 1 2 0
1110 1 6.6119270168853319e+00 2.2154415030970656e+00 2.7041158230319848e+01 2 0 -1
5007 1 9.1680925068563397e+00 3.4199325000883674e+00 2.6402051529579232e+01 0 2 -1
914 1 1.9123309888239177e+00 7.5297595223306173e+00 2.6009968761873957e+01 -1 2 0
3730 1 4.2156071338594430e+00 6.2683923048525632e+00 2.7307964611279317e+01 -1 -1 0
4769 1 8.8794134688622339e+00 5.8981096748688007e+00 2.7446964665261774e+01 0 0 -1
2535 1 6.7839426568509031e+00 7.0160065919279475e+00 2.6152818961423272e+01 0 3 0
2677 1 1.7497050669090626e+00 9.8023251565107650e+00 2.7107676857947862e+01 -1 0 0
1144 1 3.8118795898453324e+00 1.0866899488256118e+01 2.5878614956119577e+01 1 0 -1
3916 1 3.1917415889267886e-02 3.5652308750382331e+00 2.6165182806520733e+01 0 1 1
3852 1 8.6119780832661270e+00 7.8962293536424077e-01 2.0015237377893492e+01 2 -2 0
3487 1 4.5287247374921309e+00 9.2444644478676852e-01 3.3455970961431390e+01 0 1 0
1189 1 4.3528088742620383e+00 9.1045247674859764e-01 3.0762925843085426e+01 0 -2 0
3655 1 8.6888716485055433e+00 5.7390272973047551e+00 3.0095795410268895e+01 -2 1 0
2280 1 8.3497093524525727e+00 1.1536492547608814e+01 3.8259961506126622e+01 2 0 0
3567 1 8.4668124928649604e+00 5.7003628055102618e-01 3.0661457899543603e+01 -1 1 1
4644 1 8.6209509944830494e+00 7.7620558567823306e-01 3.3470046744464121e+01 1 3 0
1090 1 6.3390547010374751e+00 2.0377313114254210e+00 2.9704105200258216e+01 0 1 -1
42 1 1.6986267203203951e+00 4.6886397797483843e+00 3.0964072876587935e+01 1 1 0
4795 1 1.7671004800931234e+00 4.4632642194968346e+00 3.3790202234354830e+01 1 0 0
2674 1 4.0538581557728799e+00 5.7251795179857909e+00 2.9877409856686818e+01 0 2 0
1146 1 6.1415466583127625e+00 9.6951825212237814e+00 3.4288237718325277e+01 1 2 -1
5001 1 6.2912035577197090e+00 4.4984967813559678e+00 3.3504548430744890e+01 -2 -1 0
5 1 6.3592057898678043e+00 4.6244872294815185e+00 3.0893429292308614e+01 -1 0 -1
937 1 3.7775024915162838e+00 8.4449333509772995e+00 3.3550771268404795e+01 0 0 0
3480 1 4.0951644928625415e+00 8.2383962805224833e+00 3.0793174925500953e+01 0 2 0
2335 1 1.9020632967840989e+00 2.0258019075942921e+00 3.0056417116278322e+01 0 2 0
149 1 6.2189254992790195e+00 1.0094979727459032e+01 3.7126755016749051e+01 -2 0 0
3518 1 8.6052459115567093e+00 8.4938175050938227e+00 3.3663514467345102e+01 2 0 0
3957 1 8.3861167039502025e+00 8.4962235766251233e+00 3.0876705234563161e+01 1 1 0
2581 1 6.0614294321638056e+00 9.8390812229062430e+00 2.9790766685030889e+01 0 1 0
4760 1 2.2740461011218112e+00 1.9867302102352782e+00 3.4815259411222193e+01 3 2 -1
3800 1 2.1752598052479319e+00 2.3169250357935827e+00 3.7670921036738108e+01 0 1 0
2508 1 4.3775969441526721e+00 3.9676929098464755e+00 3.8278554921402637e+01 0 0 -1
4963 1 6.4206386403372600e+00 2.1671961576098449e+00 3.4746352737133300e+01 3 2 -1
5003 1 8.8530070148540538e+00 3.3459164792368981e+00 3.8528143190357525e+01 0 1 0
59 1 6.4511294048099446e+00 2.3913748332221392e+00 3.7646226720920666e+01 0 1 0
2300 1 4.1472500828944980e+00 5.6718143674501356e+00 3.4577085242584552e+01 -1 0 0
46 1 4.2217490210301349e+00 6.4645607409370447e+00 3.7278346475864851e+01 0 -2 0
3548 1 1.7433382775312896e+00 7.3224882640303290e+00 3.7867754531372761e+01 2 0 0
4785 1 8.5790604757539484e+00 6.1785516104137024e+00 3.7753129713084128e+01 1 -1 -1
1206 1 6.4983410904618291e+00 7.6684439399843960e+00 3.8319197161167985e+01 0 1 0
1268 1 8.4148739268148276e+00 5.9780324804857310e+00 3.4906891154249244e+01 0 -1 -1
935 1 3.7920314011291141e+00 1.1320670905352834e+01 3.7876668500422554e+01 -1 1 0
1018 1 1.6132478794206497e+00 9.8582693288667169e+00 3.7073005961275371e+01 0 1 0
3485 1 1.4060055848253599e+00 9.5434939352822319e+00 3.4318533482921758e+01 3 0 1
3930 1 1.9246351572169287e+00 9.5935656646225667e+00 2.9682100394791394e+01 1 -1 1
4940 1 1.1843361778926316e+00 1.2060128288829420e+01 3.0848628050396890e+01 0 -2 0
1252 1 5.7990168777704643e+00 1.2235044846402685e+01 3.3465646361300827e+01 0 0 0
3740 1 1.1320062638518396e+00 1.2246690197269988e+01 3.3704222833361662e+01 3 0 0
242 2 0.0000000000000000e+00 1.2787731112280996e+01 2.7577576018855328e+00 0 0 0
244 2 1.2305000000000001e+00 1.3498160618518829e+01 2.7577576018855328e+00 0 0 0
279 2 2.4610000000000003e+00 1.2787731112280996e+01 2.7577576018855328e+00 0 0 0
281 2 3.6915000000000004e+00 1.3498160618518829e+01 2.7577576018855328e+00 0 0 0
240 2 0.0000000000000000e+00 1.5629449137232333e+01 2.7577576018855328e+00 0 0 0
275 2 1.2305000000000001e+00 1.4919019630994494e+01 2.7577576018855328e+00 0 0 0
277 2 2.4610000000000003e+00 1.5629449137232328e+01 2.7577576018855328e+00 0 0 0
320 2 3.6915000000000004e+00 1.4919019630994494e+01 2.7577576018855328e+00 0 0 0
324 2 4.9220000000000006e+00 1.2787731112280996e+01 2.7577576018855328e+00 0 0 0
326 2 6.1524999999999990e+00 1.3498160618518829e+01 2.7577576018855328e+00 0 0 0
371 2 7.3829999999999991e+00 1.2787731112280996e+01 2.7577576018855328e+00 0 0 0
373 2 8.6135000000000002e+00 1.3498160618518835e+01 2.7577576018855328e+00 0 0 0
322 2 4.9220000000000006e+00 1.5629449137232333e+01 2.7577576018855328e+00 0 0 0
367 2 6.1524999999999990e+00 1.4919019630994494e+01 2.7577576018855328e+00 0 0 0
369 2 7.3829999999999991e+00 1.5629449137232333e+01 2.7577576018855328e+00 0 0 0
414 2 8.6135000000000002e+00 1.4919019630994494e+01 2.7577576018855328e+00 0 0 0
271 2 0.0000000000000000e+00 1.7050308149707998e+01 2.7577576018855328e+00 0 0 0
316 2 2.4610000000000003e+00 1.7050308149707998e+01 2.7577576018855328e+00 0 0 0
269 2 0.0000000000000000e+00 1.9892026174659328e+01 2.7577576018855328e+00 0 0 0
273 2 1.2305000000000001e+00 1.7760737655945832e+01 2.7577576018855328e+00 0 0 0
312 2 1.2305000000000001e+00 1.9181596668421495e+01 2.7577576018855328e+00 0 0 0
314 2 2.4610000000000003e+00 1.9892026174659328e+01 2.7577576018855328e+00 0 0 0
318 2 3.6914999999999996e+00 1.7760737655945832e+01 2.7577576018855328e+00 0 0 0
359 2 3.6914999999999996e+00 1.9181596668421495e+01 2.7577576018855328e+00 0 0 0
363 2 4.9220000000000006e+00 1.7050308149707998e+01 2.7577576018855328e+00 0 0 0
410 2 7.3830000000000009e+00 1.7050308149707998e+01 2.7577576018855328e+00 0 0 0
361 2 4.9220000000000006e+00 1.9892026174659328e+01 2.7577576018855328e+00 0 0 0
365 2 6.1524999999999999e+00 1.7760737655945832e+01 2.7577576018855328e+00 0 0 0
406 2 6.1524999999999999e+00 1.9181596668421495e+01 2.7577576018855328e+00 0 0 0
408 2 7.3829999999999991e+00 1.9892026174659328e+01 2.7577576018855328e+00 0 0 0
412 2 8.6134999999999984e+00 1.7760737655945832e+01 2.7577576018855328e+00 0 0 0
448 2 8.6135000000000002e+00 1.9181596668421495e+01 2.7577576018855328e+00 0 0 0
306 2 0.0000000000000000e+00 2.4154603212086325e+01 2.7577576018855328e+00 0 0 0
308 2 0.0000000000000000e+00 2.1312885187134999e+01 2.7577576018855328e+00 0 0 0
310 2 1.2304999999999993e+00 2.2023314693372832e+01 2.7577576018855328e+00 0 0 0
351 2 1.2304999999999993e+00 2.3444173705848499e+01 2.7577576018855328e+00 0 0 0
353 2 2.4610000000000003e+00 2.4154603212086325e+01 2.7577576018855328e+00 0 0 0
355 2 2.4610000000000003e+00 2.1312885187134995e+01 2.7577576018855328e+00 0 0 0
357 2 3.6914999999999996e+00 2.2023314693372832e+01 2.7577576018855328e+00 0 0 0
398 2 3.6915000000000004e+00 2.3444173705848499e+01 2.7577576018855328e+00 0 0 0
400 2 4.9220000000000006e+00 2.4154603212086325e+01 2.7577576018855328e+00 0 0 0
402 2 4.9220000000000006e+00 2.1312885187134995e+01 2.7577576018855328e+00 0 0 0
404 2 6.1524999999999990e+00 2.2023314693372832e+01 2.7577576018855328e+00 0 0 0
440 2 6.1524999999999999e+00 2.3444173705848499e+01 2.7577576018855328e+00 0 0 0
442 2 7.3830000000000009e+00 2.4154603212086336e+01 2.7577576018855328e+00 0 0 0
444 2 7.3829999999999991e+00 2.1312885187134999e+01 2.7577576018855328e+00 0 0 0
446 2 8.6135000000000002e+00 2.2023314693372832e+01 2.7577576018855328e+00 0 0 0
474 2 8.6134999999999984e+00 2.3444173705848499e+01 2.7577576018855328e+00 0 0 0
243 2 0.0000000000000000e+00 1.2787731112280996e+01 5.9139264062984056e+00 0 0 0
280 2 2.4610000000000003e+00 1.2787731112280996e+01 5.9139264062984056e+00 0 0 0
241 2 0.0000000000000000e+00 1.4208590124756663e+01 5.9139264062984056e+00 0 0 0
276 2 1.2305000000000001e+00 1.4919019630994494e+01 5.9139264062984056e+00 0 0 0
278 2 2.4610000000000003e+00 1.4208590124756663e+01 5.9139264062984056e+00 0 0 0
321 2 3.6915000000000004e+00 1.4919019630994494e+01 5.9139264062984056e+00 0 0 0
552 2 0.0000000000000000e+00 1.2787731112280996e+01 9.0700952107075388e+00 0 0 0
553 2 1.2305000000000001e+00 1.3498160618518829e+01 9.0700952107075388e+00 0 0 0
571 2 2.4610000000000003e+00 1.2787731112280996e+01 9.0700952107075388e+00 0 0 0
572 2 3.6915000000000004e+00 1.3498160618518829e+01 9.0700952107075388e+00 0 0 0
551 2 0.0000000000000000e+00 1.5629449137232333e+01 9.0700952107075388e+00 0 0 0
569 2 1.2305000000000001e+00 1.4919019630994494e+01 9.0700952107075388e+00 0 0 0
570 2 2.4610000000000003e+00 1.5629449137232328e+01 9.0700952107075388e+00 0 0 0
592 2 3.6915000000000004e+00 1.4919019630994494e+01 9.0700952107075388e+00 0 0 0
325 2 4.9220000000000006e+00 1.2787731112280996e+01 5.9139264062984056e+00 0 0 0
372 2 7.3829999999999991e+00 1.2787731112280996e+01 5.9139264062984056e+00 0 0 0
323 2 4.9220000000000006e+00 1.4208590124756663e+01 5.9139264062984056e+00 0 0 0
368 2 6.1524999999999990e+00 1.4919019630994494e+01 5.9139264062984056e+00 0 0 0
370 2 7.3830000000000009e+00 1.4208590124756663e+01 5.9139264062984056e+00 0 0 0
415 2 8.6135000000000002e+00 1.4919019630994494e+01 5.9139264062984056e+00 0 0 0
594 2 4.9220000000000006e+00 1.2787731112280996e+01 9.0700952107075388e+00 0 0 0
595 2 6.1524999999999990e+00 1.3498160618518829e+01 9.0700952107075388e+00 0 0 0
618 2 7.3829999999999991e+00 1.2787731112280996e+01 9.0700952107075388e+00 0 0 0
619 2 8.6135000000000002e+00 1.3498160618518835e+01 9.0700952107075388e+00 0 0 0
593 2 4.9220000000000006e+00 1.5629449137232333e+01 9.0700952107075388e+00 0 0 0
616 2 6.1524999999999990e+00 1.4919019630994494e+01 9.0700952107075388e+00 0 0 0
617 2 7.3829999999999991e+00 1.5629449137232333e+01 9.0700952107075388e+00 0 0 0
640 2 8.6135000000000002e+00 1.4919019630994494e+01 9.0700952107075388e+00 0 0 0
272 2 0.0000000000000000e+00 1.7050308149707998e+01 5.9139264062984056e+00 0 0 0
274 2 1.2305000000000001e+00 1.6339878643470165e+01 5.9139264062984056e+00 0 0 0
317 2 2.4610000000000003e+00 1.7050308149707998e+01 5.9139264062984056e+00 0 0 0
319 2 3.6915000000000004e+00 1.6339878643470165e+01 5.9139264062984056e+00 0 0 0
270 2 0.0000000000000000e+00 1.8471167162183658e+01 5.9139264062984056e+00 0 0 0
313 2 1.2305000000000001e+00 1.9181596668421495e+01 5.9139264062984056e+00 0 0 0
315 2 2.4610000000000003e+00 1.8471167162183658e+01 5.9139264062984056e+00 0 0 0
360 2 3.6914999999999996e+00 1.9181596668421495e+01 5.9139264062984056e+00 0 0 0
567 2 0.0000000000000000e+00 1.7050308149707998e+01 9.0700952107075388e+00 0 0 0
590 2 2.4610000000000003e+00 1.7050308149707998e+01 9.0700952107075388e+00 0 0 0
566 2 0.0000000000000000e+00 1.9892026174659328e+01 9.0700952107075388e+00 0 0 0
568 2 1.2305000000000001e+00 1.7760737655945832e+01 9.0700952107075388e+00 0 0 0
588 2 1.2305000000000001e+00 1.9181596668421495e+01 9.0700952107075388e+00 0 0 0
589 2 2.4610000000000003e+00 1.9892026174659328e+01 9.0700952107075388e+00 0 0 0
591 2 3.6914999999999996e+00 1.7760737655945832e+01 9.0700952107075388e+00 0 0 0
612 2 3.6914999999999996e+00 1.9181596668421495e+01 9.0700952107075388e+00 0 0 0
364 2 4.9220000000000006e+00 1.7050308149707998e+01 5.9139264062984056e+00 0 0 0
366 2 6.1524999999999999e+00 1.6339878643470165e+01 5.9139264062984056e+00 0 0 0
411 2 7.3830000000000009e+00 1.7050308149707998e+01 5.9139264062984056e+00 0 0 0
413 2 8.6134999999999984e+00 1.6339878643470165e+01 5.9139264062984056e+00 0 0 0
362 2 4.9220000000000006e+00 1.8471167162183658e+01 5.9139264062984056e+00 0 0 0
407 2 6.1524999999999999e+00 1.9181596668421495e+01 5.9139264062984056e+00 0 0 0
409 2 7.3829999999999991e+00 1.8471167162183658e+01 5.9139264062984056e+00 0 0 0
449 2 8.6135000000000002e+00 1.9181596668421495e+01 5.9139264062984056e+00 0 0 0
614 2 4.9220000000000006e+00 1.7050308149707998e+01 9.0700952107075388e+00 0 0 0
638 2 7.3830000000000009e+00 1.7050308149707998e+01 9.0700952107075388e+00 0 0 0
613 2 4.9220000000000006e+00 1.9892026174659328e+01 9.0700952107075388e+00 0 0 0
615 2 6.1524999999999999e+00 1.7760737655945832e+01 9.0700952107075388e+00 0 0 0
636 2 6.1524999999999999e+00 1.9181596668421495e+01 9.0700952107075388e+00 0 0 0
637 2 7.3829999999999991e+00 1.9892026174659328e+01 9.0700952107075388e+00 0 0 0
639 2 8.6134999999999984e+00 1.7760737655945832e+01 9.0700952107075388e+00 0 0 0
657 2 8.6135000000000002e+00 1.9181596668421495e+01 9.0700952107075388e+00 0 0 0
311 2 1.2305000000000001e+00 2.0602455680897162e+01 5.9139264062984056e+00 0 0 0
358 2 3.6915000000000004e+00 2.0602455680897162e+01 5.9139264062984056e+00 0 0 0
307 2 0.0000000000000000e+00 2.2733744199610655e+01 5.9139264062984056e+00 0 0 0
309 2 0.0000000000000000e+00 2.1312885187134999e+01 5.9139264062984056e+00 0 0 0
352 2 1.2304999999999993e+00 2.3444173705848499e+01 5.9139264062984056e+00 0 0 0
354 2 2.4610000000000003e+00 2.2733744199610655e+01 5.9139264062984056e+00 0 0 0
356 2 2.4610000000000003e+00 2.1312885187134995e+01 5.9139264062984056e+00 0 0 0
399 2 3.6915000000000004e+00 2.3444173705848499e+01 5.9139264062984056e+00 0 0 0
585 2 0.0000000000000000e+00 2.4154603212086325e+01 9.0700952107075388e+00 0 0 0
586 2 0.0000000000000000e+00 2.1312885187134999e+01 9.0700952107075388e+00 0 0 0
587 2 1.2304999999999993e+00 2.2023314693372832e+01 9.0700952107075388e+00 0 0 0