LAMMPS data file via write_data, version 16 Mar 2018, timestep = 100000

5021 atoms
2 atom types

0.0000000000000000e+00 4.9219999999999999e+01 xlo xhi
0.0000000000000000e+00 4.9019635930410494e+01 ylo yhi
1.5411654930912277e+00 3.8458834506910634e+01 zlo zhi

Masses

1 18.015
2 12.01

Atoms # atomic

201 2 0.0000000000000000e+00 2.8417180249513345e+00 3.2185946275412141e+00 0 0 0
203 2 0.0000000000000000e+00 0.0000000000000000e+00 3.2185946275412141e+00 0 0 0
205 2 1.2305000000000001e+00 7.1042950623783474e-01 3.2185946275412141e+00 0 0 0
212 2 1.2305000000000001e+00 2.1312885187134998e+00 3.2185946275412141e+00 0 0 0
214 2 2.4610000000000003e+00 2.8417180249513345e+00 3.2185946275412141e+00 0 0 0
216 2 2.4610000000000003e+00 0.0000000000000000e+00 3.2185946275412141e+00 0 0 0
218 2 3.6915000000000004e+00 7.1042950623783474e-01 3.2185946275412141e+00 0 0 0
233 2 3.6914999999999996e+00 2.1312885187134998e+00 3.2185946275412141e+00 0 0 0
235 2 4.9220000000000006e+00 2.8417180249513332e+00 3.2185946275412141e+00 0 0 0
237 2 4.9220000000000006e+00 0.0000000000000000e+00 3.2185946275412141e+00 0 0 0
239 2 6.1524999999999999e+00 7.1042950623783407e-01 3.2185946275412141e+00 0 0 0
262 2 6.1524999999999999e+00 2.1312885187134989e+00 3.2185946275412141e+00 0 0 0
264 2 7.3829999999999991e+00 2.8417180249513345e+00 3.2185946275412141e+00 0 0 0
266 2 7.3829999999999991e+00 0.0000000000000000e+00 3.2185946275412141e+00 0 0 0
268 2 8.6134999999999984e+00 7.1042950623783407e-01 3.2185946275412141e+00 0 0 0
299 2 8.6134999999999984e+00 2.1312885187135002e+00 3.2185946275412141e+00 0 0 0
208 2 0.0000000000000000e+00 4.2625770374269996e+00 3.2185946275412141e+00 0 0 0
210 2 1.2305000000000001e+00 4.9730065436648339e+00 3.2185946275412141e+00 0 0 0
225 2 1.2305000000000001e+00 6.3938655561404980e+00 3.2185946275412141e+00 0 0 0
229 2 2.4610000000000003e+00 4.2625770374269996e+00 3.2185946275412141e+00 0 0 0
231 2 3.6914999999999996e+00 4.9730065436648339e+00 3.2185946275412141e+00 0 0 0
254 2 3.6914999999999996e+00 6.3938655561404980e+00 3.2185946275412141e+00 0 0 0
206 2 0.0000000000000000e+00 7.1042950623783341e+00 3.2185946275412141e+00 0 0 0
227 2 2.4610000000000003e+00 7.1042950623783341e+00 3.2185946275412141e+00 0 0 0
258 2 4.9220000000000006e+00 4.2625770374269978e+00 3.2185946275412141e+00 0 0 0
260 2 6.1524999999999999e+00 4.9730065436648339e+00 3.2185946275412141e+00 0 0 0
291 2 6.1524999999999999e+00 6.3938655561404980e+00 3.2185946275412141e+00 0 0 0
295 2 7.3829999999999991e+00 4.2625770374269996e+00 3.2185946275412141e+00 0 0 0
297 2 8.6135000000000002e+00 4.9730065436648339e+00 3.2185946275412141e+00 0 0 0
336 2 8.6135000000000002e+00 6.3938655561404980e+00 3.2185946275412141e+00 0 0 0
256 2 4.9220000000000006e+00 7.1042950623783341e+00 3.2185946275412141e+00 0 0 0
293 2 7.3830000000000009e+00 7.1042950623783341e+00 3.2185946275412141e+00 0 0 0
221 2 0.0000000000000000e+00 8.5251540748539991e+00 3.2185946275412141e+00 0 0 0
223 2 1.2305000000000001e+00 9.2355835810918343e+00 3.2185946275412141e+00 0 0 0
250 2 2.4610000000000003e+00 8.5251540748539991e+00 3.2185946275412141e+00 0 0 0
252 2 3.6915000000000004e+00 9.2355835810918343e+00 3.2185946275412141e+00 0 0 0
219 2 0.0000000000000000e+00 1.1366872099805333e+01 3.2185946275412141e+00 0 0 0
246 2 1.2305000000000001e+00 1.0656442593567498e+01 3.2185946275412141e+00 0 0 0
248 2 2.4610000000000003e+00 1.1366872099805333e+01 3.2185946275412141e+00 0 0 0
283 2 3.6914999999999996e+00 1.0656442593567499e+01 3.2185946275412141e+00 0 0 0
287 2 4.9220000000000006e+00 8.5251540748539991e+00 3.2185946275412141e+00 0 0 0
289 2 6.1524999999999999e+00 9.2355835810918343e+00 3.2185946275412141e+00 0 0 0
332 2 7.3830000000000009e+00 8.5251540748539991e+00 3.2185946275412141e+00 0 0 0
334 2 8.6134999999999984e+00 9.2355835810918343e+00 3.2185946275412141e+00 0 0 0
285 2 4.9220000000000006e+00 1.1366872099805333e+01 3.2185946275412141e+00 0 0 0
328 2 6.1524999999999999e+00 1.0656442593567499e+01 3.2185946275412141e+00 0 0 0
330 2 7.3829999999999991e+00 1.1366872099805333e+01 3.2185946275412141e+00 0 0 0
375 2 8.6134999999999984e+00 1.0656442593567498e+01 3.2185946275412141e+00 0 0 0
202 2 0.0000000000000000e+00 1.4208590124756650e+00 6.2904078469499778e+00 0 0 0
204 2 0.0000000000000000e+00 0.0000000000000000e+00 6.2904078469499778e+00 0 0 0
213 2 1.2305000000000001e+00 2.1312885187134998e+00 6.2904078469499778e+00 0 0 0
215 2 2.4610000000000003e+00 1.4208590124756650e+00 6.2904078469499778e+00 0 0 0
217 2 2.4610000000000003e+00 0.0000000000000000e+00 6.2904078469499778e+00 0 0 0
234 2 3.6914999999999996e+00 2.1312885187134998e+00 6.2904078469499778e+00 0 0 0
211 2 1.2305000000000001e+00 3.5521475311891644e+00 6.2904078469499778e+00 0 0 0
232 2 3.6914999999999996e+00 3.5521475311891644e+00 6.2904078469499778e+00 0 0 0
530 2 0.0000000000000000e+00 2.8417180249513345e+00 9.3622210663586323e+00 0 0 0
531 2 0.0000000000000000e+00 0.0000000000000000e+00 9.3622210663586323e+00 0 0 0
532 2 1.2305000000000001e+00 7.1042950623783474e-01 9.3622210663586323e+00 0 0 0
536 2 1.2305000000000001e+00 2.1312885187134998e+00 9.3622210663586323e+00 0 0 0
537 2 2.4610000000000003e+00 2.8417180249513345e+00 9.3622210663586323e+00 0 0 0
538 2 2.4610000000000003e+00 0.0000000000000000e+00 9.3622210663586323e+00 0 0 0
539 2 3.6915000000000004e+00 7.1042950623783474e-01 9.3622210663586323e+00 0 0 0
547 2 3.6914999999999996e+00 2.1312885187134998e+00 9.3622210663586323e+00 0 0 0
236 2 4.9220000000000006e+00 1.4208590124756650e+00 6.2904078469499778e+00 0 0 0
238 2 4.9220000000000006e+00 0.0000000000000000e+00 6.2904078469499778e+00 0 0 0
263 2 6.1524999999999999e+00 2.1312885187134989e+00 6.2904078469499778e+00 0 0 0
265 2 7.3829999999999991e+00 1.4208590124756659e+00 6.2904078469499778e+00 0 0 0
267 2 7.3829999999999991e+00 0.0000000000000000e+00 6.2904078469499778e+00 0 0 0
300 2 8.6134999999999984e+00 2.1312885187135002e+00 6.2904078469499778e+00 0 0 0
261 2 6.1524999999999999e+00 3.5521475311891644e+00 6.2904078469499778e+00 0 0 0
298 2 8.6134999999999984e+00 3.5521475311891657e+00 6.2904078469499778e+00 0 0 0
548 2 4.9220000000000006e+00 2.8417180249513332e+00 9.3622210663586323e+00 0 0 0
549 2 4.9220000000000006e+00 0.0000000000000000e+00 9.3622210663586323e+00 0 0 0
550 2 6.1524999999999999e+00 7.1042950623783407e-01 9.3622210663586323e+00 0 0 0
562 2 6.1524999999999999e+00 2.1312885187134989e+00 9.3622210663586323e+00 0 0 0
563 2 7.3829999999999991e+00 2.8417180249513345e+00 9.3622210663586323e+00 0 0 0
564 2 7.3829999999999991e+00 0.0000000000000000e+00 9.3622210663586323e+00 0 0 0
565 2 8.6134999999999984e+00 7.1042950623783407e-01 9.3622210663586323e+00 0 0 0
581 2 8.6134999999999984e+00 2.1312885187135002e+00 9.3622210663586323e+00 0 0 0
207 2 0.0000000000000000e+00 5.6834360499026637e+00 6.2904078469499778e+00 0 0 0
209 2 0.0000000000000000e+00 4.2625770374269996e+00 6.2904078469499778e+00 0 0 0
226 2 1.2305000000000001e+00 6.3938655561404980e+00 6.2904078469499778e+00 0 0 0
228 2 2.4610000000000003e+00 5.6834360499026637e+00 6.2904078469499778e+00 0 0 0
230 2 2.4610000000000003e+00 4.2625770374269996e+00 6.2904078469499778e+00 0 0 0
255 2 3.6914999999999996e+00 6.3938655561404980e+00 6.2904078469499778e+00 0 0 0
224 2 1.2305000000000001e+00 7.8147245686161639e+00 6.2904078469499778e+00 0 0 0
253 2 3.6914999999999996e+00 7.8147245686161639e+00 6.2904078469499778e+00 0 0 0
534 2 0.0000000000000000e+00 4.2625770374269996e+00 9.3622210663586323e+00 0 0 0
535 2 1.2305000000000001e+00 4.9730065436648339e+00 9.3622210663586323e+00 0 0 0
543 2 1.2305000000000001e+00 6.3938655561404980e+00 9.3622210663586323e+00 0 0 0
545 2 2.4610000000000003e+00 4.2625770374269996e+00 9.3622210663586323e+00 0 0 0
546 2 3.6914999999999996e+00 4.9730065436648339e+00 9.3622210663586323e+00 0 0 0
558 2 3.6914999999999996e+00 6.3938655561404980e+00 9.3622210663586323e+00 0 0 0
533 2 0.0000000000000000e+00 7.1042950623783341e+00 9.3622210663586323e+00 0 0 0
544 2 2.4610000000000003e+00 7.1042950623783341e+00 9.3622210663586323e+00 0 0 0
257 2 4.9220000000000006e+00 5.6834360499026637e+00 6.2904078469499778e+00 0 0 0
259 2 4.9220000000000006e+00 4.2625770374269978e+00 6.2904078469499778e+00 0 0 0
292 2 6.1524999999999999e+00 6.3938655561404980e+00 6.2904078469499778e+00 0 0 0
294 2 7.3829999999999991e+00 5.6834360499026637e+00 6.2904078469499778e+00 0 0 0
296 2 7.3829999999999991e+00 4.2625770374269996e+00 6.2904078469499778e+00 0 0 0
337 2 8.6135000000000002e+00 6.3938655561404980e+00 6.2904078469499778e+00 0 0 0
290 2 6.1524999999999999e+00 7.8147245686161639e+00 6.2904078469499778e+00 0 0 0
335 2 8.6135000000000002e+00 7.8147245686161639e+00 6.2904078469499778e+00 0 0 0
560 2 4.9220000000000006e+00 4.2625770374269978e+00 9.3622210663586323e+00 0 0 0
561 2 6.1524999999999999e+00 4.9730065436648339e+00 9.3622210663586323e+00 0 0 0
577 2 6.1524999999999999e+00 6.3938655561404980e+00 9.3622210663586323e+00 0 0 0
579 2 7.3829999999999991e+00 4.2625770374269996e+00 9.3622210663586323e+00 0 0 0
580 2 8.6135000000000002e+00 4.9730065436648339e+00 9.3622210663586323e+00 0 0 0
600 2 8.6135000000000002e+00 6.3938655561404980e+00 9.3622210663586323e+00 0 0 0
559 2 4.9220000000000006e+00 7.1042950623783341e+00 9.3622210663586323e+00 0 0 0
578 2 7.3830000000000009e+00 7.1042950623783341e+00 9.3622210663586323e+00 0 0 0
220 2 0.0000000000000000e+00 9.9460130873296642e+00 6.2904078469499778e+00 0 0 0
222 2 0.0000000000000000e+00 8.5251540748539991e+00 6.2904078469499778e+00 0 0 0
249 2 2.4610000000000003e+00 9.9460130873296642e+00 6.2904078469499778e+00 0 0 0
251 2 2.4610000000000003e+00 8.5251540748539991e+00 6.2904078469499778e+00 0 0 0
245 2 1.2305000000000001e+00 1.2077301606043163e+01 6.2904078469499778e+00 0 0 0
247 2 1.2305000000000001e+00 1.0656442593567498e+01 6.2904078469499778e+00 0 0 0
282 2 3.6914999999999996e+00 1.2077301606043163e+01 6.2904078469499778e+00 0 0 0
284 2 3.6914999999999996e+00 1.0656442593567499e+01 6.2904078469499778e+00 0 0 0
541 2 0.0000000000000000e+00 8.5251540748539991e+00 9.3622210663586323e+00 0 0 0
542 2 1.2305000000000001e+00 9.2355835810918343e+00 9.3622210663586323e+00 0 0 0
556 2 2.4610000000000003e+00 8.5251540748539991e+00 9.3622210663586323e+00 0 0 0
557 2 3.6915000000000004e+00 9.2355835810918343e+00 9.3622210663586323e+00 0 0 0
540 2 0.0000000000000000e+00 1.1366872099805333e+01 9.3622210663586323e+00 0 0 0
554 2 1.2305000000000001e+00 1.0656442593567498e+01 9.3622210663586323e+00 0 0 0
555 2 2.4610000000000003e+00 1.1366872099805333e+01 9.3622210663586323e+00 0 0 0
573 2 3.6914999999999996e+00 1.0656442593567499e+01 9.3622210663586323e+00 0 0 0
286 2 4.9220000000000006e+00 9.9460130873296642e+00 6.2904078469499778e+00 0 0 0
288 2 4.9220000000000006e+00 8.5251540748539991e+00 6.2904078469499778e+00 0 0 0
331 2 7.3830000000000009e+00 9.9460130873296642e+00 6.2904078469499778e+00 0 0 0
333 2 7.3830000000000009e+00 8.5251540748539991e+00 6.2904078469499778e+00 0 0 0
327 2 6.1524999999999999e+00 1.2077301606043163e+01 6.2904078469499778e+00 0 0 0
329 2 6.1524999999999999e+00 1.0656442593567499e+01 6.2904078469499778e+00 0 0 0
374 2 8.6135000000000002e+00 1.2077301606043163e+01 6.2904078469499778e+00 0 0 0
376 2 8.6134999999999984e+00 1.0656442593567498e+01 6.2904078469499778e+00 0 0 0
575 2 4.9220000000000006e+00 8.5251540748539991e+00 9.3622210663586323e+00 0 0 0
576 2 6.1524999999999999e+00 9.2355835810918343e+00 9.3622210663586323e+00 0 0 0
598 2 7.3830000000000009e+00 8.5251540748539991e+00 9.3622210663586323e+00 0 0 0
599 2 8.6134999999999984e+00 9.2355835810918343e+00 9.3622210663586323e+00 0 0 0
574 2 4.9220000000000006e+00 1.1366872099805333e+01 9.3622210663586323e+00 0 0 0
596 2 6.1524999999999999e+00 1.0656442593567499e+01 9.3622210663586323e+00 0 0 0
597 2 7.3829999999999991e+00 1.1366872099805333e+01 9.3622210663586323e+00 0 0 0
620 2 8.6134999999999984e+00 1.0656442593567498e+01 9.3622210663586323e+00 0 0 0
110 1 9.0704140457668867e+00 8.0849272852382530e+00 1.2250941867002867e+01 1 1 0
3536 1 1.4474691087311307e+00 2.7364666489612923e+00 1.1835027330053752e+01 2 0 0
2217 1 2.0006232269603514e+00 1.1381609840048300e+01 1.5983673227568984e+01 1 -1 0
4891 1 8.1712006508822537e+00 1.8690641784513966e+00 1.1905316228637517e+01 1 0 0
1231 1 9.7183445650978140e+00 7.8858823529336082e+00 1.5090629800369747e+01 0 0 -1
1290 1 4.1499414422942316e+00 2.7017322034882865e+00 1.2008212106556950e+01 0 1 0
4680 1 8.8363814365802416e+00 3.6305915212054023e+00 1.9725517191114609e+01 0 0 0
4772 1 1.2801525459301279e+00 2.9601124109667172e+00 1.4674881984192996e+01 1 1 -1
4830 1 1.0810557486409111e+00 5.5046371349574432e+00 1.1957925640089082e+01 1 1 -1
1269 1 2.2274741650248839e+00 5.7140503443222741e+00 1.4391524500359203e+01 1 0 -1
31 1 5.8896257258797888e+00 4.6223588723982747e+00 1.4693017101030872e+01 0 0 0
3935 1 6.7670965953831885e+00 4.5255152659545050e+00 1.1756177792457496e+01 1 1 0
2562 1 4.3015004181697156e+00 6.1905893708418045e+00 1.2244013295561096e+01 0 0 0
3568 1 7.5621464196610066e-01 8.6249554934525623e+00 1.2310452412191118e+01 0 0 0
3909 1 2.3640972352993086e+00 1.0717415345818534e+01 1.3470278732136608e+01 1 0 0
943 1 6.6579434392879255e+00 9.3411652859217238e+00 1.2003288618317894e+01 0 0 -1
1129 1 4.4709547285444584e+00 8.7908924884444826e+00 1.3676920497658495e+01 1 0 0
2419 1 2.3722837437234952e+00 1.3737508602977382e+00 1.9459290488012389e+01 0 1 0
1057 1 7.3841279367762294e+00 1.1270693385887885e+01 1.4665841921808292e+01 0 0 0
965 1 4.6573152084577796e+00 5.4745147196616673e+00 1.8747648127494390e+01 0 0 0
1012 1 4.4215608992474813e+00 2.7525589848329419e+00 1.8171993736825733e+01 1 0 -1
2176 1 7.0712110949684028e+00 1.8426726228764081e+00 1.8249242513514996e+01 1 0 0
4814 1 9.0788963628679245e+00 8.9997066868825293e-01 1.6236264380402520e+01 0 1 0
1089 1 9.3051263320853206e+00 5.9948060620900367e+00 1.8361823738251680e+01 1 1 0
1419 1 9.5676447314923081e+00 3.8428543787937945e+00 1.4422066904081078e+01 0 0 0
2284 1 4.0572431960921538e+00 2.6142066123215386e+00 1.5553278940523622e+01 1 1 -1
1297 1 4.6226643106838212e+00 6.7939039749450076e+00 1.6117422020248075e+01 1 -1 -1
2363 1 2.2965154512183346e+00 6.2486237562092626e+00 1.8072146830220795e+01 1 1 0
3726 1 8.3303376476533906e+00 5.9022308003029762e+00 1.5848039211540360e+01 1 1 0
2446 1 5.5869256067131667e+00 9.7399109069289889e+00 1.6716410037281989e+01 0 -1 -1
178 1 1.3343491630338753e+00 8.0911406457474033e+00 1.5629967763950285e+01 0 0 0
905 1 2.5951827407475414e+00 9.6971958938269651e+00 1.7993507774144909e+01 0 1 -1
3551 1 4.8565880930192860e+00 1.1607357148347978e+01 1.8898960739267299e+01 1 0 0
4953 1 9.6775048108089159e+00 1.0216408473801842e+01 1.6849943738098766e+01 1 0 0
2211 1 7.2153309820984446e-02 4.3893986231418918e+00 1.7186623225124556e+01 0 0 0
2350 1 9.4636893169551595e+00 5.3131545271168488e+00 1.1913013735871791e+01 0 0 0
1339 1 7.2900366538349619e+00 2.3118454470037135e+00 1.4385739329328825e+01 1 0 0
3550 1 6.7803129901780830e+00 7.5490131559736833e+00 1.8429955985598490e+01 1 1 0
1424 1 8.6051214719562701e+00 1.1825028588044534e+01 1.9198375061732900e+01 0 0 0
2156 1 7.3789328516742776e+00 1.2199263941048057e+01 1.1994897073950812e+01 1 1 0
195 1 4.5499710889410023e+00 3.7559396546803382e-02 1.2354234812465107e+01 1 0 0
1019 1 4.8083375953581431e+00 8.0759827917582072e-02 1.5090246278016796e+01 0 0 0
3903 1 2.3699635575392897e+00 1.1568912472679507e+00 2.2279997262234428e+01 1 0 0
2180 1 1.0179619525490682e+00 4.4536352775331967e+00 2.2140706292830782e+01 -1 -1 0
2517 1 7.1713498491805581e+00 1.3732900252573084e+00 2.8884847499295788e+01 0 0 -1
1335 1 7.1550416327399118e+00 1.5583152124063790e+00 2.2305282234481759e+01 -1 0 0
1278 1 4.2653440851322344e+00 5.5996020938245055e+00 2.1669095916389480e+01 1 -1 -1
2436 1 3.1025070508564867e+00 8.2413035797460292e+00 2.2212042723052782e+01 0 0 -1
1351 1 3.4519871193159104e+00 3.3138443642979967e+00 2.3830931184215686e+01 0 1 0
2416 1 7.4221663444573380e+00 9.5869409059295254e+00 2.0384592049388608e+01 0 1 -1
3406 1 1.2413939121404682e+00 5.8451813554228185e+00 2.7398636762649474e+01 0 0 0
2334 1 6.6456515257012594e+00 5.8157605569772191e+00 2.3204164209755607e+01 0 1 0
3939 1 9.7889464415054199e+00 9.7091870410444923e+00 2.4653592686426304e+01 0 -1 0
1016 1 7.4179619024645076e+00 8.6580317852103068e+00 2.3090736206496121e+01 0 0 0
1079 1 2.1785435863306053e+00 3.3403179174440982e+00 2.6301057307565308e+01 0 0 -1
128 1 3.8701929139023448e+00 9.8142453151426348e-02 2.7952496600432656e+01 1 1 1
2619 1 5.0169596746526643e+00 1.0602562212603249e+01 2.1546118971110740e+01 0 0 0
2160 1 8.5438669012948978e+00 7.3687268341201042e+00 2.8378183145617406e+01 0 1 0
1060 1 4.5915109611268479e+00 2.9267339385901101e+00 2.8090803208746241e+01 0 0 0
3668 1 8.6196222771585269e+00 1.1439335906771968e+00 2.6206171050594168e+01 0 0 0
2427 1 5.6755497290780630e+00 1.5126450682648922e+00 2.4696691846710401e+01 0 1 0
2197 1 5.8212628553572756e+00 4.5569266644832904e+00 2.5627489094509706e+01 0 1 0
1074 1 2.4830816579425044e-01 1.0272974806833941e+01 2.3108960976675778e+01 0 -1 0
3863 1 1.6156201614898138e+00 6.6453661687012966e+00 2.4361697852098608e+01 1 0 0
4688 1 5.3837571087280764e+00 6.9570993302270390e+00 2.7160761453094544e+01 0 0 -1
4822 1 8.2114847420833481e+00 4.0146779707249447e+00 2.7506827661276585e+01 1 1 0
3585 1 3.3976696920253064e+00 9.0123463306078424e+00 2.5466969285017750e+01 1 0 0
3417 1 3.8313382026633735e-01 1.1084459820233052e+00 2.6504977109945738e+01 0 1 0
5015 1 1.2763947192875635e+00 7.8862463498574016e+00 2.0271857611638861e+01 1 1 0
3696 1 8.5405123983851396e+00 3.8739336349507107e+00 2.2625096716084453e+01 1 1 -1
4860 1 5.9903067519288458e+00 9.9020943975406563e+00 2.5342681262184605e+01 -1 1 0
2236 1 7.8664196668664497e+00 9.7929779736824116e+00 2.7505850331650382e+01 0 1 -1
1154 1 2.3794277812743241e+00 9.0645734724572833e+00 2.8097439621515047e+01 0 0 0
1417 1 2.2033122480387259e+00 1.1546277182016688e+01 2.4519836839074266e+01 0 -1 0
2157 1 8.0792647470364809e-01 1.0872684808478811e+01 2.0214630478680196e+01 0 -1 0
2200 1 4.1597891824070290e+00 2.0874795749404136e+00 3.2141250550181255e+01 1 2 0
996 1 4.7943791025363023e+00 4.9920106107996993e+00 3.1644899093628570e+01 0 1 0
3669 1 8.6029365884906515e+00 4.8593502059671607e+00 3.1467880697273419e+01 1 1 -1
147 1 6.9782820116468995e+00 2.3035127639270367e+00 3.1639197681552574e+01 0 0 1
1070 1 1.1125734152942028e+00 6.9047103011931359e+00 3.2576794786226031e+01 0 1 -1
4654 1 6.3352205839971303e+00 5.1496491792253947e+00 2.9605136742956535e+01 0 1 0
2187 1 5.7446397708218848e+00 3.5244838865396932e-01 3.7563872141962044e+01 0 0 -1
151 1 5.1264629952163379e+00 5.0314039924432601e+00 3.4687805352284755e+01 0 0 0
928 1 6.3825466655977445e+00 7.1227436473969599e+00 3.2625352721736320e+01 1 0 1
4868 1 2.4440743355519028e+00 9.6590743076961498e+00 3.7080682999206402e+01 -1 0 0
3947 1 3.4879255040817436e+00 1.0185183749022315e+01 3.4576755973246861e+01 0 0 1
1162 1 8.6030225020190567e+00 8.0933929005803797e+00 3.1246015651455401e+01 1 0 0
2574 1 1.9116726196104157e+00 5.0848609388574717e+00 3.0733154335107333e+01 1 0 -1
1301 1 8.3994955917928831e+00 5.3663258164608667e+00 3.4629577716511051e+01 0 1 0
1167 1 6.0517527647536795e+00 9.1131327980622849e+00 3.4699375149191930e+01 0 1 0
2438 1 2.1076375988300691e+00 9.5646460327944709e+00 3.2088346505623356e+01 0 0 -1
1001 1 4.7345595210388112e+00 8.8251264093871740e+00 3.1106802419368908e+01 0 0 0
3480 1 9.6685906222267981e+00 9.7850441551537077e+00 3.5072399470502248e+01 0 1 0
2506 1 6.5264843759422870e+00 8.6323951420215419e+00 3.7193659032697397e+01 1 0 -1
4988 1 7.9017408966661238e+00 1.1046041830455229e+01 3.1190359974789704e+01 0 0 -1
2394 1 7.4251479377625307e+00 1.1432854656982514e+01 3.3875279681930216e+01 0 0 0
2586 1 1.0220103677106021e+00 7.4634619804139313e-01 3.7562831904620992e+01 0 -1 0
3785 1 5.3613709273094265e+00 1.0314445964041552e+00 3.5044255128997087e+01 0 1 -1
4962 1 4.5538367177797406e-01 1.8138531708935042e+00 3.4881739921431375e+01 1 -1 -1
3773 1 4.4431425523117172e+00 3.2423781823477489e+00 3.7470201199387134e+01 0 0 0
4964 1 1.6171840335753698e+00 3.7342214133823664e+00 3.7414731870272917e+01 0 0 0
4761 1 4.7393544256667735e+00 1.0995042390311816e+01 3.7779368568431792e+01 1 0 0
2313 1 9.1466508459147295e+00 2.4794394256328069e+00 3.7491218871730361e+01 0 1 0
2447 1 7.8322227609096728e+00 2.5409695741991123e+00 3.4674690078904852e+01 0 1 0
3819 1 3.1838460444929759e+00 2.6721406886625574e+00 3.4491317349250259e+01 0 0 0
1195 1 2.4237183677804266e+00 5.8954125280197252e+00 3.4741903862863943e+01 0 0 0
4899 1 2.7556353743706175e+00 6.6890253700606932e+00 3.7476734779974201e+01 1 2 0
188 1 5.4540260522704367e+00 5.9007332154682510e+00 3.7522473386689519e+01 0 1 0
3781 1 8.3449178334352307e+00 5.5678655859483124e+00 3.7169722339360987e+01 0 0 -1
4917 1 9.2297237637817684e+00 8.2037499336361144e+00 3.7464135865575230e+01 0 0 0
3503 1 2.1849470545165297e+00 1.1224212130169798e+01 2.9884308478033017e+01 0 0 0
2262 1 2.1614919697956186e-01 1.1134212580670749e+01 3.3654400399765770e+01 1 0 0
4721 1 5.9715682385456663e+00 1.0660530299955797e+01 2.9666024291889578e+01 0 1 0
2649 1 9.7509056727782255e+00 5.9055551924281124e-01 3.3819855957731768e+01 0 1 -1
3873 1 4.1218263412034067e-01 1.1312762977899967e+01 3.7731842792235312e+01 1 -1 0
1237 1 3.5490481065378581e+00 6.9478784702104059e+00 2.9291891735913097e+01 0 0 -1
242 2 0.0000000000000000e+00 1.2787731112280996e+01 3.2185946275412141e+00 0 0 0
244 2 1.2305000000000001e+00 1.3498160618518829e+01 3.2185946275412141e+00 0 0 0
279 2 2.4610000000000003e+00 1.2787731112280996e+01 3.2185946275412141e+00 0 0 0
281 2 3.6915000000000004e+00 1.3498160618518829e+01 3.2185946275412141e+00 0 0 0
240 2 0.0000000000000000e+00 1.5629449137232333e+01 3.2185946275412141e+00 0 0 0
275 2 1.2305000000000001e+00 1.4919019630994494e+01 3.2185946275412141e+00 0 0 0
277 2 2.4610000000000003e+00 1.5629449137232328e+01 3.2185946275412141e+00 0 0 0
320 2 3.6915000000000004e+00 1.4919019630994494e+01 3.2185946275412141e+00 0 0 0
324 2 4.9220000000000006e+00 1.2787731112280996e+01 3.2185946275412141e+00 0 0 0
326 2 6.1524999999999990e+00 1.3498160618518829e+01 3.2185946275412141e+00 0 0 0
371 2 7.3829999999999991e+00 1.2787731112280996e+01 3.2185946275412141e+00 0 0 0
373 2 8.6135000000000002e+00 1.3498160618518835e+01 3.2185946275412141e+00 0 0 0
322 2 4.9220000000000006e+00 1.5629449137232333e+01 3.2185946275412141e+00 0 0 0
367 2 6.1524999999999990e+00 1.4919019630994494e+01 3.2185946275412141e+00 0 0 0
369 2 7.3829999999999991e+00 1.5629449137232333e+01 3.2185946275412141e+00 0 0 0
414 2 8.6135000000000002e+00 1.4919019630994494e+01 3.2185946275412141e+00 0 0 0
271 2 0.0000000000000000e+00 1.7050308149707998e+01 3.2185946275412141e+00 0 0 0
316 2 2.4610000000000003e+00 1.7050308149707998e+01 3.2185946275412141e+00 0 0 0
269 2 0.0000000000000000e+00 1.9892026174659328e+01 3.2185946275412141e+00 0 0 0
273 2 1.2305000000000001e+00 1.7760737655945832e+01 3.2185946275412141e+00 0 0 0
312 2 1.2305000000000001e+00 1.9181596668421495e+01 3.2185946275412141e+00 0 0 0
314 2 2.4610000000000003e+00 1.9892026174659328e+01 3.2185946275412141e+00 0 0 0
318 2 3.6914999999999996e+00 1.7760737655945832e+01 3.2185946275412141e+00 0 0 0
359 2 3.6914999999999996e+00 1.9181596668421495e+01 3.2185946275412141e+00 0 0 0
363 2 4.9220000000000006e+00 1.7050308149707998e+01 3.2185946275412141e+00 0 0 0
410 2 7.3830000000000009e+00 1.7050308149707998e+01 3.2185946275412141e+00 0 0 0
361 2 4.9220000000000006e+00 1.9892026174659328e+01 3.2185946275412141e+00 0 0 0
365 2 6.1524999999999999e+00 1.7760737655945832e+01 3.2185946275412141e+00 0 0 0
406 2 6.1524999999999999e+00 1.9181596668421495e+01 3.2185946275412141e+00 0 0 0
408 2 7.3829999999999991e+00 1.9892026174659328e+01 3.2185946275412141e+00 0 0 0
412 2 8.6134999999999984e+00 1.7760737655945832e+01 3.2185946275412141e+00 0 0 0
448 2 8.6135000000000002e+00 1.9181596668421495e+01 3.2185946275412141e+00 0 0 0
306 2 0.0000000000000000e+00 2.4154603212086325e+01 3.2185946275412141e+00 0 0 0
308 2 0.0000000000000000e+00 2.1312885187134999e+01 3.2185946275412141e+00 0 0 0
310 2 1.2304999999999993e+00 2.2023314693372832e+01 3.2185946275412141e+00 0 0 0
351 2 1.2304999999999993e+00 2.3444173705848499e+01 3.2185946275412141e+00 0 0 0
353 2 2.4610000000000003e+00 2.4154603212086325e+01 3.2185946275412141e+00 0 0 0
355 2 2.4610000000000003e+00 2.1312885187134995e+01 3.2185946275412141e+00 0 0 0
357 2 3.6914999999999996e+00 2.2023314693372832e+01 3.2185946275412141e+00 0 0 0
398 2 3.6915000000000004e+00 2.3444173705848499e+01 3.2185946275412141e+00 0 0 0
400 2 4.9220000000000006e+00 2.4154603212086325e+01 3.2185946275412141e+00 0 0 0
402 2 4.9220000000000006e+00 2.1312885187134995e+01 3.2185946275412141e+00 0 0 0
404 2 6.1524999999999990e+00 2.2023314693372832e+01 3.2185946275412141e+00 0 0 0
440 2 6.1524999999999999e+00 2.3444173705848499e+01 3.2185946275412141e+00 0 0 0
442 2 7.3830000000000009e+00 2.4154603212086336e+01 3.2185946275412141e+00 0 0 0
444 2 7.3829999999999991e+00 2.1312885187134999e+01 3.2185946275412141e+00 0 0 0
446 2 8.6135000000000002e+00 2.2023314693372832e+01 3.2185946275412141e+00 0 0 0
474 2 8.6134999999999984e+00 2.3444173705848499e+01 3.2185946275412141e+00 0 0 0
243 2 0.0000000000000000e+00 1.2787731112280996e+01 6.2904078469499778e+00 0 0 0
280 2 2.4610000000000003e+00 1.2787731112280996e+01 6.2904078469499778e+00 0 0 0
241 2 0.0000000000000000e+00 1.4208590124756663e+01 6.2904078469499778e+00 0 0 0
276 2 1.2305000000000001e+00 1.4919019630994494e+01 6.2904078469499778e+00 0 0 0
278 2 2.4610000000000003e+00 1.4208590124756663e+01 6.2904078469499778e+00 0 0 0
321 2 3.6915000000000004e+00 1.4919019630994494e+01 6.2904078469499778e+00 0 0 0
552 2 0.0000000000000000e+00 1.2787731112280996e+01 9.3622210663586323e+00 0 0 0
553 2 1.2305000000000001e+00 1.3498160618518829e+01 9.3622210663586323e+00 0 0 0
571 2 2.4610000000000003e+00 1.2787731112280996e+01 9.3622210663586323e+00 0 0 0
572 2 3.6915000000000004e+00 1.3498160618518829e+01 9.3622210663586323e+00 0 0 0
551 2 0.0000000000000000e+00 1.5629449137232333e+01 9.3622210663586323e+00 0 0 0
569 2 1.2305000000000001e+00 1.4919019630994494e+01 9.3622210663586323e+00 0 0 0
570 2 2.4610000000000003e+00 1.5629449137232328e+01 9.3622210663586323e+00 0 0 0
592 2 3.6915000000000004e+00 1.4919019630994494e+01 9.3622210663586323e+00 0 0 0
325 2 4.9220000000000006e+00 1.2787731112280996e+01 6.2904078469499778e+00 0 0 0
372 2 7.3829999999999991e+00 1.2787731112280996e+01 6.2904078469499778e+00 0 0 0
323 2 4.9220000000000006e+00 1.4208590124756663e+01 6.2904078469499778e+00 0 0 0
368 2 6.1524999999999990e+00 1.4919019630994494e+01 6.2904078469499778e+00 0 0 0
370 2 7.3830000000000009e+00 1.4208590124756663e+01 6.2904078469499778e+00 0 0 0
415 2 8.6135000000000002e+00 1.4919019630994494e+01 6.2904078469499778e+00 0 0 0
594 2 4.9220000000000006e+00 1.2787731112280996e+01 9.3622210663586323e+00 0 0 0
595 2 6.1524999999999990e+00 1.3498160618518829e+01 9.3622210663586323e+00 0 0 0
618 2 7.3829999999999991e+00 1.2787731112280996e+01 9.3622210663586323e+00 0 0 0
619 2 8.6135000000000002e+00 1.3498160618518835e+01 9.3622210663586323e+00 0 0 0
593 2 4.9220000000000006e+00 1.5629449137232333e+01 9.3622210663586323e+00 0 0 0
616 2 6.1524999999999990e+00 1.4919019630994494e+01 9.3622210663586323e+00 0 0 0
617 2 7.3829999999999991e+00 1.5629449137232333e+01 9.3622210663586323e+00 0 0 0
640 2 8.6135000000000002e+00 1.4919019630994494e+01 9.3622210663586323e+00 0 0 0
272 2 0.0000000000000000e+00 1.7050308149707998e+01 6.2904078469499778e+00 0 0 0
274 2 1.2305000000000001e+00 1.6339878643470165e+01 6.2904078469499778e+00 0 0 0
317 2 2.4610000000000003e+00 1.7050308149707998e+01 6.2904078469499778e+00 0 0 0
319 2 3.6915000000000004e+00 1.6339878643470165e+01 6.2904078469499778e+00 0 0 0
270 2 0.0000000000000000e+00 1.8471167162183658e+01 6.2904078469499778e+00 0 0 0
313 2 1.2305000000000001e+00 1.9181596668421495e+01 6.2904078469499778e+00 0 0 0
315 2 2.4610000000000003e+00 1.8471167162183658e+01 6.2904078469499778e+00 0 0 0
360 2 3.6914999999999996e+00 1.9181596668421495e+01 6.2904078469499778e+00 0 0 0
567 2 0.0000000000000000e+00 1.7050308149707998e+01 9.3622210663586323e+00 0 0 0
590 2 2.4610000000000003e+00 1.7050308149707998e+01 9.3622210663586323e+00 0 0 0
566 2 0.0000000000000000e+00 1.9892026174659328e+01 9.3622210663586323e+00 0 0 0
568 2 1.2305000000000001e+00 1.7760737655945832e+01 9.3622210663586323e+00 0 0 0
588 2 1.2305000000000001e+00 1.9181596668421495e+01 9.3622210663586323e+00 0 0 0
589 2 2.4610000000000003e+00 1.9892026174659328e+01 9.3622210663586323e+00 0 0 0
591 2 3.6914999999999996e+00 1.7760737655945832e+01 9.3622210663586323e+00 0 0 0
612 2 3.6914999999999996e+00 1.9181596668421495e+01 9.3622210663586323e+00 0 0 0
364 2 4.9220000000000006e+00 1.7050308149707998e+01 6.2904078469499778e+00 0 0 0
366 2 6.1524999999999999e+00 1.6339878643470165e+01 6.2904078469499778e+00 0 0 0
411 2 7.3830000000000009e+00 1.7050308149707998e+01 6.2904078469499778e+00 0 0 0
413 2 8.6134999999999984e+00 1.6339878643470165e+01 6.2904078469499778e+00 0 0 0
362 2 4.9220000000000006e+00 1.8471167162183658e+01 6.2904078469499778e+00 0 0 0
407 2 6.1524999999999999e+00 1.9181596668421495e+01 6.2904078469499778e+00 0 0 0
409 2 7.3829999999999991e+00 1.8471167162183658e+01 6.2904078469499778e+00 0 0 0
449 2 8.6135000000000002e+00 1.9181596668421495e+01 6.2904078469499778e+00 0 0 0
614 2 4.9220000000000006e+00 1.7050308149707998e+01 9.3622210663586323e+00 0 0 0
638 2 7.3830000000000009e+00 1.7050308149707998e+01 9.3622210663586323e+00 0 0 0
613 2 4.9220000000000006e+00 1.9892026174659328e+01 9.3622210663586323e+00 0 0 0
615 2 6.1524999999999999e+00 1.7760737655945832e+01 9.3622210663586323e+00 0 0 0