
# Create simulation box and atoms

read_data data.ML_graphite_m500atm_240K
  orthogonal box = (0 0 1.53529) to (49.22 49.0196 38.4647)
  5 by 4 by 4 MPI processor grid
  reading atoms ...
  5021 atoms
  reading velocities ...
  5021 velocities
group water type 1
2261 atoms in group water
group graphite type 2
2760 atoms in group graphite

# Define potential

pair_style sw
pair_coeff * * MLC_e.sw mW C


# Fix graphite atoms in place

fix 5 graphite setforce 0.0 0.0 0.0
velocity graphite set 0.0 0.0 0.0


# Equilibration of molecular water

# Add velocity/set timestep

velocity	    water create ${TEMP} ${SEED} rot yes dist gaussian
velocity	    water create 240 ${SEED} rot yes dist gaussian
velocity	    water create 240 9450 rot yes dist gaussian
timestep	    5.0

# Define output

compute			1 water msd
compute			3 water temp
thermo	    	50
thermo_style	custom step temp press vol etotal ke pe c_1[4] c_3

# Neighbor lists

neigh_modify    delay 0 every 1 check yes

# Set fixes

fix             1 water momentum 10 linear 1 1 1 rescale
fix             2 water nve
fix             3 water temp/csvr ${TEMP} ${TEMP} 500.0 ${SEED}
fix             3 water temp/csvr 240 ${TEMP} 500.0 ${SEED}
fix             3 water temp/csvr 240 240 500.0 ${SEED}
fix             3 water temp/csvr 240 240 500.0 9450
fix             4 water press/berendsen z ${PRES} ${PRES} 1000.0 modulus 20000
fix             4 water press/berendsen z -500 ${PRES} 1000.0 modulus 20000
fix             4 water press/berendsen z -500 -500 1000.0 modulus 20000

# Run 0.5 ns equilibration

dump		    1 all atom 2000 ${DIR}/eq.${NAME}-${TEMP}.dump
dump		    1 all atom 2000 run_3/eq.${NAME}-${TEMP}.dump
dump		    1 all atom 2000 run_3/eq.het_freeze_3-${TEMP}.dump
dump		    1 all atom 2000 run_3/eq.het_freeze_3-240.dump

reset_timestep  0

run	            100000
Neighbor list info ...
  update every 1 steps, delay 0 steps, check yes
  max neighbors/atom: 2000, page size: 100000
  master list distance cutoff = 6.67472
  ghost atom cutoff = 6.67472
  binsize = 3.33736, bins = 15 15 12
  1 neighbor lists, perpetual/occasional/extra = 1 0 0
  (1) pair sw, perpetual
      attributes: full, newton on
      pair build: full/bin/atomonly
      stencil: full/bin/3d
      bin: standard
Per MPI rank memory allocation (min/avg/max) = 4.069 | 4.188 | 4.476 Mbytes
Step Temp Press Volume TotEng KinEng PotEng c_1[4] c_3 
       0    108.04781   -816.58172    89101.337   -21796.007    1616.7914   -23412.799            0          240 
      50    109.62716   -778.43642    89073.865   -21823.981    1640.4243   -23464.405    0.4929094    243.50812 
     100    110.04944   -765.10226    89059.467   -21833.401    1646.7432   -23480.144   0.81140385    244.44611 
     150    109.05447   -665.44142    89062.895   -21814.238    1631.8547   -23446.093    1.0405925    242.23603 
     200    109.92194    -629.9709    89033.341   -21800.696    1644.8353   -23445.532    1.2247698     244.1629 
     250    107.31825    -410.6306    89041.512   -21791.897    1605.8744   -23397.771    1.4502812    238.37947 
     300    107.35836    -829.1923    89054.933   -21794.271    1606.4747   -23400.746    1.6717134    238.46857 
     350    109.27786   -381.32463    89035.582   -21760.031    1635.1974   -23395.229    1.8743527    242.73223 
     400    112.14255   -1090.9897    89095.204   -21730.358    1678.0637   -23408.421    2.0163711     249.0954 
     450    108.52153   -865.93649    89062.178   -21735.517    1623.8799   -23359.397    2.2065475    241.05224 
     500     109.2851    -1039.019    89025.014   -21763.612    1635.3058   -23398.918    2.3707778    242.74832 
     550    107.41634   -564.72699    89045.557   -21820.758    1607.3423     -23428.1    2.5340969    238.59736 
     600    107.16848   -1113.3776    89079.638    -21785.79    1603.6334   -23389.424    2.6781426     238.0468 
     650     107.9083   -782.25497    89162.737   -21821.733    1614.7038   -23436.437    2.8699917    239.69012 
     700    106.49221   -610.07575    89211.874   -21862.983    1593.5139   -23456.497    2.9940377    236.54463 
     750      107.445   -662.59742    89214.612   -21802.995    1607.7712   -23410.766    3.1249672    238.66102 
     800    106.52966   -815.88067    89210.651   -21829.544    1594.0742   -23423.618    3.2704346    236.62782 
     850    107.26694   -681.41152    89203.964   -21829.868    1605.1068   -23434.975    3.4592322    238.26551 
     900    105.77793   -567.67092    89231.872   -21819.154    1582.8256    -23401.98    3.5883941    234.95805 
     950    108.36159   -935.36551    89209.475   -21816.186    1621.4867   -23437.672    3.7510235    240.69698 
    1000    104.63181   -951.57889    89155.331   -21824.903    1565.6754   -23390.578    3.8732372    232.41224 
    1050    105.88841   -588.71767    89117.138   -21826.662    1584.4788   -23411.141    3.9848382    235.20345 
    1100    106.01723   -679.79788    89150.057   -21781.584    1586.4065    -23367.99    4.0648561     235.4896 
    1150    107.24174   -754.19699    89176.109   -21777.928    1604.7297   -23382.657    4.2102527    238.20954 
    1200    105.90697   -841.56687    89176.135   -21757.267    1584.7566   -23342.024    4.3545448    235.24469 
    1250    108.14967   -904.44287    89082.854   -21751.726    1618.3156   -23370.042    4.4816721    240.22626 
    1300    107.68827   -798.74487    89088.111   -21760.738    1611.4114    -23372.15    4.6755826    239.20139 
    1350    110.47608   -796.90247    89116.651   -21775.509    1653.1272   -23428.636    4.8698533    245.39377 
    1400    108.58421   -699.55941    89091.055   -21795.211    1624.8179   -23420.029    5.1097625    241.19147 
    1450    110.26602   -803.76473    89119.441   -21733.575     1649.984   -23383.559    5.3261157    244.92718 
    1500    111.29881    -374.1675    89185.756   -21715.509    1665.4383   -23380.948    5.4823792    247.22125 
    1550    109.05341   -787.67887    89235.058   -21716.659    1631.8389   -23348.497    5.6782975    242.23368 
    1600     110.7888   -1080.3024    89347.524    -21734.44    1657.8066   -23392.247    5.8517626    246.08839 
    1650    111.24095   -865.44723    89312.797   -21713.017    1664.5725   -23377.589     5.943423    247.09274 
    1700    112.29314   -521.56944    89287.997   -21741.864    1680.3171   -23422.182    6.1378219     249.4299 
    1750    106.91478   -785.28524    89276.766   -21776.813    1599.8371    -23376.65    6.3454012    237.48327 
    1800     108.9007    -667.9333    89285.542   -21750.641    1629.5538   -23380.195    6.4177479    241.89448 
    1850      109.484   -993.57062    89257.009    -21748.15     1638.282   -23386.432    6.5056846    243.19012 
    1900    110.40526   -834.84746    89257.735   -21743.615    1652.0675   -23395.683    6.7301092    245.23647 
    1950    108.35176    -868.9364    89309.212   -21761.118    1621.3397   -23382.458    6.8285299    240.67516 
    2000    107.68477   -1166.7671    89325.328   -21736.036     1611.359   -23347.395    6.9422872    239.19361 
    2050    109.22334   -991.52844    89327.176    -21702.82    1634.3816   -23337.201    7.0718991    242.61114 
    2100    107.11862   -986.71669    89328.875    -21728.97    1602.8873   -23331.857    7.2573112    237.93605 
    2150    108.73379   -834.76816    89327.711   -21750.938    1627.0562   -23377.994    7.5100352    241.52373 
    2200    105.47429   -662.37239    89297.403    -21784.87    1578.2822   -23363.152     7.698852    234.28361 
    2250    108.05979   -771.89666    89391.683   -21760.128    1616.9706   -23377.099    7.8798482    240.02661 
    2300    109.09809   -1046.4474    89401.433    -21744.06    1632.5075   -23376.567    8.0139969    242.33293 
    2350    108.58624   -1155.6698     89367.23   -21747.865    1624.8483   -23372.714    8.1722915    241.19599 
    2400    107.55276   -1101.1625    89393.778   -21759.274    1609.3836   -23368.658    8.3282408    238.90037 
    2450    108.47661   -1129.9824     89385.73   -21772.598    1623.2079   -23395.806    8.6145891    240.95248 
    2500    108.03111   -819.01528    89367.675   -21797.769    1616.5414    -23414.31    8.8462411     239.9629 
    2550    107.54778   -826.72951    89439.011    -21783.58    1609.3092   -23392.889    9.0620829    238.88932 
    2600    106.76268   -917.54533    89476.938   -21746.533    1597.5611   -23344.095    9.1951779    237.14542 
    2650    106.10995   -856.27661    89429.981   -21741.126     1587.794    -23328.92    9.3865871    235.69556 
    2700    108.05045   -826.95885    89399.779   -21759.512    1616.8308   -23376.343    9.5640479    240.00586 
    2750    107.81917   -1112.5952    89415.322   -21764.363      1613.37   -23377.733    9.7798083    239.49213 
    2800    109.72828   -927.22716    89395.833   -21739.228    1641.9374   -23381.166    10.045857    243.73273 
    2850    110.00423   -1175.9351    89375.175   -21753.421    1646.0666   -23399.488    10.208759    244.34567 
    2900    110.66861   -792.91951    89266.494   -21741.183    1656.0082   -23397.191    10.446722    245.82143 
    2950    110.73918   -766.98865    89255.482   -21728.559    1657.0641   -23385.623    10.648065    245.97817 
    3000    110.00223    -484.7655    89260.812   -21694.382    1646.0366   -23340.419     10.89971    244.34123 
    3050    108.12327   -849.82899    89230.134   -21712.259    1617.9206   -23330.179    11.060052    240.16763 
    3100    110.23735    -771.9164    89218.685   -21724.168    1649.5549   -23373.723    11.219707    244.86349 
    3150    108.13598   -533.47889    89226.757   -21731.333    1618.1108   -23349.444    11.508554    240.19585 
    3200    108.17451   -695.35493    89231.181   -21717.206    1618.6873   -23335.894    11.667969    240.28144 
    3250     107.9689    -910.3848    89222.346   -21727.944    1615.6106   -23343.555    11.819072    239.82472 
    3300    109.84689   -916.88514    89201.951   -21725.966    1643.7123   -23369.679    12.136462     243.9962 
    3350    107.14383   -491.21115    89239.416   -21773.337    1603.2645   -23376.602    12.365076    237.99204 
    3400    108.89226   -787.50027    89276.406   -21777.041    1629.4275   -23406.468    12.551341    241.87573 
    3450    106.74569   -801.28969    89285.669   -21772.595    1597.3069   -23369.902     12.81589    237.10768 
    3500    108.12016   -678.98173     89299.01   -21741.905     1617.874   -23359.779    13.096484    240.16071 
    3550    107.48189   -1029.6642    89212.858   -21738.695    1608.3232   -23347.018    13.341493    238.74296 
    3600    108.58196   -1133.6042    89172.598   -21733.446    1624.7842    -23358.23    13.682258    241.18648 
    3650    107.93991   -916.72728    89176.045   -21740.049    1615.1767   -23355.225    13.946861    239.76032 
    3700    109.77656   -672.60353    89234.244   -21774.138    1642.6599   -23416.798    14.142003    243.83997 
    3750    109.74874   -605.05178     89294.08   -21763.891    1642.2435   -23406.134    14.298068    243.77817 
    3800     107.8107   -972.28532    89234.596   -21768.283    1613.2434   -23381.526    14.357676    239.47333 
    3850     105.9467   -948.34005    89248.171   -21787.908    1585.3511   -23373.259    14.438985    235.33294 
    3900    107.00013   -996.42403    89200.117   -21789.556    1601.1142    -23390.67    14.701739    237.67285 
    3950    106.22951   -720.01964    89213.156   -21800.228    1589.5829   -23389.811    14.899703    235.96111 
    4000    109.21719   -621.79409    89260.552   -21770.287    1634.2897   -23404.577     15.11851    242.59748 
    4050     108.8695   -747.84477    89328.042    -21761.75    1629.0868   -23390.837    15.218383    241.82516 
    4100    111.72821   -1005.6552    89278.044   -21758.347    1671.8637   -23430.211     15.44879    248.17506 
    4150    108.98824   -756.85244    89255.505   -21739.905    1630.8637   -23370.769    15.518215    242.08892 
    4200     109.7555   -679.15807    89226.627   -21754.718    1642.3446   -23397.062    15.615256    243.79318 
    4250    108.33358   -458.04462    89199.687   -21789.807    1621.0676   -23410.874    15.837541    240.63477 
    4300    111.00564   -798.52681    89247.076   -21770.436    1661.0514   -23431.487    16.163676    246.57005 
    4350    109.71241   -807.40219    89267.014   -21747.573       1641.7   -23389.273    16.469068    243.69749 
    4400    108.59644   -802.35428    89292.617   -21773.804     1625.001   -23398.805     16.69746    241.21865 
    4450     109.9826   -886.71839    89287.343   -21752.903    1645.7429   -23398.646    16.757602    244.29763 
    4500    108.08852   -859.04426    89335.418   -21749.464    1617.4005   -23366.864    16.938305    240.09042 
    4550    110.01715   -650.22434    89389.257   -21755.911    1646.2599   -23402.171    17.069512    244.37438 
    4600    107.88219    -698.0415    89376.192   -21730.696    1614.3131   -23345.009     17.29928    239.63212 
    4650    108.70649   -644.67631    89416.183   -21733.684    1626.6476   -23360.331     17.45505    241.46308 
    4700    107.96978   -943.77512    89374.658   -21724.093    1615.6238   -23339.716    17.367586    239.82669 
    4750    108.60444    -953.3728    89330.651   -21775.109    1625.1207   -23400.229    17.471623    241.23642 
    4800    108.96015   -749.34677     89368.97   -21746.235    1630.4433   -23376.678    17.653447    242.02653 
    4850    112.37203   -1115.7948    89375.187   -21763.996    1681.4975   -23445.493    17.864481    249.60512 
    4900    107.17196   -829.43415    89351.936    -21803.99    1603.6855   -23407.676    18.203241    238.05454 
    4950    110.26537   -419.68564    89344.925   -21768.676    1649.9742    -23418.65    18.455976    244.92574 
    5000    108.33435   -1002.8095      89343.5   -21789.653    1621.0791   -23410.732    18.718068    240.63647 
    5050    107.50426   -934.69104    89311.106   -21761.989    1608.6579   -23370.647    18.769021    238.79265 
    5100    108.69146   -843.80924    89306.718   -21775.531    1626.4228   -23401.953    18.887561    241.42971 
    5150    109.03521   -935.55194    89269.124   -21777.278    1631.5665   -23408.844    18.816542    242.19325 
    5200    107.22289   -1073.9286    89236.825   -21800.035    1604.4476   -23404.482    18.890744    238.16767 
    5250    106.67394   -586.56243     89251.56    -21801.54    1596.2333   -23397.773    19.111921    236.94831 
    5300    108.96294   -980.08857    89263.336   -21824.986    1630.4851   -23455.471    19.408514    242.03272 
    5350    109.35378   -520.94082    89266.588   -21767.506    1636.3335    -23403.84    19.554653    242.90087 
    5400    111.59694   -469.85986    89385.625   -21720.121    1669.8994    -23390.02    19.786683    247.88347 
    5450    109.30877   -565.87705    89432.723    -21744.53      1635.66    -23380.19    19.996283     242.8009 
    5500    109.14163   -961.31702    89358.732   -21749.796     1633.159   -23382.955    20.173097    242.42965 
    5550    108.46497   -709.52086    89351.665   -21761.527    1623.0336   -23384.561    20.512452    240.92661 
    5600    109.79038   -960.20981    89360.539    -21777.63    1642.8666   -23420.496    20.613561    243.87067 
    5650     108.8634   -799.31185    89356.094   -21749.513    1628.9956   -23378.508    20.766577    241.81162 
    5700    109.06141   -912.22277    89380.912   -21751.514    1631.9586   -23383.472     20.83324    242.25145 
    5750    108.18945   -677.08421    89346.234   -21756.726    1618.9109   -23375.637    21.040687    240.31462 
    5800    108.04345   -777.59543    89315.526   -21802.198    1616.7262   -23418.924    21.287134    239.99032 
    5850    104.72443   -1130.6134    89282.043   -21833.658    1567.0614   -23400.719    21.537592    232.61798 
    5900    106.84479    -712.9068    89274.866   -21835.553    1598.7898   -23434.343    21.621481     237.3278 
    5950    107.24534   -810.40175    89291.053   -21845.331    1604.7835   -23450.114    21.817854    238.21752 
    6000    108.91139    -330.8113    89281.361   -21858.697    1629.7137   -23488.411    21.945226    241.91821 
    6050    107.67858   -590.87247    89343.993   -21878.681    1611.2663   -23489.947    22.159747    239.17985 
    6100    109.04117   -735.77973    89358.449   -21870.515    1631.6557   -23502.171    22.306691     242.2065 
    6150    106.51064   -1017.9606    89292.122    -21834.33    1593.7896    -23428.12    22.368468    236.58557 
    6200    108.55225   -735.72876    89350.659   -21804.926    1624.3397   -23429.266    22.290972    241.12049 
    6250      111.587   -911.02111    89336.312    -21774.31    1669.7506    -23444.06    22.407037    247.86138 
    6300    112.78366   -531.66435    89365.729   -21770.548     1687.657   -23458.205    22.491554    250.51945 
    6350    107.51785   -857.81361    89450.715   -21791.413    1608.8612   -23400.274    22.578218    238.82283 
    6400    110.23962   -544.07891    89415.975   -21763.898    1649.5889   -23413.487    22.597971    244.86854 
    6450     106.4029   -569.34725    89450.286    -21771.66    1592.1774   -23363.838    22.749838    236.34626 
    6500    110.87095   -732.82459    89459.932   -21788.277    1659.0359   -23447.313    22.963552    246.27086 
    6550    109.33924   -839.42552    89496.408   -21788.549     1636.116   -23424.665    23.173356    242.86858 
    6600    108.63701   -592.05932    89530.462   -21779.422     1625.608    -23405.03    23.284451    241.30875 
    6650    107.65249   -806.11686    89491.596   -21787.592     1610.876   -23398.468    23.179145     239.1219 
    6700    110.49502   -885.04164    89502.647   -21792.204    1653.4107   -23445.615    23.263176    245.43585 
    6750    108.22598   -840.44215    89468.874   -21779.231    1619.4575   -23398.688    23.394628    240.39576 
    6800       111.53   -952.23498    89427.445   -21715.499    1668.8978   -23384.397     23.34835    247.73479 
    6850    110.44936    -737.2471    89365.999   -21745.577    1652.7274   -23398.304    23.528089    245.33442 
    6900    107.28327   -978.69037    89386.128   -21765.077    1605.3511   -23370.428    23.750673    238.30178 
    6950    107.74698    -1015.659     89353.37   -21775.865    1612.2898   -23388.155    24.163634    239.33178 
    7000     109.3797   -807.16664    89332.957   -21803.279    1636.7213   -23440.001    24.515221    242.95845 
    7050    104.90565   -885.62942     89345.61   -21859.983    1569.7732   -23429.756    24.807587    233.02052 
    7100    107.56567   -964.42141     89360.37   -21818.484    1609.5768   -23428.061    25.194793    238.92905 
    7150     108.2437   -963.96223     89310.55   -21812.961    1619.7226   -23432.683    25.550685    240.43513 
    7200    110.22897   -710.57234    89239.123   -21756.391    1649.4295   -23405.821    25.899071    244.84488 
    7250    108.38455   -854.21634    89227.861   -21768.184    1621.8303   -23390.014    26.074262    240.74798 
    7300    110.06118   -802.10199    89271.724   -21746.888    1646.9188   -23393.807    26.193878    244.47219 
    7350    110.47906   -911.24551      89228.1   -21773.938    1653.1718    -23427.11    26.127396    245.40039 
    7400    106.44084   -698.40186    89167.867   -21792.052    1592.7452   -23384.798    26.204312    236.43054 
    7450    108.76201   -899.00545    89196.353   -21770.901    1627.4785    -23398.38    26.394007    241.58641 
    7500    106.58724    -1002.006    89187.551   -21798.395     1594.936   -23393.331    26.527922    236.75573 
    7550    104.75406   -854.17182     89152.77   -21827.962    1567.5048   -23395.467    26.706057    232.68379 
    7600    107.19706   -908.76698    89165.043   -21781.745    1604.0611   -23385.806    26.777198    238.11029 
    7650     105.4658    -962.1619    89252.696   -21760.005     1578.155    -23338.16    26.871991    234.26474 
    7700    109.24085   -987.07642    89234.267   -21708.616    1634.6437    -23343.26    27.003884    242.65003 
    7750    110.63668   -1023.8677    89138.016   -21695.544    1655.5303   -23351.074    27.386119     245.7505 
    7800     111.9635   -955.08646    89136.907   -21729.838    1675.3844   -23405.222    27.459462    248.69768 
    7850    108.94537    -701.2003    89119.172   -21725.097    1630.2221    -23355.32    27.508061    241.99369 
    7900    110.42011   -959.79617    89141.446   -21681.287    1652.2897   -23333.577    27.682608    245.26945 
    7950    109.12323   -636.69152    89137.042   -21727.999    1632.8836   -23360.882    27.899077    242.38877 
    8000    108.54204   -643.99773    89223.403   -21739.936    1624.1869   -23364.123    28.104581    241.09781 
    8050    108.49848   -893.64401    89254.811   -21699.522    1623.5351   -23323.057    28.333746    241.00105 
    8100    109.70735   -816.11286    89274.547   -21735.423    1641.6242   -23377.048    28.715512    243.68625 
    8150    106.95517   -878.84156    89273.335   -21767.668    1600.4415    -23368.11     28.93433    237.57299 
    8200    108.26718    -811.8894    89272.785   -21752.336    1620.0739    -23372.41    29.113958    240.48727 
    8250     107.0078   -738.01375    89252.122   -21721.293     1601.229   -23322.522    29.195461    237.68988 
    8300    108.20703   -942.99101    89285.737   -21746.431    1619.1739   -23365.605    29.371893    240.35366 
    8350    106.28792   -923.48372    89255.333   -21725.762    1590.4569   -23316.219    29.521188    236.09086 
    8400    109.07268   -515.76813    89282.698     -21697.4    1632.1272   -23329.527    29.565429    242.27648 
    8450    112.69738   -1036.1022    89360.567   -21676.679     1686.366   -23363.045    29.741133    250.32781 
    8500    111.57257    -905.0755    89340.352   -21701.931    1669.5347   -23371.466     29.81081    247.82933 
    8550    108.24517    -924.0966    89322.499    -21729.01    1619.7447   -23348.754    29.821966    240.43839 
    8600    108.40965   -581.17796    89339.698   -21715.901    1622.2059   -23338.107    29.979935    240.80374 
    8650    108.53223   -626.88867    89347.416    -21749.05      1624.04    -23373.09    30.072816    241.07601 
    8700    108.70785   -1014.8682    89382.939   -21737.342     1626.668    -23364.01    30.466511    241.46611 
    8750    109.69424   -705.27704    89315.535   -21763.886     1641.428   -23405.314    30.435635    243.65711 
    8800    108.54582   -1020.4825    89358.414   -21781.008    1624.2435   -23405.251    30.543822    241.10621 
    8850    106.59345   -921.15502    89364.711    -21779.01    1595.0288   -23374.039    30.880813    236.76951 
    8900    108.40379   -745.48113    89324.049   -21774.087    1622.1182   -23396.205     31.02076    240.79072 
    8950    112.90383   -561.92227    89411.092   -21726.357    1689.4552   -23415.812    31.207597    250.78638 
    9000    110.02221   -662.61483    89477.751   -21735.171    1646.3356   -23381.507     31.19797    244.38561 
    9050    108.21544   -963.78869     89521.58   -21743.494    1619.2997   -23362.793    31.211172    240.37234 
    9100    107.97784   -691.51814    89526.303   -21783.018    1615.7443   -23398.763    31.181998    239.84458 
    9150    107.89353   -681.20064    89594.858   -21814.261    1614.4827   -23428.744    31.386408     239.6573 
    9200    107.46143   -649.81936    89628.611   -21814.584    1608.0169   -23422.601    31.589685    238.69751 
    9250    106.41403   -718.72916    89626.384   -21853.699    1592.3441   -23446.043    31.872059    236.37099 
    9300    106.14098   -861.53511    89601.577   -21875.107    1588.2583   -23463.365    32.089772    235.76449 
    9350    107.39863   -614.05432    89621.058   -21848.033    1607.0773    -23455.11    32.200643    238.55803 
    9400    106.40663   -613.37391    89695.946    -21817.86    1592.2332   -23410.094    32.519489    236.35454 
    9450    107.08265   -973.93853     89648.88   -21834.369     1602.349   -23436.718    32.760787    237.85614 
    9500    108.22516   -944.81622    89663.029   -21823.698    1619.4452   -23443.143    32.847337    240.39394 
    9550    105.05407    -1133.733    89679.364   -21846.214     1571.994   -23418.208    32.944072    233.35018 
    9600    106.92669   -793.49537    89739.255   -21834.174    1600.0154    -23434.19    33.269275    237.50973 
    9650     105.3147   -670.46287     89750.67   -21864.131     1575.894   -23440.025    33.577002    233.92911 
    9700     107.9513   -1023.8504    89758.206   -21835.804    1615.3473   -23451.151    33.792319    239.78564 
    9750    108.21031   -793.88161    89763.709    -21834.28    1619.2229   -23453.503    33.957661    240.36095 
    9800    106.83564   -781.59705    89849.478   -21842.782    1598.6528   -23441.435    34.248986    237.30747 
    9850    105.44127   -934.01406     89883.99   -21858.918    1577.7881   -23436.707     34.27055    234.21027 
    9900     106.3937   -999.17772    89888.496   -21862.986    1592.0399   -23455.025    34.549729    236.32583 
    9950    109.00912   -966.53452    89889.106   -21825.551    1631.1761   -23456.727    34.730938     242.1353 
   10000    107.60999    -745.1149    89876.328   -21831.248      1610.24   -23441.487    34.841849     239.0275 
   10050    107.24629   -774.90153    89997.587   -21862.455    1604.7977   -23467.253    34.985503    238.21963 
   10100    107.68404   -963.84792    90077.509   -21850.441    1611.3481   -23461.789    35.296982    239.19199 
   10150    108.74539   -922.86222    90103.688   -21824.115    1627.2298   -23451.345    35.510217     241.5495 
   10200     108.5605   -748.53044    90073.385    -21813.82    1624.4631   -23438.284    35.565003    241.13881 
   10250    107.95704   -872.11704    90120.307   -21810.062    1615.4331   -23425.495    35.682774    239.79838 
   10300    106.32435   -985.59173    90123.287   -21858.591    1591.0022   -23449.593    35.778567    236.17179 
   10350     107.9911   -967.56234    90159.549   -21805.458    1615.9429   -23421.401    36.062827    239.87404 
   10400    106.27807   -1048.5944     90108.46   -21817.916    1590.3096   -23408.226    36.260244      236.069 
   10450    108.89089   -947.97818    89995.216   -21854.805    1629.4069   -23484.212    36.037358    241.87268 
   10500    107.13927   -807.30655    89976.095    -21848.29    1603.1963   -23451.487    35.820482    237.98192 
   10550    104.61811   -748.40992     89915.17   -21867.334    1565.4705   -23432.805    35.960478    232.38182 
   10600    106.95251   -618.01258     89974.09   -21882.887    1600.4017   -23483.289    36.089644    237.56708 
   10650    106.55575   -610.99893    90044.113    -21890.83    1594.4648   -23485.295    36.745083    236.68579 
   10700    107.76319   -669.79077    89991.667   -21863.411    1612.5325   -23475.943    37.087808     239.3678 
   10750    108.71413   -672.34188    90023.408   -21884.549     1626.762   -23511.311    37.114127    241.48006 
   10800    108.71888   -926.37626    90023.112   -21872.878     1626.833   -23499.711    37.347829     241.4906 
   10850    106.14522    -962.7257    90000.963   -21879.249    1588.3216    -23467.57    37.384065    235.77389 
   10900     110.1045   -935.25363    90023.022   -21870.156    1647.5669   -23517.723    37.407295    244.56839 
   10950    109.87413   -931.42314    89986.427   -21849.364    1644.1198   -23493.484    37.794161    244.05669 
   11000    114.26251   -975.16389    89974.723   -21795.811     1709.786   -23505.597    37.896445    253.80433 
   11050    108.66518   -645.16068    89977.053   -21825.041    1626.0296    -23451.07    37.856007    241.37134 
   11100    109.97975   -604.78291    90026.631   -21796.309    1645.7003   -23442.009    37.954975    244.29131 
   11150    111.43535   -600.80281    90050.651   -21772.518    1667.4814       -23440    38.113227    247.52453 
   11200    109.51716    -944.2124    90036.919   -21792.747    1638.7782   -23431.525    38.586893    243.26377 
   11250    110.80502   -847.63103    90051.392   -21781.511    1658.0493    -23439.56    38.486931    246.12442 
   11300    111.14822   -685.17585    90001.487    -21793.05    1663.1849   -23456.235    38.427741    246.88675 
   11350    108.93952   -811.75241    89917.678   -21826.131    1630.1346   -23456.265    38.313915     241.9807 
   11400    109.30253   -841.03181    89936.093   -21801.359    1635.5666   -23436.926    38.469816    242.78704 
   11450     108.5488   -968.63445    89926.021    -21792.92     1624.288   -23417.208    38.597311    241.11282 
   11500    110.13737   -842.37837    89894.743   -21801.217    1648.0589   -23449.276    38.680789    244.64142 
   11550    109.97273   -1006.8238    89861.038   -21809.089    1645.5952   -23454.685    38.665904    244.27571 
   11600    107.40768   -482.04796    89896.809   -21848.459    1607.2127   -23455.672    38.748281    238.57812 
   11650     109.8732   -962.05316    90005.289   -21802.245    1644.1059   -23446.351    38.752043    244.05462 
   11700    111.55902   -971.75773    89988.727   -21763.618     1669.332    -23432.95    38.876213    247.79925 
   11750    110.51014   -865.97452    89974.036   -21782.543    1653.6368   -23436.179    38.989746    245.46942 
   11800    106.53733   -1210.1136    89955.032   -21791.699    1594.1891   -23385.888    39.199556    236.64488 
   11850    111.26115   -1033.2688    89888.503   -21770.931    1664.8747   -23435.806    39.481157     247.1376 
   11900    109.06776    -1124.566    89842.001    -21762.34    1632.0535   -23394.393    39.778736    242.26555 
   11950    106.19896   -1169.3619    89806.875   -21789.795    1589.1258   -23378.921    39.882573    235.89326 
   12000     107.4918   -891.54587    89764.331   -21844.297    1608.4714   -23452.768    39.925355    238.76497 
   12050     106.5894     -942.101    89707.555   -21811.778    1594.9682   -23406.746    39.866431    236.76052 
   12100    107.91794   -708.06384    89739.995   -21832.219    1614.8481   -23447.067     40.18745    239.71153 
   12150    107.37042   -734.31872    89772.283   -21816.114    1606.6551   -23422.769    40.207744    238.49535 
   12200    107.15004   -814.54941    89728.105   -21790.224    1603.3574   -23393.582    40.346542    238.00583 
   12250    106.21359   -840.09573    89679.032   -21791.571    1589.3447   -23380.916    40.348997    235.92576 
   12300    109.55071    -1021.165    89702.225   -21764.083    1639.2803   -23403.363    40.598386     243.3383 
   12350    108.22977   -594.11816     89725.06   -21784.639    1619.5141   -23404.153    40.721339    240.40417 
   12400    109.04447    -1013.918     89733.83   -21819.725     1631.705   -23451.431    40.941994    242.21382 
   12450    103.28655   -1042.4389    89754.027   -21886.864    1545.5455   -23432.409     41.11428    229.42411 
   12500    105.26526   -758.41322    89753.517    -21875.84    1575.1542   -23450.994    41.334073    233.81929 
   12550    107.80077   -1010.4642    89727.181   -21870.702    1613.0948   -23483.797    41.569557    239.45127 
   12600    108.75619   -902.34125    89654.838   -21837.293    1627.3914   -23464.684    41.603088    241.57349 
   12650    108.94674   -1267.9981    89619.569   -21846.582    1630.2427   -23476.825     41.76371    241.99674 
   12700    108.03941   -812.34574    89618.162   -21821.001    1616.6656   -23437.667     41.85363    239.98133 
   12750    107.96095   -886.81632    89636.306   -21858.299    1615.4916    -23473.79    41.930532    239.80706 
   12800    108.40524   -794.10339      89716.5   -21864.694    1622.1398   -23486.834    42.037032    240.79394 
   12850    107.11447   -906.73731     89769.36   -21872.198    1602.8252   -23475.023    42.347569    237.92683 
   12900    104.27101   -715.80846    89802.828    -21897.65    1560.2767   -23457.927    42.411779    231.61084 
   12950    106.16422   -842.94461    89792.987   -21905.181     1588.606   -23493.787    42.691838     235.8161 
   13000    107.11697   -932.56983    89790.367   -21909.163    1602.8626   -23512.026    43.212596    237.93239 
   13050     109.1331   -1179.1505    89748.097     -21928.9    1633.0313   -23561.931    43.376164     242.4107 
   13100    107.76825   -673.62814    89736.306   -21933.516    1612.6082   -23546.124     43.48525    239.37904 
   13150    105.53271   -959.45396    89651.761   -21889.087    1579.1562   -23468.243    43.587544    234.41336 
   13200    108.92108    -798.9071     89564.62   -21826.483    1629.8587   -23456.342    43.616022    241.93974 
   13250    108.23042   -849.99359    89536.124   -21816.598    1619.5239   -23436.122    43.643235    240.40562 
   13300    110.74457   -1027.9646    89567.884   -21822.792    1657.1447   -23479.936     43.66132    245.99014 
   13350    111.25736   -978.21916    89524.893   -21827.074     1664.818   -23491.892    43.899393    247.12918 
   13400    109.52366   -731.45301    89464.952   -21794.933    1638.8756   -23433.809    43.921346    243.27822 
   13450     108.2164     -1031.39    89387.423   -21826.615    1619.3142    -23445.93    44.292793    240.37449 
   13500    110.15243   -718.90616    89378.839   -21806.768    1648.2842   -23455.052    44.342803    244.67486 
   13550    109.02559   -738.82507    89333.842   -21812.325    1631.4226   -23443.748    44.406473    242.17189 
   13600    107.68595   -710.63556    89363.868   -21746.316    1611.3767   -23357.693    44.564849    239.19623 
   13650    110.01765   -616.96805    89308.988   -21749.929    1646.2675   -23396.197    44.694265     244.3755 
   13700    109.03877   -607.28014    89411.149   -21789.413    1631.6198   -23421.032    44.932659    242.20116 
   13750    109.48293     -594.643     89467.91    -21745.73    1638.2661   -23383.996    45.300202    243.18776 
   13800     110.3064   -436.57106    89571.269   -21767.475    1650.5881   -23418.063    45.624923    245.01686 
   13850    111.23934   -728.35349    89675.708   -21760.362    1664.5484    -23424.91    45.742625    247.08916 
   13900    106.43124   -689.14385    89680.291   -21809.721    1592.6015   -23402.323    45.748718    236.40921 
   13950    106.76604   -633.61717    89668.997   -21802.753    1597.6114   -23400.364    45.740932    237.15288 
   14000    107.01274   -858.63026    89671.154   -21815.534     1601.303   -23416.837    45.660707    237.70087 
   14050    107.08546   -823.78865    89601.337   -21820.083    1602.3912   -23422.475    45.774679     237.8624 
   14100    108.79111   -1012.7502    89550.349    -21770.29    1627.9139   -23398.203    45.726662    241.65105 
   14150    112.52822   -863.98248    89599.705   -21750.991    1683.8348   -23434.826    45.872059    249.95207 
   14200    109.03726   -1074.6334     89611.43   -21727.377    1631.5971   -23358.974    46.113895     242.1978 
   14250    112.88988   -707.77583    89541.355   -21706.495    1689.2465   -23395.741    46.217639    250.75539 
   14300    110.28213   -876.72558    89569.497   -21688.317    1650.2251   -23338.542    46.300688    244.96297 
   14350     111.6188    -713.4039    89587.584   -21694.267    1670.2266   -23364.494    46.412613    247.93204 
   14400    111.15153   -674.46157    89602.846   -21754.777    1663.2344   -23418.011    46.631608    246.89411 
   14450    108.49783   -842.09323    89644.283   -21769.199    1623.5253   -23392.725    46.979819     240.9996 
   14500    109.82744   -808.48089    89653.819   -21782.626    1643.4212   -23426.047     47.07004    243.95299 
   14550    109.42798    -648.7439    89710.859   -21815.397    1637.4438   -23452.841    47.240233    243.06569 
   14600    108.45715   -1193.0295    89645.808   -21808.756    1622.9166   -23431.672    47.410752    240.90924 
   14650    109.44582   -877.76427    89582.103   -21750.065    1637.7107   -23387.776    47.686769    243.10531 
   14700      105.003   -799.51282     89541.04   -21822.836    1571.2298   -23394.066    47.802287    233.23675 
   14750    109.76249   -883.89632     89594.95   -21790.854    1642.4493   -23433.304    48.017185    243.80873 
   14800     108.5356   -653.68866    89643.498   -21775.248    1624.0905   -23399.339    47.998163     241.0835 
   14850    106.98276   -924.34897    89630.495   -21784.951    1600.8543   -23385.806    48.177087    237.63427 
   14900    109.89098   -512.07411    89612.829   -21780.485    1644.3719   -23424.857    48.483322    244.09411 
   14950    111.70152   -737.74997      89576.6   -21791.198    1671.4643   -23462.662    48.759485    248.11577 
   15000    107.69214   -771.14902    89545.223   -21764.876    1611.4692   -23376.345    48.748742    239.20997 
   15050    110.83203   -633.09608    89509.084   -21688.231    1658.4535   -23346.684    48.858702    246.18441 
   15100    111.25511   -627.47417    89554.063   -21672.182    1664.7843   -23336.967    48.902504    247.12418 
   15150    112.15455   -891.70033    89507.427   -21697.327    1678.2432   -23375.571    48.941119    249.12205 
   15200    111.72896   -725.52078    89503.465   -21749.566    1671.8749   -23421.441    49.108326    248.17671 
   15250    107.69256   -780.76784    89490.961   -21802.453    1611.4755   -23413.928    49.005292     239.2109 
   15300    108.15006   -1085.6313    89488.388   -21815.413    1618.3214   -23433.734     49.22495    240.22712 
   15350    107.16351   -1057.4801    89526.097   -21839.405    1603.5591   -23442.964    49.460938    238.03577 
   15400    106.57349   -764.37813    89543.236   -21846.135    1594.7301   -23440.865    49.251131    236.72518 
   15450    108.42635   -974.46003    89517.866   -21849.802    1622.4557   -23472.257    49.406467    240.84083 
   15500    108.97836    -985.0081     89475.77   -21843.661    1630.7158   -23474.377    49.329444    242.06697 
   15550    110.85404   -618.88848    89464.386   -21862.063    1658.7829   -23520.846    49.411668    246.23331 
   15600    109.34423   -928.13383    89491.915   -21848.906    1636.1906   -23485.097    49.560185    242.87966 
   15650    108.41898   -776.07134     89475.05   -21848.474    1622.3455    -23470.82    49.610486    240.82446 
   15700    108.36916   -949.57792    89469.873   -21853.805    1621.5999   -23475.405    49.849523    240.71379 
   15750    110.47442   -1047.0949    89477.313   -21830.113    1653.1023   -23483.215    49.804046    245.39008 
   15800    107.97039   -649.60271    89483.688   -21819.737    1615.6329    -23435.37    49.962987    239.82803 
   15850    110.23991   -964.27834    89539.593   -21822.872    1649.5932   -23472.466    50.218636    244.86918 
   15900    107.05708   -776.67389     89466.42   -21846.663    1601.9665    -23448.63    50.519084    237.79937 
   15950    109.69354   -619.01875    89461.341   -21816.919    1641.4176   -23458.337    50.715359    243.65557 
   16000    108.20759   -860.02105    89479.564   -21821.198    1619.1822    -23440.38    50.979412     240.3549 
   16050    108.84526   -1022.4617    89408.793    -21823.38    1628.7241   -23452.104    51.325665    241.77132 
   16100     106.6158   -703.80998    89386.994    -21849.89    1595.3632   -23445.253    51.449716    236.81916 
   16150     105.0896   -983.46433    89299.739   -21873.094    1572.5258    -23445.62    51.498056    233.42912 
   16200    104.52658   -755.93352    89224.445   -21898.036    1564.1009   -23462.137    51.731368    232.17851 
   16250    106.99686   -427.52633    89312.982   -21876.084    1601.0654   -23477.149    51.690972     237.6656 
   16300     107.7401   -1083.6752     89278.61   -21847.071    1612.1869   -23459.258    51.773422    239.31651 
   16350     106.5423   -823.12795    89274.695   -21841.573    1594.2634   -23435.836    51.965804     236.6559 
   16400    107.16221   -613.12382    89350.558   -21829.187    1603.5395   -23432.726    52.108773    238.03287 
   16450    108.06815   -650.31225    89434.244    -21784.88    1617.0957   -23401.976     52.50869    240.04518 
   16500    110.51931   -760.82891    89486.763   -21764.584    1653.7741   -23418.358    52.602804     245.4898 
   16550    108.91802   -557.93559    89484.065   -21752.145    1629.8129   -23381.958    52.699798    241.93294 
   16600    110.97397   -946.59762    89502.312   -21773.195    1660.5775   -23433.772    52.683343    246.49971 
   16650    108.73045   -626.40597     89508.86   -21790.918    1627.0061   -23417.924    52.583015     241.5163 
   16700    107.48359   -662.13824    89556.719   -21779.909    1608.3487   -23388.258    52.815269    238.74675 
   16750    107.81419    -930.3687    89509.095   -21784.712    1613.2956   -23398.008    53.213817    239.48109 
   16800    108.90545    -1226.365    89384.944   -21774.228    1629.6248   -23403.853     53.15216    241.90503 
   16850    109.71455   -1213.0789    89286.715   -21770.579     1641.732   -23412.311    53.243945    243.70224 
   16900    108.25584   -843.48031    89215.291   -21757.278    1619.9043   -23377.182    53.320162    240.46209 
   16950    108.83131   -701.80418    89167.477   -21725.722    1628.5155   -23354.238    53.595477    241.74035 
   17000    111.68755   -779.53606    89117.824   -21701.801    1671.2552   -23373.056    53.614844    248.08473 
   17050    109.17129   -817.00332    89120.378   -21718.232    1633.6027   -23351.834    53.892751    242.49551 
   17100    109.42191   -692.99008    89089.496   -21732.892     1637.353   -23370.245    54.231336    243.05222 
   17150    112.86746    -899.0505    89096.529   -21742.984     1688.911   -23431.895    54.471676    250.70559 
   17200    108.00484   -752.09745    89101.796    -21739.96    1616.1483   -23356.109    54.797626    239.90455 
   17250     107.6691   -1075.0153    89123.758   -21760.482    1611.1245   -23371.606    55.124072    239.15879 
   17300    110.25032   -745.64459    89079.427   -21735.436     1649.749   -23385.185    55.160328    244.89231 
   17350    110.60267   -889.83999    89021.031   -21744.241    1655.0215   -23399.262    55.402664    245.67497 
   17400    109.84898    -702.5875    88955.043   -21759.818    1643.7435   -23403.562    55.659904    244.00083 
   17450    109.78129   -770.74373    88973.747   -21782.781    1642.7306   -23425.512    55.915714    243.85048 
   17500    107.05189   -1024.1632    88945.225   -21801.468    1601.8887   -23403.357    56.189847    237.78782 
   17550    109.73542   -654.80239    88985.599   -21798.862    1642.0442   -23440.907    56.425935    243.74859 
   17600     108.4132   -919.72515    89032.048   -21818.527    1622.2589   -23440.786    56.337115    240.81162 
   17650    107.62305   -789.75079    89069.849   -21820.333    1610.4354   -23430.769    56.472285     239.0565 
   17700    107.00304    -1045.551    89067.244   -21868.433    1601.1579   -23469.591    56.606603    237.67933 
   17750    105.71659   -1067.7993    89053.634   -21875.286    1581.9078   -23457.194    56.711381    234.82181 
   17800    105.68192   -1019.2119    88974.033   -21847.226    1581.3891   -23428.615    56.669037    234.74481 
   17850    107.68462   -893.17806    88934.545   -21809.517    1611.3567   -23420.874    56.718766    239.19327 
   17900    106.49139   -953.12483    88909.113   -21816.547    1593.5017   -23410.049    57.079773    236.54283 
   17950    108.29741   -436.87628    88925.689   -21824.446    1620.5263   -23444.972    57.386435    240.55442 
   18000    107.97771   -939.26158    88931.251    -21837.19    1615.7424   -23452.933    57.682317    239.84429 
   18050    108.89375   -829.72453    88931.939   -21840.181    1629.4497   -23469.631    57.918945    241.87903 
   18100    106.79453   -966.43681    88861.027   -21839.663    1598.0377   -23437.701     57.98614    237.21617 
   18150    108.13395   -1094.5444     88811.56   -21820.871    1618.0803   -23438.951    57.992114    240.19133 
   18200    107.51707   -767.73846    88853.676   -21798.342    1608.8496   -23407.191    58.046937     238.8211 
   18250    105.72415   -874.63674    88905.484   -21859.721    1582.0209   -23441.742    58.500388     234.8386 
   18300    106.56872   -935.14349    88905.108   -21844.739    1594.6588   -23439.398    58.812114    236.71459 
   18350    107.04523   -958.39622    88908.294    -21812.15    1601.7891   -23413.939    58.839955    237.77304 
   18400    108.34001   -931.16497    88790.713   -21817.329    1621.1637   -23438.493    59.101473    240.64904 
   18450    107.87906   -831.31194    88769.991   -21786.677    1614.2663   -23400.944    59.253454    239.62517 
   18500     109.1831   -756.80139    88776.291   -21770.216    1633.7794   -23403.995    59.003609    242.52175 
   18550    110.71701   -765.94126    88805.637   -21750.096    1656.7324   -23406.828    58.930046    245.92894 
   18600    112.54669   -687.20355    88874.115   -21710.676    1684.1111   -23394.787    59.109652    249.99309 
   18650    111.61121   -662.03898    88939.606   -21722.051    1670.1128   -23392.164    59.059181    247.91516 
   18700    111.12057   -531.84109    89038.709   -21753.697    1662.7712   -23416.469    59.166286    246.82534 
   18750    112.69682   -419.23632    89093.623   -21749.161    1686.3576   -23435.519    59.308428    250.32657 
   18800    110.45975   -800.96829    89231.405   -21795.368    1652.8829   -23448.251    59.494403     245.3575 
   18850    109.44735   -975.41876    89298.219   -21795.891    1637.7336   -23433.625    59.696931    243.10872 
   18900    109.10044   -1018.5142    89337.239   -21760.799    1632.5426   -23393.342    59.798276    242.33814 
   18950    110.89933   -779.32798    89340.424   -21800.136    1659.4607   -23459.597     60.12663    246.33392 
   19000    108.76893   -886.85354    89329.148   -21808.941    1627.5821   -23436.523    60.095135    241.60179 
   19050    110.47557   -674.95615    89335.769    -21794.08    1653.1196     -23447.2    60.125307    245.39264 
   19100    110.32266   -750.66296    89391.075    -21777.79    1650.8315   -23428.622    60.372402    245.05299 
   19150    107.95995   -702.99958    89392.525   -21795.337    1615.4766   -23410.813    60.433603    239.80483 
   19200    109.76541   -1195.3663    89328.772   -21797.552    1642.4929   -23440.045    60.551626     243.8152 
   19250    109.31329   -549.07978    89289.736   -21810.955    1635.7277   -23446.683    60.636843    242.81094 
   19300    106.69703   -696.33232    89289.243   -21852.062    1596.5788    -23448.64     60.62891     236.9996 
   19350     107.4754   -776.54944    89262.063   -21839.782     1608.226   -23448.008    60.466367    238.72854 
   19400    107.66282   -648.81727    89271.752   -21868.664    1611.0306   -23479.694    60.627595    239.14485 
   19450    107.52185   -920.23211    89278.162   -21911.353     1608.921   -23520.274    60.889366    238.83171 
   19500    108.78056   -928.88291    89238.482   -21885.497     1627.756   -23513.253    61.212568    241.62761 
   19550    108.04285   -732.08177    89306.191   -21887.518    1616.7171   -23504.235    61.467116    239.98898 
   19600    108.55807   -805.37925    89319.797   -21862.224    1624.4267    -23486.65    61.714825     241.1334 
   19650    107.42819   -641.81636    89364.894   -21883.032    1607.5196   -23490.552    61.970011    238.62368 
   19700    108.05708   -1060.5643    89355.202    -21877.79    1616.9302    -23494.72    61.990456     240.0206 
   19750      105.255   -792.36799     89286.94    -21875.63    1575.0007   -23450.631    61.771097     233.7965 
   19800    109.16262   -935.56094    89361.703   -21867.516    1633.4731   -23500.989    61.930139    242.47627 
   19850    106.82342    -903.2457    89377.302   -21923.719      1598.47   -23522.189    61.941625    237.28034 
   19900    103.53759   -1046.0178    89311.806    -21967.28    1549.3019   -23516.582    62.112307    229.98172 
   19950    104.87792    -935.2186    89328.198   -21935.585    1569.3583   -23504.943    62.318521    232.95893 
   20000    106.76515   -937.45494    89336.257    -21925.94    1597.5981   -23523.538    62.482008    237.15091 
   20050    106.24435   -869.38505     89381.67   -21883.031    1589.8051   -23472.836    62.781202     235.9941 
   20100    105.40498   -926.34158    89441.891   -21881.341    1577.2449   -23458.586    62.867089    234.12964 
   20150    106.95948   -796.46749    89365.484   -21849.528    1600.5059   -23450.034    62.875983    237.58255 
   20200    107.41481   -629.47361    89373.641       -21837    1607.3194    -23444.32      62.8037    238.59397 
   20250    107.07824   -546.61577    89405.304   -21849.526    1602.2831   -23451.809    62.823952    237.84636 
   20300     107.6954   -696.21384    89476.844   -21846.438    1611.5181   -23457.956    62.952809    239.21723 
   20350    108.96526   -1087.4831     89502.04   -21857.273    1630.5198   -23487.792     62.89693    242.03788 
   20400    109.26974   -1018.7569    89520.233   -21855.266    1635.0759   -23490.342    63.209882    242.71419 
   20450    106.63985    -995.9397    89552.383   -21852.429    1595.7232   -23448.152    63.591088    236.87259 
   20500    108.11621   -617.82319    89577.538   -21886.306    1617.8148   -23504.121    63.396212    240.15193 
   20550    106.78429   -850.76664    89614.388   -21907.355    1597.8845   -23505.239    63.537855    237.19343 
   20600    107.14362   -603.72964    89651.371   -21945.016    1603.2614   -23548.278    63.756259    237.99158 
   20650    104.09617    -975.3549    89625.925   -21961.752    1557.6604   -23519.412    63.671386    231.22248 
   20700    107.83272   -830.48436     89619.56    -21936.64    1613.5729   -23550.213    63.807957    239.52225 
   20750    103.79739   -829.47272    89572.974   -21978.023    1553.1895   -23531.212     63.82467    230.55879 
   20800    103.15076   -737.95556    89556.136   -21965.607    1543.5136   -23509.121    63.799084     229.1225 
   20850    108.10064   -538.39894    89554.075   -21917.737     1617.582   -23535.319    63.714191    240.11736 
   20900    106.04198   -404.66849    89586.733   -21926.251    1586.7769   -23513.028    63.544148    235.54458 
   20950    106.29825   -667.88286    89605.836    -21956.29    1590.6116   -23546.902    63.773523    236.11382 
   21000    104.38917   -1152.1048    89639.261    -21921.03    1562.0447   -23483.075    64.052454    231.87329 
   21050    105.67701   -872.80939    89640.484   -21942.852    1581.3155   -23524.167    64.324167    234.73389 
   21100     104.7536   -960.14742    89597.952    -21946.77     1567.498   -23514.268    64.356408    232.68278 
   21150    108.40984   -758.22383    89570.281   -21903.002    1622.2087   -23525.211    64.212533    240.80415 
   21200    108.34099   -570.83029    89668.111   -21899.218    1621.1784   -23520.397    64.266577    240.65122 
   21250     107.4186   -885.00456    89605.468   -21879.393     1607.376   -23486.769    64.478116    238.60237 
   21300    109.69832   -820.52522    89542.139   -21888.552    1641.4891   -23530.041    64.642665    243.66619 
   21350    106.16149   -1041.3965    89434.911   -21906.937    1588.5651   -23495.502    64.686804    235.81004 
   21400    110.94173   -925.02197    89372.544   -21866.622    1660.0951   -23526.717     65.16959     246.4281 
   21450    110.15371   -713.50824    89377.958   -21884.386    1648.3034    -23532.69    65.363588    244.67771 
   21500    108.50716   -949.51889    89396.529   -21858.435     1623.665     -23482.1    65.662731    241.02033 
   21550    106.34596   -854.55504    89406.679   -21870.281    1591.3255   -23461.607    65.984406    236.21979 
   21600    109.26065   -659.77132    89357.881   -21892.963      1634.94   -23527.903    65.851727    242.69402 
   21650    105.84911   -745.00062    89355.059   -21895.496    1583.8908   -23479.387    65.767031    235.11616 
   21700     106.1401   -1000.1651    89371.461   -21913.513    1588.2451   -23501.758    65.892547    235.76253 
   21750    105.88254   -892.67863    89347.187   -21901.061    1584.3911   -23485.452    65.925389    235.19043 
   21800    105.54955   -769.56613        89334     -21915.6    1579.4082   -23495.008     66.10973    234.45076 
   21850     106.1975    -627.1716    89434.907   -21925.246    1589.1039    -23514.35    66.332394    235.89001 
   21900    109.47945   -1014.6423    89489.325   -21900.692     1638.214   -23538.906     66.66378    243.18003 
   21950     104.9252   -603.52929     89438.04   -21936.549    1570.0656   -23506.615    66.942641    233.06393 
   22000    104.79885   -781.16531    89381.548   -21991.948    1568.1751   -23560.123    67.125222    232.78329 
   22050    103.38838   -571.89175    89367.387    -21996.92    1547.0692    -23543.99    67.423445     229.6503 
   22100     104.9633   -478.26163    89448.024   -21925.954    1570.6359    -23496.59    67.795871    233.14858 
   22150     108.0752    -565.0648    89520.775   -21927.872    1617.2013   -23545.073    67.610951    240.06085 
   22200     106.8137   -944.04232    89437.362   -21941.664    1598.3246   -23539.989    67.897033    237.25875 
   22250    106.84477   -946.21628    89414.163    -21921.13    1598.7896    -23519.92    67.829003    237.32777 
   22300    107.98694   -695.06349    89430.023   -21920.907    1615.8805   -23536.787    67.884123    239.86479 
   22350    107.80925   -1099.4776    89471.717   -21890.712    1613.2216   -23503.934    68.106543    239.47009 
   22400    107.66853   -639.19538    89445.266   -21894.008    1611.1159   -23505.124    68.264502    239.15753 
   22450    111.00044   -418.03579    89475.065   -21871.922    1660.9735   -23532.896     68.24152    246.55849 
   22500    106.91295    -845.5217    89432.334   -21880.362    1599.8097   -23480.172    68.431049     237.4792 
   22550    107.63085   -824.68679        89385   -21888.798    1610.5521    -23499.35    68.736193    239.07383 
   22600    106.41821   -733.94966    89436.797    -21889.36    1592.4065   -23481.767    68.936622    236.38026 
   22650    106.05489   -483.78388    89436.751   -21903.261    1586.9699   -23490.231    68.789501    235.57324 
   22700    107.38279   -768.22187    89395.175    -21884.31    1606.8403    -23491.15     68.90651    238.52284 
   22750    105.89862   -640.82711    89377.422   -21907.483    1584.6316   -23492.115    69.113698    235.22613 
   22800    105.79718   -1184.7681    89350.183    -21918.14    1583.1137   -23501.253    69.165511    235.00081 
   22850    106.49295    -847.4021    89320.501   -21939.999     1593.525   -23533.524    69.244803    236.54628 
   22900    103.95239   -654.39824    89365.842     -21950.7    1555.5089   -23506.209    69.198398     230.9031 
   22950    109.50769   -620.06874    89376.256   -21894.452    1638.6366   -23533.088    69.296139    243.24275 
   23000    108.83413   -768.35832    89445.603   -21866.361    1628.5576   -23494.919    69.672737     241.7466 
   23050    108.69829   -1021.6976    89453.256   -21881.723    1626.5249   -23508.248    69.706699    241.44487 
   23100    111.27487   -734.41648    89441.343   -21836.128    1665.0801   -23501.208     69.88081    247.16808 
   23150    108.25995   -804.69347    89448.389    -21830.46    1619.9658   -23450.426    70.220978    240.47122 
   23200    109.01091   -627.68419    89466.423   -21846.019    1631.2029   -23477.222    70.492119    242.13927 
   23250    108.02488   -608.10779    89457.502   -21870.036    1616.4483   -23486.485    70.853545    239.94907 
   23300     106.8178   -694.57657    89547.583   -21876.726     1598.386   -23475.112    70.996876    237.26787 
   23350      105.823   -999.42939    89545.065   -21918.279       1583.5   -23501.779    71.351018    235.05816 
   23400    107.35759   -854.02148     89414.05   -21955.886    1606.4632   -23562.349    71.546958    238.46687 
   23450    107.39913   -861.36803    89401.529   -21955.054    1607.0848   -23562.139    71.754435    238.55913 
   23500    108.13786   -896.98504    89455.516   -21923.466    1618.1389   -23541.605    71.981364    240.20002 
   23550    105.77283   -886.12235    89501.564   -21959.457    1582.7493   -23542.207    72.098189    234.94672 
   23600    108.95659    -777.9355    89475.279   -21934.231    1630.3901   -23564.621    72.126071    242.01862 
   23650    107.06729    -668.1432    89418.723   -21951.755    1602.1192   -23553.875    72.180133    237.82202 
   23700    106.11976   -837.55553    89457.473   -21939.669    1587.9407    -23527.61    72.048369    235.71735 
   23750    111.63066   -752.82038    89473.556   -21859.063    1670.4039   -23529.467    71.890712    247.95836 
   23800    110.29192   -558.87977    89490.154    -21855.08    1650.3716   -23505.452    72.450867    244.98472 
   23850    109.96974   -401.84711    89524.485   -21843.442    1645.5504   -23488.993    72.566854    244.26906 
   23900    109.05236   -584.85883    89504.234   -21879.976    1631.8232   -23511.799    72.823449    242.23136 
   23950    109.40024   -528.90932    89498.513   -21859.795    1637.0287   -23496.824    72.878146    243.00408 
   24000     108.9798   -539.04217    89507.544   -21875.186    1630.7374   -23505.923      72.9079    242.07018 
   24050    106.60376   -598.48929     89552.88   -21881.232    1595.1831   -23476.416     73.03815    236.79242 
   24100      107.187   -904.39299    89523.033   -21891.812    1603.9105   -23495.723    73.124085    238.08794 
   24150     107.7054   -713.94838    89502.625   -21934.722    1611.6677    -23546.39    73.319072    239.23944 
   24200    109.21996   -874.59188    89430.037   -21891.914     1634.331   -23526.245    73.502988    242.60363 
   24250    110.68308    -622.7887     89437.12   -21918.338    1656.2246   -23574.563    73.760692    245.85356 
   24300    107.25883   -540.58637    89517.962   -21934.432    1604.9853   -23539.417    74.012188    238.24749 
   24350     107.1417   -554.95976     89540.08   -21924.367    1603.2327   -23527.599    73.905705    237.98733 
   24400    109.83186   -565.14119    89554.452   -21920.787    1643.4873   -23564.275    74.065275    243.96281 
   24450    105.25037   -670.30551    89608.183   -21937.404    1574.9314   -23512.336    74.599649    233.78622 
   24500     109.3861   -646.35343     89635.14   -21932.005    1636.8171   -23568.822    74.658904    242.97266 
   24550    104.85196   -879.40321    89600.282   -21983.921    1568.9697   -23552.891    74.803019    232.90125 
   24600    105.76098   -509.18753    89594.482   -21944.033     1582.572   -23526.605    74.617314    234.92041 
   24650    107.49729   -656.73682    89567.804   -21893.911    1608.5535   -23502.464    74.669018    238.77716 
   24700    104.89187   -559.26172    89612.736   -21909.537     1569.567   -23479.104    74.671717    232.98992 
   24750    109.19104   -892.23723    89593.756   -21904.357    1633.8983   -23538.256    74.661818    242.53939 
   24800     107.8605   -373.34234    89657.662   -21864.794    1613.9886   -23478.782    74.696166    239.58395 
   24850    105.24063   -761.23785    89730.969   -21872.986    1574.7857   -23447.772    74.758716    233.76459 
   24900    107.35144    -711.4535    89664.902   -21882.545    1606.3712   -23488.916    74.857383     238.4532 
   24950    107.25118   -777.25908    89650.317   -21889.531    1604.8708   -23494.402    74.886984    238.23049 
   25000    106.16431   -653.27569    89674.909   -21903.749    1588.6074   -23492.356    74.939691    235.81631 
   25050     104.9962   -693.36254     89773.75   -21895.145    1571.1281   -23466.273        75.25    233.22165 
   25100    109.24957   -675.40023    89790.232   -21877.756    1634.7741    -23512.53    75.251067    242.66939 
   25150     109.4776   -714.45126    89817.232   -21883.132    1638.1863   -23521.319    75.459208     243.1759 
   25200    106.33545   -788.63035    89846.118   -21899.857    1591.1681   -23491.025    75.946966    236.19643 
   25250    109.17975   -827.03795    89883.404   -21882.737    1633.7293   -23516.466    76.006437    242.51431 
   25300    111.81422   -754.42108    89874.722   -21875.254    1673.1507   -23548.405    76.122285     248.3661 
   25350    110.18937   -880.21173    89826.041   -21890.218     1648.837   -23539.055    76.292774    244.75692 
   25400     110.5705   -935.10158    89839.924   -21890.524      1654.54   -23545.064    76.829137    245.60349 
   25450    110.05155   -822.92379    89856.708   -21916.645    1646.7746   -23563.419    76.934304    244.45078 
   25500    110.22906   -796.82927    89843.071   -21889.781    1649.4309   -23539.212    76.993776    244.84509 
   25550    107.75474   -664.95175    89885.219    -21902.35    1612.4061   -23514.756    77.318791    239.34903 
   25600    110.12737   -797.44039    89823.783   -21881.957    1647.9093   -23529.867    77.326174    244.61921 
   25650      109.112   -1050.7303    89746.688   -21858.236    1632.7155   -23490.951    77.343576    242.36381 
   25700    111.61385   -864.52325    89748.012   -21849.733    1670.1524   -23519.885    77.504984    247.92102 
   25750     109.5125   -590.11508    89765.354    -21879.98    1638.7085   -23518.689    77.488416    243.25343 
   25800    108.55508   -572.54412    89834.732   -21871.524     1624.382   -23495.906    77.536517    241.12677 
   25850    111.00631   -487.64226    89854.979   -21839.092    1661.0614   -23500.153    77.664327    246.57154 
   25900    109.35324   -333.45813    89920.472   -21880.065    1636.3254    -23516.39    77.810449    242.89967 
   25950    110.50054    -500.0221    89983.845    -21889.46    1653.4932   -23542.953     78.03817    245.44809 
   26000    106.95047   -725.07013    89956.842   -21878.414    1600.3712   -23478.785    78.370956    237.56256 
   26050    108.02397   -710.73422    89931.668   -21883.537    1616.4347   -23499.971    78.785578    239.94705 
   26100    106.23522   -805.33038    89904.671   -21924.307    1589.6684   -23513.976    78.895571    235.97381 
   26150    106.96506   -790.21219    89874.122   -21923.697    1600.5895   -23524.286    78.941279    237.59496 
   26200    108.48573   -948.10178    89906.449   -21916.158    1623.3444   -23539.502    79.314373    240.97274 
   26250    107.97838   -938.68627    89924.597   -21924.302    1615.7524   -23540.054    79.399944    239.84577 
   26300     103.8751   -903.08273    89870.848   -21964.544    1554.3523   -23518.897     79.79294    230.73141 
   26350    104.06932   -799.91914    89874.309   -21962.323    1557.2586   -23519.582    79.938097    231.16282 
   26400    106.56258   -878.90135    89893.301   -21901.867    1594.5668   -23496.434    80.021328    236.70094 
   26450    109.51587   -717.62143    89918.226   -21907.202     1638.759   -23545.961    79.891298    243.26092 
   26500    106.24503   -852.66566    89991.718   -21931.391    1589.8152   -23521.206    79.996603     235.9956 
   26550    105.27465   -809.09549    90012.723   -21891.679    1575.2947   -23466.973    80.041162    233.84014 
   26600     108.6132   -835.15675    90017.289   -21875.595    1625.2517   -23500.846     80.16713    241.25586 
   26650    107.72659   -963.19594    89992.258   -21905.749    1611.9848   -23517.733    80.008547     239.2865 
   26700    106.91597    -1178.641    89927.001   -21904.354    1599.8549   -23504.209    80.294657    237.48592 
   26750     106.6235   -840.43745    89919.529   -21879.921    1595.4785   -23475.399    80.530721    236.83627 
   26800    111.79785   -617.01468    89940.427   -21873.713    1672.9057   -23546.618    80.493097    248.32973 
   26850    107.80206   -843.43439    89960.234   -21885.525     1613.114   -23498.639    80.460126    239.45413 
   26900    107.22748   -1085.6641    89930.043   -21905.609    1604.5162   -23510.125    80.818013    238.17785 
   26950    109.10771   -917.86968    89867.602   -21883.229    1632.6514   -23515.881    81.045384     242.3543 
   27000    107.85957   -664.78545    89919.274   -21900.764    1613.9746   -23514.738    81.109288    239.58187 
   27050    105.78283   -787.93703    89937.868    -21928.75    1582.8989   -23511.649    81.352667    234.96893 
   27100    108.60149   -736.19707    90022.123   -21932.834    1625.0765   -23557.911    81.499548    241.22987 
   27150    107.64567   -1020.4702    90071.662   -21934.384    1610.7739   -23545.158     81.77272    239.10675 
   27200    104.26072   -981.39386    90011.384   -21948.737    1560.1226   -23508.859    82.163061    231.58796 
   27250    109.88422   -884.43071    89942.081    -21924.33    1644.2709   -23568.601    82.460577    244.07911 
   27300    108.50978   -850.11632    89926.428    -21909.42    1623.7042   -23533.124    82.324202    241.02615 
   27350    110.15057   -932.72727    89870.074   -21887.516    1648.2563   -23535.772    82.305779    244.67073 
   27400    107.02043   -870.15868    89832.134   -21895.516    1601.4179   -23496.934    82.439758    237.71794 
   27450    107.93075   -872.08259    89765.033   -21945.747    1615.0397   -23560.787    82.341495    239.73998 
   27500     106.3517   -1028.8468    89784.223   -21904.708    1591.4113   -23496.119    82.509231    236.23253 
   27550    110.16224   -1129.4081     89777.89   -21915.169     1648.431     -23563.6    82.721354    244.69666 
   27600    105.71703   -1082.3275    89729.206   -21907.345    1581.9144   -23489.259    82.955284    234.82278 
   27650    107.33542   -896.31012     89754.26   -21907.265    1606.1314   -23513.396    83.105302    238.41761 
   27700    107.09698   -788.00717    89730.196   -21885.653    1602.5635   -23488.217    83.265865    237.88798 
   27750    106.45817   -1039.0987    89775.038   -21875.075    1593.0046   -23468.079    83.199601    236.46904 
   27800    109.73477   -578.40954    89830.545   -21880.137    1642.0346   -23522.172    83.246393    243.74715 
   27850    109.13697   -982.31182     89859.22   -21889.254    1633.0893   -23522.343    83.586503    242.41929 
   27900    107.07795   -669.86202    89886.603   -21871.079    1602.2787   -23473.357    83.698041    237.84571 
   27950     108.6862   -720.13248    89943.393   -21864.915     1626.344   -23491.259    83.927021    241.41802 
   28000    109.91528   -870.67433    89941.792   -21870.514    1644.7355   -23515.249    84.033895    244.14809 
   28050    109.46114   -882.22184    89880.547   -21883.441      1637.94   -23521.381    84.233784    243.13935 
   28100    107.06924   -689.12034    89835.217   -21936.738    1602.1484   -23538.886    84.283253    237.82637 
   28150       107.55   -1060.1218    89828.085   -21924.755    1609.3423   -23534.098    84.521801    238.89424 
   28200    106.61881   -678.01241     89813.27   -21931.067    1595.4083   -23526.476    84.768914    236.82585 
   28250    106.54293   -830.73821    89791.453   -21915.662    1594.2728   -23509.935    84.693881    236.65729 
   28300    106.94457   -1114.3327    89836.401   -21906.145    1600.2828   -23506.428    84.657102    237.54943 
   28350    107.09714    -911.5456     89807.01   -21916.922    1602.5659   -23519.488    84.967796    237.88834 
   28400    107.80568   -982.44745     89795.95   -21937.308    1613.1683   -23550.476    84.900665    239.46218 
   28450    106.27066    -1323.498    89717.728   -21942.539    1590.1987   -23532.738    85.040188    236.05253 
   28500    106.28993   -772.96832    89675.393   -21918.823    1590.4871    -23509.31    85.248411    236.09533 
   28550    105.52574   -713.02268    89600.739   -21929.949     1579.052   -23509.001    85.285657    234.39789 
   28600    104.84013   -565.88636    89602.474   -21886.746    1568.7928   -23455.539    85.493682    232.87499 
   28650     107.6572   -1108.4944    89609.023   -21849.134    1610.9465   -23460.081     85.63321    239.13237 
   28700    106.61413   -899.26764    89549.625   -21819.397    1595.3383   -23414.735    85.914401    236.81546 
   28750    107.48024   -970.55785    89523.189    -21789.74    1608.2984   -23398.038    86.147692    238.73929 
   28800    107.31363   -925.98993    89489.642   -21799.171    1605.8054   -23404.977     86.12538    238.36922 
   28850     104.7084    -557.7857    89540.512   -21790.846    1566.8216   -23357.668    86.131816    232.58238 
   28900    110.05478   -773.15584    89485.252   -21824.866    1646.8231    -23471.69    86.226949    244.45797 
   28950    109.37731    -719.5352     89530.19   -21867.968    1636.6856   -23504.653    86.292871    242.95315 
   29000    105.45629   -630.54373    89529.445   -21902.987    1578.0127   -23480.999    86.428913    234.24361 
   29050    108.99909   -349.48405    89591.409   -21921.154     1631.026    -23552.18    87.033697    242.11302 
   29100    105.94341   -450.59035    89641.484   -21903.982    1585.3018   -23489.284    87.198597    235.32562 
   29150    109.83399   -598.71237    89689.046   -21864.937    1643.5192   -23508.457    87.205217    243.96754 
   29200    107.74873   -930.90649    89708.034   -21837.093    1612.3161   -23449.409    87.592041    239.33568 
   29250    110.20946   -949.65305    89672.709   -21839.819    1649.1377   -23488.957    88.054279    244.80155 
   29300    109.83434   -640.97615    89699.479   -21873.815    1643.5245   -23517.339    88.040132    243.96832 
   29350    108.26578   -545.27931    89669.736   -21864.828    1620.0531   -23484.881    87.913971    240.48417 
   29400    108.38277   -812.43817    89723.163    -21891.83    1621.8036   -23513.634    87.940108    240.74403 
   29450    107.70949   -1024.5154    89754.039    -21877.47    1611.7289   -23489.199    88.074999    239.24852 
   29500    107.53353   -711.22389    89675.412   -21903.306    1609.0959   -23512.402    88.400756    238.85767 
   29550    108.95347   -851.54145    89717.229   -21892.079    1630.3433   -23522.422    88.564521    242.01168 
   29600    108.72513   -857.06236    89674.859   -21888.205    1626.9266   -23515.132    88.324115    241.50449 
   29650    107.60151   -912.91887    89638.423   -21873.011    1610.1131   -23483.124    88.666094    239.00866 
   29700    105.88702    -796.2438     89600.75   -21890.087    1584.4581   -23474.545    88.714025    235.20038 
   29750    106.44429   -906.00448    89613.503   -21874.329    1592.7969   -23467.126    88.902367     236.4382 
   29800    109.05485   -755.33674    89566.366   -21854.669    1631.8603   -23486.529    89.039396    242.23687 
   29850    107.57677   -788.10591    89528.426    -21856.02    1609.7429   -23465.763    89.111897    238.95371 
   29900    110.01936   -597.66523    89568.761   -21885.532    1646.2929   -23531.825    89.165604    244.37928 
   29950     106.2523   -609.46978    89588.228   -21888.517    1589.9239   -23478.441    89.296145    236.01174 
   30000    109.59829   -751.35024    89586.767    -21898.98    1639.9922   -23538.972    89.348444    243.44398 
   30050    107.93933   -364.30534    89600.656   -21876.009    1615.1682   -23491.177    89.757916    239.75905 
   30100     107.4706   -724.92998    89707.287   -21870.419    1608.1542   -23478.573    90.162674    238.71787 
   30150    109.98323   -1131.2289    89787.704   -21865.334    1645.7524   -23511.087    90.705396    244.29904 
   30200    106.18744   -790.96366    89759.431   -21910.051    1588.9534   -23499.004    91.014489    235.86767 
   30250    104.69397   -729.59968    89729.728   -21889.757    1566.6057   -23456.363    91.586378    232.55033 
   30300    105.35886    -983.8703    89699.987   -21896.451    1576.5548   -23473.006    91.766466     234.0272 
   30350    106.82598   -853.10017    89740.655   -21923.123    1598.5083   -23521.632    91.869104    237.28602 
   30400    106.23268    -858.5328    89746.262   -21915.152    1589.6303   -23504.783     91.94606    235.96816 
   30450    107.40115   -1227.7766    89687.415   -21921.325     1607.115    -23528.44    91.968474    238.56362 
   30500    107.97466   -520.49687     89649.52   -21915.539    1615.6968   -23531.236    91.977503    239.83753 
   30550    108.78848   -596.43486    89702.215   -21877.958    1627.8746   -23505.833     92.26819    241.64522 
   30600    106.43971   -720.28353    89761.282   -21867.083    1592.7283   -23459.812    92.348006    236.42803 
   30650    105.93603   -759.47623    89793.304   -21885.966    1585.1914   -23471.158    92.527488    235.30923 
   30700     108.8584   -689.28065    89861.837   -21924.014    1628.9208   -23552.935    92.483342    241.80052 
   30750    106.38813   -1004.6436    89896.638    -21915.46    1591.9565   -23507.417    92.552994    236.31346 
   30800    106.57032   -881.97125     89942.21   -21948.381    1594.6828   -23543.064     92.57591    236.71815 
   30850    109.49521   -957.04222     90007.65   -21902.831    1638.4498   -23541.281    92.618448    243.21502 
   30900    108.61338   -937.43011    89960.204   -21857.702    1625.2544   -23482.956    92.734518    241.25627 
   30950     109.1175   -565.21723    89998.735   -21856.321    1632.7979   -23489.119    92.840746    242.37605 
   31000    107.67787   -974.38496    90058.879   -21869.271    1611.2558   -23480.526    92.848868    239.17828 
   31050    107.90251   -1052.4895    90057.645   -21858.299    1614.6172   -23472.916    92.999644    239.67725 
   31100    107.25437   -658.79701    90047.831   -21879.935    1604.9186   -23484.853    93.156264    238.23757 
   31150    107.65275   -949.95112     90034.71   -21914.044    1610.8799   -23524.924    93.227065    239.12248 
   31200    107.85317   -837.05601    90116.926   -21902.091    1613.8789    -23515.97    93.498853    239.56767 
   31250    109.05542   -806.38913     90162.43   -21920.243    1631.8689   -23552.112    93.579149    242.23815 
   31300    106.95262   -935.01645    90129.439   -21942.228    1600.4034   -23542.631    93.657128    237.56733 
   31350    106.20651   -790.87339    90140.295   -21978.959    1589.2389   -23568.198    93.720489    235.91005 
   31400    107.91337   -862.86476     90138.85   -21940.431    1614.7797    -23555.21    93.654069    239.70138 
   31450    106.78611   -883.40619    90125.074   -21928.526    1597.9117   -23526.438    94.142073    237.19746 
   31500    106.89001   -840.75818    90152.777    -21919.03    1599.4664   -23518.497    94.355935    237.42825 
   31550    108.22194   -890.83776    90273.188    -21905.74     1619.397   -23525.137    94.502933    240.38679 
   31600    108.00635   -796.62339    90248.382   -21886.871     1616.171   -23503.042    94.694172    239.90792 
   31650    106.60324   -981.63925     90315.93   -21892.622    1595.1753   -23487.797    95.038128    236.79127 
   31700     107.8123   -842.41325    90364.609   -21863.838    1613.2673   -23477.105    95.261194    239.47687 
   31750    110.35999   -826.59471     90327.96   -21799.566    1651.3901   -23450.956    95.280468    245.13591 
   31800      107.698   -629.87564     90363.45   -21845.762     1611.557   -23457.319    95.540744      239.223 
   31850    109.92844   -868.90601    90308.572   -21841.497    1644.9325   -23486.429    95.805487    244.17732 
   31900    112.24762   -806.68452    90267.303   -21804.325     1679.636   -23483.961    95.977369    249.32879 
   31950    110.50819   -792.87745    90308.528   -21819.449    1653.6078   -23473.057    95.877939     245.4651 
   32000    107.42304   -899.34712    90291.974   -21846.582    1607.4426   -23454.024    95.703555    238.61224 
   32050    108.91452   -1240.8422    90262.044   -21858.187    1629.7605   -23487.947    95.798296    241.92517 
   32100      109.993    -858.3642    90245.443   -21854.312    1645.8985   -23500.211    95.850569    244.32073 
   32150    107.16194   -1088.6736    90168.688   -21865.427    1603.5355   -23468.962    95.990026    238.03227 
   32200    108.96103   -1027.7608    90131.083   -21833.901    1630.4565   -23464.358    96.342115    242.02848 
   32250    109.71618   -411.72571    90222.027   -21875.198    1641.7563   -23516.954    96.499622    243.70585 
   32300    107.28516   -656.61048    90248.493   -21853.091    1605.3794   -23458.471    96.733555    238.30598 
   32350    109.15304   -626.55209    90284.791   -21841.447    1633.3296   -23474.776    96.944148    242.45498 
   32400    113.27192   -589.20076    90296.346   -21817.523    1694.9633   -23512.487    96.925388    251.60401 
   32450    111.25971   -762.35736    90358.072   -21831.316    1664.8532   -23496.169     96.99899     247.1344 
   32500    106.78739   -822.94854     90391.54   -21841.653    1597.9309   -23439.584     97.12337    237.20031 
   32550     106.5056   -925.30484    90348.374   -21882.202    1593.7142   -23475.916    97.039834    236.57438 
   32600    107.00742   -1118.2955    90359.632   -21885.227    1601.2233   -23486.451    97.400026    237.68904 
   32650    106.89264   -1083.5572    90391.239   -21883.337    1599.5058   -23482.842    97.667557    237.43409 
   32700    109.17133   -1323.4892    90279.683   -21869.715    1633.6033   -23503.318    97.901336     242.4956 
   32750    105.14527   -813.43586    90258.903    -21901.03    1573.3588   -23474.389    98.196909    233.55278 
   32800     111.3386   -810.04983    90242.998   -21890.092    1666.0336   -23556.126    98.264853    247.30963 
   32850    110.07725   -832.85233    90259.603    -21879.65    1647.1593   -23526.809      98.2789    244.50788 
   32900    106.25839   -704.77403    90242.436   -21895.814    1590.0151   -23485.829    98.576899    236.02527 
   32950     107.8167   -842.43827    90207.872   -21929.244    1613.3332   -23542.577    98.553385    239.48666 
   33000    106.38935   -714.64254    90213.271   -21927.222    1591.9747   -23519.197    98.852308    236.31617 
   33050    105.79154   -1189.0132    90206.299    -21889.93    1583.0293   -23472.959    99.377323    234.98829 
   33100    109.29178   -668.99604    90191.549   -21894.847    1635.4057   -23530.253    99.596485    242.76315 
   33150    108.43838   -903.51429    90245.375   -21896.701    1622.6357   -23519.337    99.881607    240.86754 
   33200    107.60364     -1021.99     90157.03   -21899.921     1610.145   -23510.066    99.991126    239.01339 
   33250    106.38864   -758.93202    90156.495   -21919.902    1591.9641   -23511.867     100.2004    236.31459 
   33300    106.10672   -673.72244    90124.128    -21918.95    1587.7455   -23506.696    100.21099    235.68837 
   33350    107.46402   -769.55465    90210.703   -21934.776    1608.0557   -23542.832    100.15249    238.70326 
   33400    108.12262   -1054.0713    90220.789    -21953.28    1617.9108   -23571.191    100.19631    240.16617 
   33450    107.84996   -1093.7218    90209.905   -21953.768    1613.8308   -23567.599    100.31203    239.56053 
   33500    110.04368   -893.49389    90197.761   -21928.046    1646.6569   -23574.703     100.2247     244.4333 
   33550    107.00714   -905.77407    90156.619   -21952.928    1601.2191   -23554.147    99.962765    237.68842 
   33600    107.71602   -720.61485    90161.162   -21933.114    1611.8265   -23544.941    100.36808    239.26301 
   33650    109.83163   -828.13692    90139.504   -21894.827    1643.4839    -23538.31    100.46718    243.96229 
   33700     109.3482   -821.22136    90133.984   -21892.128      1636.25   -23528.378    100.52445    242.88847 
   33750    107.98943   -977.77103    90115.212   -21878.862    1615.9178    -23494.78    100.90886    239.87033 
   33800    108.33912   -678.00597     90106.54   -21914.287    1621.1505   -23535.437    101.06733    240.64708 
   33850    108.74519   -740.20453    90130.495   -21930.783    1627.2268    -23558.01    101.18956    241.54906 
   33900     104.6279   -922.98168    90112.591    -21962.02     1565.617   -23527.637    101.13579    232.40356 
   33950    105.50531   -933.37819    90121.896   -21934.057    1578.7462   -23512.803    101.71475     234.3525 
[...]
   92000    108.18662   -799.02363    89131.764   -21787.918    1618.8685   -23406.787    264.33273    240.30833 
   92050    107.50937   -705.80008    89063.091   -21775.427    1608.7343   -23384.162    264.44724      238.804 
   92100    107.41483   -740.89588    89056.346   -21815.081    1607.3197     -23422.4    264.42281    238.59401 
   92150    110.32343   -729.68716    89091.127   -21823.007     1650.843    -23473.85    264.31444    245.05469 
   92200    109.05824   -809.65642     89098.33   -21813.821    1631.9112   -23445.732    265.11052    242.24441 
   92250    109.70114    -633.3634    89106.325   -21816.443    1641.5312   -23457.974    265.30002    243.67243 
   92300    107.73784   -661.87603    89081.877   -21801.404    1612.1532   -23413.557    265.43144    239.31149 
   92350    107.60515   -643.13982    89107.972   -21811.547    1610.1675   -23421.714    266.20446    239.01674 
   92400    104.99445   -732.85328    89115.158   -21877.513    1571.1019   -23448.615    266.22682    233.21776 
   92450    109.20311   -519.69717    89148.667   -21857.455    1634.0789   -23491.534     266.7123     242.5662 
   92500    106.57725   -756.67192    89221.342   -21872.219    1594.7865   -23467.006    267.10751    236.73355 
   92550     109.1422   -701.11548    89313.436   -21857.415    1633.1675   -23490.582    267.02927    242.43091 
   92600    105.17379   -857.54801    89340.711   -21880.871    1573.7855   -23454.656    267.19253    233.61612 
   92650    106.71107    -841.8013     89362.84   -21860.499    1596.7889   -23457.288    267.52709    237.03079 
   92700    105.30921    -888.8046    89407.645   -21868.102    1575.8119   -23443.914    267.92278    233.91692 
   92750    107.06893   -775.16401    89401.039   -21867.447    1602.1438   -23469.591    268.18278    237.82569 
   92800    105.19544   -950.91991     89298.29    -21877.05    1574.1095    -23451.16     267.8604    233.66421 
   92850    109.16714   -773.74609    89297.839   -21807.411    1633.5406   -23440.951    267.47964    242.48629 
   92900    108.39886   -880.81731    89288.859    -21825.11    1622.0443   -23447.154    267.77383    240.77976 
   92950    106.96514   -783.23456    89304.612   -21862.184    1600.5906   -23462.775    267.45831    237.59513 
   93000    105.97747    -1027.994    89323.744   -21856.507    1585.8116   -23442.319    267.47511    235.40129 
   93050    107.39896   -458.66429     89314.82   -21871.033    1607.0823   -23478.115    267.57148    238.55876 
   93100     107.1876   -575.08286    89360.464   -21863.176    1603.9195   -23467.095    268.31371    238.08927 
   93150     107.0422   -483.70544    89442.678   -21820.446    1601.7438    -23422.19     268.5254    237.76631 
   93200    108.96964   -639.28352    89557.109   -21817.722    1630.5854   -23448.307    268.44039    242.04761 
   93250    109.84792   -478.64108     89575.25   -21797.711    1643.7277   -23441.438    269.27754    243.99849 
   93300    107.79101   -459.10435     89590.84   -21825.966    1612.9487   -23438.915    269.42113    239.42958 
   93350     107.1355   -660.77212    89615.907   -21840.715    1603.1399   -23443.855    269.55533    237.97355 
   93400    106.54881   -777.61886    89616.355    -21847.87    1594.3608   -23442.231    269.59225    236.67036 
   93450    105.94487    -887.1694    89564.215   -21818.659    1585.3237   -23403.983    269.88059    235.32887 
   93500    105.45039   -993.75035    89535.552   -21832.462    1577.9244   -23410.386    269.82141     234.2305 
   93550    108.93667   -843.43957    89531.144   -21792.406     1630.092   -23422.498    270.00684    241.97438 
   93600    109.54664   -807.18892    89555.714   -21795.518    1639.2193   -23434.738    269.86731    243.32926 
   93650    108.81218   -662.24199    89547.841   -21802.263    1628.2292   -23430.492    269.75936    241.69785 
   93700    108.93911   -881.87214    89547.301   -21783.918    1630.1285   -23414.047    269.84305     241.9798 
   93750    110.03731   -801.48776    89545.833   -21800.501    1646.5616   -23447.062    270.03772    244.41916 
   93800    111.85184   -675.99766    89539.106   -21805.936    1673.7137   -23479.649    270.52435    248.44967 
   93850    108.05543   -641.45856    89514.831   -21819.957    1616.9054   -23436.862    270.79196    240.01693 
   93900    109.01106    -765.9396    89546.844   -21859.371    1631.2051   -23490.576    270.88651     242.1396 
   93950    107.80665   -880.47213    89514.859   -21872.607    1613.1828    -23485.79    270.86626    239.46434 
   94000    106.93701   -650.47724    89601.566   -21851.452    1600.1697   -23451.622    271.00102    237.53264 
   94050     108.3781   -830.75772    89631.548   -21886.161    1621.7337   -23507.895    271.01706    240.73365 
   94100    108.17971   -662.94548     89610.55   -21861.518    1618.7651   -23480.283    270.86995    240.29298 
   94150    106.66869   -736.89271    89553.538   -21899.386    1596.1548   -23495.541    270.87442    236.93666 
   94200    105.34216   -631.36391    89536.748   -21926.335    1576.3049    -23502.64    270.36097    233.99011 
   94250    105.49368   -784.04941    89583.627   -21930.166    1578.5722   -23508.738    270.55112    234.32666 
   94300    107.76095   -813.05898    89556.926   -21900.501    1612.4989       -23513    271.32768    239.36282 
   94350    107.80381   -557.60566    89582.204   -21897.884    1613.1402   -23511.024    271.43632    239.45802 
   94400    108.92117   -920.90578    89615.507   -21874.219    1629.8601   -23504.079     271.6212    241.93995 
   94450    108.81162   -683.08019    89610.752   -21843.902    1628.2208   -23472.123    271.36779     241.6966 
   94500    107.99764   -728.57106    89634.431   -21850.786    1616.0407   -23466.826    271.56423    239.88857 
   94550    107.97437   -1031.3935    89641.564   -21824.991    1615.6924   -23440.683    271.95355    239.83686 
   94600    111.37319   -697.31243    89662.235   -21832.928    1666.5512   -23499.479    272.78837    247.38646 
   94650    109.79818   -849.96898    89628.966   -21812.925    1642.9833   -23455.908    272.75425    243.88798 
   94700    110.92781   -476.39318    89652.287   -21833.357    1659.8867   -23493.243     273.5651    246.39716 
   94750    108.15547   -511.91048    89676.035    -21862.62    1618.4024   -23481.023    273.04603    240.23915 
   94800    110.42102   -450.77329    89755.013   -21828.376    1652.3033   -23480.679     273.3933    245.27147 
   94850    109.29942   -811.40072    89802.432   -21849.685    1635.5201   -23485.205     273.5785    242.78013 
   94900    107.67193    -581.5757    89813.691   -21853.321    1611.1668   -23464.488    273.94241    239.16507 
   94950    109.76301   -804.03802    89868.027   -21832.374    1642.4571   -23474.831    273.58104    243.80988 
   95000    111.33111   -748.01075    89803.567   -21789.323    1665.9216   -23455.245    273.14451    247.29299 
   95050    107.21812   -1171.9553    89740.409   -21820.961    1604.3762   -23425.337    273.19469    238.15706 
   95100    105.04474   -839.96096    89680.654   -21840.941    1571.8544   -23412.796    272.48286    233.32947 
   95150    109.03127    -1334.186    89648.435   -21841.183    1631.5075    -23472.69    272.71959     242.1845 
   95200    106.21917   -493.92616    89625.481   -21859.091    1589.4283    -23448.52     273.2294    235.93817 
   95250    109.21341   -368.50591     89670.42   -21807.819    1634.2331   -23442.052    273.19876    242.58909 
   95300     110.9462   -991.36084    89722.054   -21820.144     1660.162   -23480.306    273.52943    246.43802 
   95350    106.60659   -631.26434    89730.676   -21802.112    1595.2254   -23397.338    273.66158     236.7987 
   95400    108.14439   -1004.0719    89727.622   -21848.713    1618.2366    -23466.95    273.86976    240.21453 
   95450    108.47031    -749.1119    89747.313   -21870.021    1623.1135   -23493.134     273.6646    240.93847 
   95500    109.35289   -1039.6334    89751.768   -21812.687    1636.3202   -23449.007    273.34728    242.89889 
   95550    109.00894   -1045.6541    89689.226   -21805.114    1631.1734   -23436.288    273.52919    242.13491 
   95600     108.6077   -776.96522    89695.055    -21828.52    1625.1694    -23453.69    273.91079    241.24365 
   95650    109.19342   -1069.7682    89685.724    -21833.24    1633.9339   -23467.174    273.94094    242.54467 
   95700    109.38684   -1052.9652    89642.393   -21800.482    1636.8282    -23437.31    273.66517    242.97431 
   95750    107.99221   -738.86511    89673.593   -21798.548    1615.9594   -23414.507    274.04143     239.8765 
   95800    108.87359   -778.51591    89715.708   -21802.669    1629.1481   -23431.817    274.19047    241.83426 
   95850    107.57729   -817.96928    89727.985   -21808.203    1609.7506   -23417.953    274.59387    238.95486 
   95900    109.84114   -703.54988    89750.709   -21799.141    1643.6261   -23442.767    274.20967    243.98341 
   95950    106.63437   -794.57429    89750.496   -21811.478    1595.6411   -23407.119    274.43235    236.86041 
   96000    108.47884   -1095.0223    89742.591   -21830.174    1623.2412   -23453.415    274.94822    240.95742 
   96050    107.32853   -694.23177    89657.428   -21826.683    1606.0283   -23432.711    274.67044     238.4023 
   96100     110.3381   -836.02417    89658.518   -21863.406    1651.0626   -23514.468    274.67049    245.08729 
   96150     106.7298   -989.38081    89642.821   -21876.206    1597.0691   -23473.275    275.36751    237.07239 
   96200    106.32833   -607.31665    89659.716   -21872.563    1591.0617   -23463.624    275.14148    236.18063 
   96250    107.95254    -814.0903    89671.207   -21863.052    1615.3658   -23478.418    275.83357    239.78838 
   96300    106.10744   -843.91966    89630.396   -21901.615    1587.7564   -23489.372    276.04391    235.68998 
   96350    109.01406   -915.19324    89643.415   -21863.021    1631.2501   -23494.271    276.55033    242.14628 
   96400    107.29838   -1034.7995    89641.897   -21840.317    1605.5771   -23445.894    276.00716    238.33533 
   96450    107.88758   -978.61253    89604.467       -21829    1614.3937   -23443.394    276.52153    239.64409 
   96500    108.58209   -742.48579    89575.895   -21822.939    1624.7862   -23447.726    276.94152    241.18677 
   96550    110.32035   -789.16559    89564.011   -21828.317    1650.7968   -23479.114    277.38004    245.04785 
   96600     107.4054   -731.08009    89597.297   -21849.878    1607.1785   -23457.057     277.4922    238.57305 
   96650    107.73873   -733.36733    89625.332   -21861.796    1612.1664   -23473.962    277.95085    239.31346 
   96700     105.3698   -779.74777     89619.67   -21844.023    1576.7185   -23420.741    278.56306     234.0515 
   96750    105.88773   -822.54054    89651.498   -21897.096    1584.4687   -23481.564    278.49139    235.20195 
   96800    105.53328   -770.95196    89695.427   -21943.011    1579.1647   -23522.176    278.79427    234.41462 
   96850    106.76642   -892.75099    89704.064   -21940.401     1597.617   -23538.018     279.0511    237.15372 
   96900    105.25336   -601.04614    89731.282   -21891.911    1574.9761   -23466.887    278.84959    233.79286 
   96950    107.38261   -681.24801    89789.072   -21844.902    1606.8375   -23451.739    278.98601    238.52243 
   97000    109.53551   -863.28867    89856.835   -21833.804    1639.0528   -23472.856    279.91271    243.30453 
   97050     109.2227   -1093.2689    89861.201   -21791.051    1634.3721   -23425.423     280.1026    242.60972 
   97100    109.02481   -838.39143    89805.569   -21756.122    1631.4109   -23387.533    280.21916    242.17015 
   97150    105.16819   -1069.1441    89785.356    -21788.09    1573.7018   -23361.792    280.02814    233.60369 
   97200    109.27407   -875.15421    89696.122    -21785.21    1635.1407   -23420.351    280.44312    242.72381 
   97250    111.79304   -761.28971    89695.599   -21772.781    1672.8338   -23445.615    280.15345    248.31906 
   97300    110.68081   -734.62987    89756.679   -21764.228    1656.1907   -23420.419    280.57728    245.84852 
   97350    112.54253   -843.46335    89828.877   -21746.923    1684.0489   -23430.972    281.39661    249.98385 
   97400    111.01913   -799.01175     89815.68   -21771.584    1661.2532   -23432.837    281.56486    246.60001 
   97450    109.90837   -742.75847    89807.258   -21771.489    1644.6321   -23416.121    281.75189    244.13274 
   97500    110.52827   -716.76301    89804.173   -21710.577    1653.9081   -23364.486    281.62198    245.50969 
   97550    108.96056   -1048.3182    89775.183   -21712.648    1630.4495   -23343.097    281.59552    242.02745 
   97600    112.11241   -1007.4628     89764.85   -21680.657    1677.6128    -23358.27    281.98797    249.02846 
   97650    109.42833   -804.14204    89803.593   -21725.856    1637.4491   -23363.305    282.51659    243.06648 
   97700    110.57006   -924.84525     89802.12   -21717.336    1654.5336   -23371.869    283.27047    245.60253 
   97750    112.04006   -828.34305    89717.984   -21750.014      1676.53   -23426.544    282.97513    248.86774 
   97800    108.78213   -546.24317    89754.423   -21773.679    1627.7795   -23401.459    283.22817    241.63111 
   97850    105.73615   -831.30959    89786.091   -21819.051    1582.2005   -23401.252    283.79468    234.86526 
   97900    105.61793   -899.99476    89851.791   -21795.163    1580.4315   -23375.594    283.72769    234.60267 
   97950    107.69678   -764.44071    89871.518   -21770.918    1611.5388   -23382.457    283.94373    239.22029 
   98000    107.11847   -816.37162    89853.592   -21787.633    1602.8851   -23390.518    283.72715    237.93572 
   98050    109.80197    -1062.167    89785.914   -21787.087      1643.04   -23430.127    284.03004    243.89641 
   98100    112.08904   -480.40214    89752.405   -21731.541     1677.263   -23408.804    283.63178    248.97655 
   98150     108.0901   -844.13787    89842.821   -21792.185    1617.4243    -23409.61     283.7049    240.09395 
   98200    108.73264   -723.34002      89884.4   -21811.727     1627.039   -23438.766    284.10031    241.52118 
   98250    109.16979   -1070.5706     89879.77   -21823.248    1633.5803   -23456.828    283.96776    242.49219 
   98300     107.1341     -1064.35    89806.586   -21790.532    1603.1189   -23393.651     284.2015    237.97043 
   98350    109.13733   -1310.5107    89730.281   -21798.613    1633.0946   -23431.707    284.49319    242.42009 
   98400    107.52981   -1197.5491    89658.435   -21802.462    1609.0402   -23411.503    284.38025     238.8494 
   98450    107.13818   -1070.8197    89578.012   -21813.452    1603.1799   -23416.632    284.39301    237.97949 
   98500     107.9186   -740.65315    89593.254   -21793.257    1614.8579   -23408.114     284.9127    239.71299 
   98550    108.21856    -842.6116    89621.953   -21815.245    1619.3464   -23434.591    285.61274    240.37928 
   98600    107.36487   -788.37661     89629.24   -21832.476    1606.5721   -23439.048     285.7596    238.48303 
   98650    106.29561   -786.15071    89593.448   -21842.374    1590.5721   -23432.946    286.04118    236.10795 
   98700    105.20884   -1341.6807    89531.205   -21857.473    1574.3099   -23431.783    286.23443    233.69396 
   98750    105.33345   -1093.1001    89355.305   -21874.645    1576.1746   -23450.819    286.26338    233.97075 
   98800    106.55699    -1244.571    89219.108   -21886.275    1594.4833   -23480.758    285.98923    236.68854 
   98850    106.40406    -832.0611    89157.115   -21868.098    1592.1949   -23460.293    285.74941    236.34884 
   98900    107.16249   -591.82835    89225.883   -21809.919    1603.5438   -23413.463    285.81578     238.0335 
   98950     110.1146   -791.67898    89271.519   -21782.534    1647.7181   -23430.252    286.23322    244.59083 
   99000    106.81743   -868.57384    89257.262   -21787.093    1598.3804   -23385.474    286.12108    237.26703 
   99050    110.84228   -892.18428    89254.129   -21726.506    1658.6069   -23385.113    286.38159    246.20718 
   99100    107.46722   -632.30144    89250.639   -21770.157    1608.1036    -23378.26    286.60531    238.71037 
   99150    108.07621   -818.34458    89252.384   -21775.782    1617.2163   -23392.998    287.00396    240.06308 
   99200    109.20774    -575.6171    89294.232   -21760.944    1634.1482   -23395.092    286.96125    242.57648 
   99250    110.19831   -973.64546     89396.28    -21749.13    1648.9707   -23398.101    287.10099    244.77677 
   99300    106.79618   -1325.1452    89383.318   -21744.468    1598.0625    -23342.53     286.6469    237.21984 
   99350     108.1583   -1303.2334     89305.47   -21742.122    1618.4447   -23360.567    286.06296    240.24542 
   99400    105.91914   -760.99492    89274.152   -21779.357    1584.9387   -23364.295    286.30976    235.27171 
   99450    108.83266   -1081.0434    89242.534   -21756.693    1628.5356   -23385.228    286.60401    241.74334 
   99500    111.35619   -1005.8184    89206.755   -21757.871    1666.2969   -23424.168    285.86301    247.34871 
   99550    102.76566    -851.6125    89181.616   -21804.458     1537.751   -23342.209    286.13627    228.26708 
   99600    107.71603   -874.43038    89181.132   -21807.161    1611.8268   -23418.987    286.55345    239.26305 
   99650    106.83238   -941.40085    89209.134   -21821.166    1598.6041    -23419.77    286.97472    237.30024 
   99700     105.8058   -826.60731    89196.515   -21830.461    1583.2427   -23413.704    287.02187    235.01997 
   99750    104.62343   -910.42968    89179.097   -21847.847    1565.5501   -23413.398    286.14765    232.39363 
   99800     104.9997   -767.90724    89162.782   -21851.611    1571.1805   -23422.791    286.39528    233.22942 
   99850    108.11685   -661.01046    89077.073   -21813.325    1617.8245   -23431.149    286.32764    240.15336 
   99900    107.08568    -627.8272    89105.298   -21830.997    1602.3943   -23433.392    285.84637    237.86287 
   99950     109.0014   -856.07927    89063.449   -21824.405    1631.0606   -23455.466    285.80894    242.11815 
  100000    112.35257    -998.7697    89072.976   -21834.626    1681.2064   -23515.833    285.92304     249.5619 
Loop time of 43.5902 on 80 procs for 100000 steps with 5021 atoms

Performance: 991.049 ns/day, 0.024 hours/ns, 2294.094 timesteps/s
100.0% CPU use with 80 MPI tasks x no OpenMP threads

MPI task timing breakdown:
Section |  min time  |  avg time  |  max time  |%varavg| %total
---------------------------------------------------------------
Pair    | 6.0353     | 18.154     | 26.128     | 174.9 | 41.65
Neigh   | 0.46838    | 1.2072     | 3.2714     |  93.7 |  2.77
Comm    | 9.8683     | 17.357     | 29.392     | 170.3 | 39.82
Output  | 0.12004    | 0.12387    | 0.25863    |   4.3 |  0.28
Modify  | 3.8718     | 5.8948     | 7.4967     |  39.5 | 13.52
Other   |            | 0.8533     |            |       |  1.96

Nlocal:    62.7625 ave 144 max 32 min
Histogram: 59 1 0 0 0 0 0 0 5 15
Nghost:    674.15 ave 839 max 391 min
Histogram: 20 0 0 0 0 0 0 40 0 20
Neighs:    0 ave 0 max 0 min
Histogram: 80 0 0 0 0 0 0 0 0 0
FullNghs:  5957.38 ave 18768 max 1242 min
Histogram: 60 0 0 0 0 0 0 0 0 20

Total # of neighbors = 476590
Ave neighs/atom = 94.9193
Neighbor list builds = 5757
Dangerous builds = 0

write_data		${DIR}/data.eq-${NAME}-${TEMP}
write_data		run_3/data.eq-${NAME}-${TEMP}
write_data		run_3/data.eq-het_freeze_3-${TEMP}
write_data		run_3/data.eq-het_freeze_3-240
undump          1

reset_timestep  0

unfix           2
unfix           3
unfix           4


################################################
#######         Run Simulation         #########
################################################

log				${DIR}/log.run_${NAME}
log				run_3/log.run_${NAME}
log				run_3/log.run_het_freeze_3
