LAMMPS data file via write_data, version 16 Mar 2018, timestep = 100000

6750 atoms
2 atom types

3.0663412572465631e-01 4.8913365874275677e+01 xlo xhi
3.0538588392678534e-01 4.8714250046483492e+01 ylo yhi
-1.3758734584457954e-01 6.0199587345843298e+01 zlo zhi

Masses

1 18.015
2 12.01

Atoms # atomic

4704 1 3.7446808422855358e+00 3.2960887895572410e+00 1.3534530336737571e+00 -1 1 1
568 1 1.2919892039223178e+00 2.9288391033438024e+00 1.8164884489313968e+00 -1 1 1
3129 1 1.0165700370622945e+00 1.8084080031224236e+01 5.7924378751614407e+00 1 0 1
1877 1 8.3309221692296482e+00 3.5134195140623365e+00 6.4054241312054516e-01 1 -1 0
5639 1 1.0501700515992727e+01 2.1586160605663389e+00 2.2417611136638527e-01 -1 1 1
5102 1 2.0841126353203583e+00 7.6688268576356267e+00 8.6513545378691203e-01 1 -1 0
3056 1 1.1219011211148326e+00 9.6266748945022329e-01 3.7320814209304958e+00 0 1 1
1696 1 1.1381143987031628e+01 2.4255361967837125e+01 9.3278814050604897e+00 0 0 0
3000 1 4.6244759176479873e+00 6.6822861219212690e+00 6.6478352794413065e-01 1 1 1
6615 1 1.0925237112260011e+00 8.7114436093672385e+00 3.1399918843138948e+00 0 0 1
3813 1 9.3812102827350667e+00 5.7597960493278819e+00 -1.3166464081443255e-01 0 1 0
27 1 1.0950859962303342e+01 7.8905610450537367e+00 3.9655089168537714e+00 0 -1 0
416 1 2.5835179497899734e+00 1.1564436434035429e+01 1.4324237850228227e+00 -1 0 0
2056 1 8.2197088390815090e+00 8.3524195037726692e+00 1.1840955089328940e+01 0 0 0
3440 1 1.2383796529090283e+01 6.1849158695129036e+00 2.4080744573251986e+00 -1 1 0
6729 1 7.1481187417449643e+00 8.5952336957047972e+00 3.7543846932026192e+00 1 0 1
1498 1 1.1766795937160676e+01 2.2335148684993868e+01 2.1133167650661329e+00 1 -1 0
3215 1 9.1179350347605457e+00 8.4647550565079417e+00 1.5630307108672297e+00 1 0 1
4925 1 4.1422639898349676e+00 1.4076119005912288e+01 6.6887542337963168e-01 0 2 1
3107 1 2.0714001237488624e+00 1.4909393585311424e+01 2.7833220805902057e+00 0 0 1
4775 1 1.0128514715982130e+01 1.3009306695194526e+01 1.5603308615632843e+00 0 2 1
5291 1 6.2765886384905514e+00 1.5417295860100122e+01 2.3429344124515086e+00 1 1 0
3611 1 1.1867977038739058e+01 1.9164372742329412e+01 1.0508546438362982e+01 0 1 0
3613 1 7.8619517965480794e+00 1.6481428792471174e+01 -2.1365503477431214e-02 0 1 0
5467 1 7.2576861304443678e+00 1.9275476466508678e+01 3.1885450964009904e-01 0 -1 0
3759 1 2.5537637890582801e+00 1.7330512646398013e+01 9.2492065378796529e-01 1 0 0
3259 1 4.6951684003871632e+00 1.9216522310000929e+01 1.4461734685334369e+00 -2 0 1
3882 1 9.3476960829584552e+00 1.8065852075253336e+01 2.6347447352517221e+00 1 0 1
1693 1 1.0742381579537424e+01 1.6584198976976136e+01 5.7057793381623698e+00 -1 1 0
2249 1 1.1139968480059240e+01 1.6424872395522016e+01 1.0919563515570438e+00 0 1 1
4964 1 1.9773698247305000e+00 2.1411770818234167e+01 1.3472839074050995e+00 1 0 1
3950 1 4.6891830833955881e+00 2.3765685001593006e+01 1.2545792244793381e+00 0 1 1
3939 1 4.7661899297294275e+00 2.1615696808540807e+01 2.6787853369808947e+00 0 0 0
3661 1 9.0891638614887391e+00 2.1001947513043635e+01 1.6961815742522277e+00 2 -1 0
6542 1 1.2288122967361957e+01 1.4128784527286715e+01 8.9424716608531281e+00 3 0 1
3313 1 1.4104365436506596e+00 2.7279841947947001e+00 1.1485782091871092e+01 0 2 1
1900 1 2.0073090370316882e+00 2.9901439127187150e+00 6.8555370776148097e+00 -1 0 1
3240 1 5.3840938107083485e+00 2.3683757505735727e+01 6.8937967407533725e+00 1 0 1
1591 1 4.9525266058789841e+00 4.1613436823068799e+00 3.5892682099955162e+00 -1 0 0
232 1 7.4595316659935804e+00 1.1218254508140859e+00 4.0570690716143352e+00 0 -1 0
3725 1 9.2307475324093051e+00 2.6999774030946662e+00 7.8594024280608812e+00 1 -1 0
1610 1 7.6311318211060968e+00 3.5230031520249381e+00 3.3136595768066033e+00 -1 1 1
227 1 1.0094490347136162e+01 1.1091949112783830e+00 4.9073793363437286e+00 1 0 0
1501 1 2.6302348376669591e+00 7.5840688478995135e+00 4.7966237194802721e+00 -1 0 1
3430 1 5.0266265262913201e+00 7.1806579232141425e+00 3.3731007986534802e+00 1 -1 0
1443 1 8.8509046943426188e+00 7.0698408947881823e+00 5.4535949562755732e+00 0 1 1
3766 1 9.5449887259434583e+00 4.0052255003975565e+00 5.4192653370685813e+00 -1 1 0
422 1 7.2587196431976384e+00 1.0946110915378573e+00 1.1253608361372493e+01 3 1 0
324 1 3.9551655610053218e+00 1.1963018844568419e+01 4.2886125334290330e+00 1 0 0
3316 1 2.3610703481664417e+00 1.0590910864982687e+01 6.0704496975862190e+00 1 1 1
6647 1 3.7672182278761470e+00 8.9523973204809959e+00 7.4590314647621998e+00 0 1 0
3034 1 6.4669172902678813e+00 1.0197107409416846e+01 6.7901886586581748e+00 -1 0 1
5048 1 6.6006161636969880e+00 1.1314399274307577e+01 3.9460172988880435e+00 -1 0 1
6619 1 1.2024489814282672e+01 5.4065896110844829e+00 6.1433410642101141e+00 0 -1 1
6673 1 8.5052146443961139e+00 8.8028523188309933e+00 7.3775619840417948e+00 0 1 1
3822 1 1.1330104292240717e+01 1.0016838607150040e+01 8.0128012529525492e+00 1 -1 0
3405 1 1.1322502071597548e+01 6.8503421972041538e+00 8.0974226320321741e+00 1 1 1
565 1 3.8800618418429300e+00 1.4707914854240220e+01 4.9181143065740303e+00 0 0 1
117 1 7.4759593181772948e+00 1.3868773006829326e+01 4.1160891136983944e+00 1 0 0
3134 1 6.0267700127681056e+00 1.2737642461914286e+01 8.3808388849975373e+00 0 2 1
1689 1 6.1457092745878015e+00 1.4814460875026031e+01 6.3443945142764084e+00 1 0 0
2187 1 9.9929897448000524e+00 1.3833418707732655e+01 5.5272799143310927e+00 1 0 0
346 1 1.1423166484740099e+01 1.2393243594186709e+01 3.9842358129508808e+00 -2 -1 0
6574 1 3.7351605158491914e+00 1.8742650410396156e+01 5.8498863339908818e+00 0 0 1
3435 1 8.0389298234238116e-01 1.8598530559739412e+01 8.3400490133721767e+00 1 0 1
2293 1 7.6364000755837473e+00 1.7618716502823698e+01 4.5929003627710383e+00 1 0 0
1738 1 4.8843832792970030e+00 1.7504313947983853e+01 3.6204742682621132e+00 -1 0 1
1830 1 7.1857920686107448e+00 1.7557045368841795e+01 7.5300711692097630e+00 0 0 0
5230 1 4.6883271348313125e+00 1.8127533345603226e+01 8.5175536438786494e+00 0 0 0
3164 1 8.1026434074510050e+00 2.4097203982731848e+01 3.2292426703688726e+00 1 -1 1
2239 1 7.4972211047570418e+00 2.1664433710995645e+01 3.6645077396734189e+00 1 1 0
6333 1 1.1305315060519568e+01 1.7246234993625645e+01 8.2539425810205884e+00 0 -2 1
473 1 5.0448371183983953e-01 5.3019756193589282e+00 3.3955098724969295e+00 0 0 1
3906 1 1.0031046989068451e+00 2.0775807826026956e+01 4.1411033603122611e+00 1 0 0
5249 1 7.9267525026218113e+00 2.2115650155477550e+01 6.4256543283947387e+00 0 -1 0
5244 1 1.0695259536797241e+01 8.4872487537399643e-01 9.5275316958445941e+00 1 -1 0
3756 1 3.4536342053759093e+00 2.1621794524339318e+01 5.5022669906660662e+00 1 -1 0
3365 1 1.0646155136688973e+01 2.2961304141245659e+01 6.9158282884339544e+00 0 -1 1
2153 1 3.3185729665110926e+00 2.8665455186276989e+00 9.1105426433505983e+00 1 1 0
5661 1 5.8170338125561969e+00 1.8550092198324897e+01 1.1138768994669409e+01 0 -1 1
381 1 6.5280041500272343e+00 2.4582971375228069e+00 8.8542696945068577e+00 -1 -1 0
216 1 6.2500275395776086e+00 2.1849276271769366e+01 1.1045262675231189e+01 0 0 0
6482 1 1.1933678110393990e+01 4.3393181222848005e+00 1.7871611008900451e-01 0 0 1
1637 1 1.7069609313782055e+00 5.7582127233007396e+00 6.7000380298641691e+00 1 -1 0
6356 1 3.0974438687934605e+00 5.9353497177773393e+00 9.4073259668350975e+00 1 0 1
3649 1 6.0149915198205122e+00 4.9620453577349970e+00 1.0175809701901773e+01 1 0 1
5151 1 8.9005056636111295e+00 2.0977359151752815e+01 1.1132814915387346e+01 0 0 0
2104 1 1.0108819702041655e+01 4.6507668887972065e+00 1.0045548033477079e+01 1 1 0
3732 1 2.6259717036728376e+00 8.8079893240737128e+00 9.9321796537736837e+00 1 1 0
1996 1 1.7548397104937226e+00 1.1991409817695128e+01 9.6207076667730380e+00 0 0 0
1401 1 8.3488495407155554e+00 6.7444283240534828e+00 9.3502065925671101e+00 0 0 1
6557 1 4.4020764300654425e-01 1.9358942514531986e+01 1.8789986017696467e+00 0 1 0
2310 1 1.0808576209691106e+01 2.2742955227930395e+01 1.1553664139355416e+01 0 0 1
3575 1 9.5639851064695218e+00 1.0612251571000083e+01 1.0474638198280356e+01 -1 1 1
4765 1 1.1420165984479267e+01 1.5228912703997002e+01 1.1395467942046215e+01 -1 1 1
3926 1 2.8252260927970778e+00 1.6178398943910807e+01 9.0445426319366291e+00 0 0 1
3526 1 1.2426179841408684e+01 1.0200623491625670e+01 5.0898257191874139e+00 0 0 0
2298 1 1.5428551190549591e+00 1.5012597493647531e+01 6.4043808240640407e+00 1 1 1
3369 1 3.9209363386091929e+00 1.3733124858300410e+01 9.8107762783118950e+00 2 1 0
3035 1 8.5732603034539974e+00 1.3605197019797973e+01 9.7908036114252148e+00 0 0 1
2084 1 8.9146879693875221e+00 1.6261330020664335e+01 9.6406015388182489e+00 1 1 0
314 1 1.0467608787993976e+01 1.2650607939430563e+01 7.8946960085188920e+00 0 0 0
3985 1 3.5122513812662257e+00 1.9616641700372215e+00 5.0385852699166351e+00 0 0 1
1384 1 5.6773280406812425e+00 1.1544580430972156e+00 6.1317344998854599e+00 0 2 1
3963 1 4.9959172427557048e+00 1.6210821398594322e+00 -3.9907764844814023e-02 1 1 1
1335 1 1.6947150160147635e+00 2.0886633055671673e+01 9.8331707222291804e+00 0 0 1
6406 1 8.9459438234169610e+00 1.9858350373645301e+01 8.3602730723327774e+00 1 0 1
6346 1 4.4836411162166812e+00 2.0999448469701587e+01 8.6851866367864510e+00 0 0 1
3025 1 1.1412931955496971e+01 1.9683126868313582e+01 3.5158256226038862e+00 -1 1 1
4705 1 1.1376336613511848e+01 1.9857330641645706e+01 6.3596200090499098e+00 0 1 1
2147 1 1.9000215327084784e+00 5.6089105502660122e+00 1.1666831619480979e+01 0 0 0
33 1 5.8193987354329071e+00 2.4505293143089812e+01 1.0245838391584718e+01 0 -1 0
3258 1 3.8879677458840023e+00 2.5558621876666190e+00 1.3061881992976007e+01 1 1 0
3802 1 1.1075205228672104e+01 1.6971387501179147e+00 1.9753156629635853e+01 1 1 1
5252 1 1.8543398649605543e+00 5.8484250984859267e+00 1.9438969933799104e+01 1 1 0
3827 1 7.6458242385917998e+00 1.2029017099851482e+00 1.5860632938824853e+01 1 1 1
5510 1 6.5604521789040104e+00 2.1509860581054805e+00 1.3666426535603348e+01 1 1 0
319 1 9.9677807353573513e+00 2.7337886163393019e+00 1.5918908429872324e+01 -1 0 0
5032 1 2.9839497229177581e+00 5.5002811690505835e+00 1.4194830796215347e+01 1 1 0
3834 1 6.8139773676253590e-01 2.4098981518700402e+01 1.6776772725124818e+01 1 0 0
3676 1 6.8073267771881660e+00 4.8332562856883419e+00 1.2813859848364684e+01 1 0 0
6380 1 5.5258075154708877e+00 6.2843012735357684e+00 1.4486546202245043e+01 0 1 1
3797 1 1.0894698884748822e+01 2.8654521646350570e+00 1.3300534932158440e+01 2 0 0
6404 1 9.3276116581122963e+00 5.0810054550967685e+00 1.2619415549681223e+01 0 0 0
3404 1 1.0389362660740275e+01 2.4428256967262708e+01 1.3217529451300976e+01 1 0 1
6663 1 2.2208002469024604e+00 1.0352148651162516e+01 1.4215143431888535e+01 0 0 1
596 1 4.0581444812005207e-01 2.3309449780228942e+01 1.3018600487668314e+01 0 -1 1
6462 1 7.0573034570337692e+00 8.6199858083045218e+00 1.4330574594402396e+01 0 2 1
4730 1 4.3624479607459259e+00 9.4372238069891878e+00 1.5880717184799661e+01 1 1 0
2131 1 3.7562642883116575e+00 3.8969389124623288e-01 1.7819437675911193e+01 1 1 0
1525 1 8.7419845248436658e+00 1.7791583883486354e+01 2.3682375252988937e+01 0 -2 1
1499 1 1.9752477428638053e+00 2.2717928691612443e+01 2.3266527112628903e+01 0 1 1
3502 1 3.7185117942899062e+00 1.5464122276025394e+01 1.5148572623984755e+01 0 0 1
6337 1 3.2503831696434942e+00 2.4450706599478604e+01 1.3349880572168276e+01 1 -1 1
5508 1 9.9027717343776551e+00 1.3553284912263669e+01 2.3822276191559116e+01 0 0 0
330 1 1.0288399433298917e+01 4.2721139297347275e+00 2.3381251571872717e+01 0 1 0
358 1 6.7455506512036276e+00 1.4649608392766110e+01 1.3078114290091621e+01 0 0 0
3887 1 5.0510516653381412e+00 1.4920964164544976e+01 2.3082117960789674e+01 0 0 0
3473 1 6.9298612414368685e+00 1.5552040057672833e+01 1.5423920462363029e+01 0 1 1
6454 1 1.0566095441860098e+01 1.2121656282047418e+01 1.4815020228285210e+01 0 1 1
93 1 3.7857505169612593e+00 1.8722000631487361e+01 1.5558880565551972e+01 1 1 0
2060 1 3.8738171812700695e+00 1.9480932145889614e+01 1.2875372783264146e+01 0 1 0
6731 1 9.7048265879339435e-01 2.1859289425122508e+01 1.5631864240265443e+01 1 0 1
1720 1 2.3514168585589976e+00 7.5134078672361426e-01 2.0643441862520341e+01 2 1 0
1574 1 1.0996411921991516e+01 7.6414066107962766e+00 1.2996518942504313e+01 0 1 1
5192 1 4.8730830521183828e+00 2.1937831199730400e+01 1.3593860715356078e+01 2 0 0
5122 1 6.5944187204163462e+00 2.2017058757611316e+01 1.5614729325582680e+01 1 0 0
1566 1 1.1206402286687380e+01 1.3213782859394602e+01 1.9264191915924226e+01 1 1 1
1866 1 1.1293538533442232e+01 2.2431884192213747e+01 1.7056867891069007e+01 1 0 0
5319 1 2.1083656513183318e+00 1.2316894778256835e+00 2.3467302672086181e+01 1 0 0
4758 1 2.0387773402643141e+00 3.7126225142682050e+00 1.6436339499767147e+01 1 -1 1
6636 1 2.8657580228677251e+00 1.3583900568452552e+00 1.5388498759800068e+01 1 1 1
1507 1 4.5699335652481183e+00 4.1418054899054386e+00 1.7810581684320475e+01 1 1 1
446 1 5.7922656884945125e+00 1.8194695438775634e+00 1.7833030540108638e+01 0 0 0
3860 1 5.6258803396267290e+00 5.6354877433439521e+00 2.3594393911882051e+01 0 0 0
1845 1 1.3654821474266270e+00 7.7129908672999035e+00 1.5119259008827973e+01 1 1 0
1691 1 1.5915778956634472e+00 7.8294429322304318e+00 1.7789299282150871e+01 1 0 1
1576 1 6.6303885165815242e+00 5.6431375141546134e+00 1.6866419298018798e+01 1 1 1
28 1 9.9606778918880980e+00 7.5005316605822232e+00 1.5329952558683297e+01 -1 0 1
6383 1 8.3226037262142878e+00 6.2897911061201510e+00 2.3534844204195537e+01 0 0 1
1476 1 9.2322605487886502e+00 5.3773896245247279e+00 1.6816135187632998e+01 0 1 1
5515 1 1.0823490996879990e+01 5.3621056876553164e+00 1.9081020005417244e+01 0 0 0
2135 1 1.3735983041486304e+00 1.2111497219139000e+01 1.6251864443831362e+01 0 0 0
419 1 3.8328212961250112e+00 9.0305883413939654e+00 1.8978196541045445e+01 2 1 0
1931 1 8.1311772704069014e+00 1.2033771169523630e+01 1.7613434444198312e+01 1 -1 0
542 1 9.6538447552514661e+00 1.0375820878916940e+01 1.6610711356650015e+01 1 1 1
4937 1 1.1455017211967329e+01 1.0820438705495183e+01 1.8605633398918293e+01 0 0 1
4899 1 1.0718119031803552e+00 1.7183739133592542e+01 1.6002310648762986e+01 1 -1 1
2081 1 3.1546376116402435e+00 1.4670825538963779e+01 1.9360254818178234e+01 0 0 0
6589 1 6.0218419352015982e+00 1.1968103433480374e+01 1.5840888727592983e+01 1 0 1
2132 1 3.9224405430295501e+00 1.3577225698584162e+01 1.6721353729384028e+01 0 0 0
6378 1 1.1240915565729441e+01 1.5281231542150152e+01 1.7174831808558153e+01 0 1 1
1356 1 8.5935031036183407e+00 1.4447666285808257e+01 1.7404642782012111e+01 0 0 1
1649 1 2.1717947037779903e+00 1.9686153324014906e+01 1.9329536901342131e+01 1 -1 1
3069 1 2.9750081361821539e+00 2.0820019484606874e+01 1.7239217656645316e+01 1 0 1
5297 1 6.3855169368028681e+00 1.7949839359487736e+01 1.6320276124176814e+01 0 0 0
3088 1 8.2198376384309313e+00 1.9821357522616410e+01 1.5551807734753655e+01 0 1 0
5059 1 6.6595932728298850e+00 1.7712010919170591e+01 1.8902208562413907e+01 1 1 1
3636 1 1.0305246059924551e+01 2.0055518081901496e+01 1.7118341675494769e+01 0 -1 1
3504 1 8.1461565946132399e+00 8.9604699765521492e+00 2.3324725463576424e+01 1 1 0
5654 1 9.5863779488872147e+00 1.7506101433231130e+01 2.1236567348938625e+01 1 1 1
5500 1 1.3362900916748728e+00 1.1979739914914187e+01 2.3268343418954753e+01 1 0 0
5281 1 7.6101908622368821e+00 2.2524303525349371e+01 2.3544638196862383e+01 1 -1 0
1666 1 5.4615096031623862e+00 2.3570736176335359e+01 1.9749333431505416e+01 1 0 1
6714 1 4.4775169238215522e+00 2.3305621468273316e+01 1.7306493479612115e+01 2 1 0
1702 1 9.9862104097862350e+00 2.3742286760955388e+01 2.3611411596429210e+01 0 0 1
1392 1 1.1368817208674887e+01 1.7740410714817038e+01 1.2742076804945354e+01 1 0 1
3667 1 1.4109986107058738e+00 2.0528461486904813e+01 1.2447791493221489e+01 3 0 0
6448 1 8.9438438576877282e+00 1.8870050758527594e+01 1.3077155950487303e+01 1 0 1
281 1 3.2727877347695475e+00 1.6898965615425286e+01 2.2389260797289182e+01 0 -1 0
2264 1 4.6619329133366918e+00 2.7930691855781387e+00 2.0787635901687491e+01 -1 1 1
1935 1 1.1586011954461886e+01 1.0238555155169433e+01 1.2873326459210189e+01 -1 0 0
140 1 7.2600818712478086e+00 1.9444242971810846e+00 2.0390723444742516e+01 0 0 0
5501 1 7.0523781667405094e+00 1.2463180038649111e+00 2.3505740755073852e+01 1 1 0
4760 1 4.1833482768984727e+00 7.8478290803573580e+00 2.3475286854738318e+01 -1 0 1
5336 1 9.6448071317632973e+00 3.6907789280691228e+00 2.0805372500758992e+01 1 1 0
3605 1 6.3397419601681504e+00 1.1232530361036620e+01 1.3144958759210661e+01 1 -1 0
6408 1 7.3726720152539409e+00 2.1606302246623152e+01 2.1035327039002063e+01 -1 1 1
6494 1 4.5263660178907603e+00 5.7859305565742529e+00 2.0554436304142996e+01 1 0 1
1506 1 2.9983704715675326e+00 2.2135062280356113e+01 2.0953312376731020e+01 2 -1 1
5318 1 8.0650981422779182e+00 2.4301088752872442e+01 1.4628131906662652e+01 -1 0 0
4914 1 8.8978456071641414e+00 1.2840289955157736e+01 1.2574705392737659e+01 1 1 1
1408 1 7.6810877879318360e+00 5.9526338955825500e+00 2.0951047169133904e+01 0 0 1
6632 1 5.3330428786371691e+00 2.0227064708694275e+01 2.1068578003784790e+01 0 0 1
3160 1 1.1043508650023320e+01 8.0238189778353792e+00 1.9576431581206634e+01 1 0 1
4695 1 4.1783269688588947e+00 1.4069520484768445e+01 1.2587168589241402e+01 1 0 1
6434 1 4.6782970680220615e+00 1.9208663942250094e+01 2.3496342138550119e+01 1 1 1
3525 1 2.1958479461973694e+00 1.2281817038195538e+01 2.0692089207357764e+01 1 1 0
177 1 4.5833514014322567e+00 1.1087681493367201e+01 2.0873717618699988e+01 0 0 0
162 1 9.3253145341479620e+00 1.9927796901074469e+01 1.9806721630559206e+01 1 -1 1
1631 1 6.5461043357943769e+00 7.9694240425634977e+00 1.8383960429573758e+01 0 0 1
5342 1 7.6690987454346855e+00 1.1086733384642365e+01 2.0222374130729243e+01 1 0 0
127 1 5.5181964337452145e+00 9.8929822153732925e+00 2.3366027919433044e+01 1 1 0
5531 1 4.2211766961065944e+00 1.2448322138918769e+01 2.3833235156175924e+01 -1 -1 0
1787 1 8.4574758819806917e+00 8.6356237109108491e+00 2.0147407581386084e+01 1 1 0
189 1 1.2075662573728394e+01 1.8086041908402308e+01 1.7471638573812260e+01 1 0 0
12 1 5.0765966096678516e-01 1.6208151405991341e+01 2.2785031698543325e+01 1 0 0
1741 1 8.0101331648442589e+00 1.5363154144749316e+01 1.9869933965529661e+01 -2 1 1
2152 1 5.4086820439752694e+00 1.4152352253204571e+01 2.0458505379930301e+01 1 0 0
1415 1 1.1018522231453845e+01 2.3664525076945381e+01 2.1210087490291826e+01 0 1 1
2232 1 9.3861669219569759e+00 1.3263150920450451e+01 2.1001198572656516e+01 1 1 1
2252 1 8.8696760000978914e-01 1.4125307354217195e+01 1.4146485045394462e+01 -2 1 1
233 1 1.1527467149850036e+01 2.0869851367095929e+01 2.1372459259026090e+01 0 0 0
2202 1 4.0533000825511749e+00 1.7418330050603885e+01 1.9462080003629957e+01 0 1 0
39 1 3.8660251937300671e-01 1.5318016739989346e+01 2.0252158123053036e+01 -1 -1 0
5303 1 1.4063146671571709e+00 7.7818897039470256e+00 2.3333209159755388e+01 3 1 0
3594 1 4.7739066362587286e+00 2.8932105623774689e+00 2.3593045576684567e+01 1 0 0
527 1 1.2016745521173258e+01 1.8176811299473838e+00 1.7110819955059050e+01 0 1 0
6415 1 1.2161220863562830e+01 9.7986082728721993e+00 2.3949994705948669e+01 1 -1 0
3831 1 9.7885459889641684e+00 6.9601453924698375e-01 1.2204664140210840e+01 1 1 0
6480 1 2.8168357528763188e+00 1.7038794442509218e+01 1.2106155618349302e+01 0 1 1
5132 1 3.4035588226481761e-01 1.2310043943796195e+01 1.2165167081014447e+01 2 0 0
5292 1 7.6887023718431360e+00 1.6974379049174008e+01 1.2038434068896843e+01 1 0 0
604 1 3.7695779659206079e+00 1.0678245263591890e+01 1.2052542845554722e+01 0 0 1
618 2 3.0663412572465631e-01 3.1116968498721924e+00 2.6750749449388845e+01 0 0 0
620 2 3.0663412572465631e-01 3.0538588392678534e-01 2.6750749449388845e+01 0 0 0
622 2 1.5218024194384545e+00 1.0069636254130958e+00 2.6750749449388845e+01 0 0 0
629 2 1.5218024194384545e+00 2.4101191083858375e+00 2.6750749449388845e+01 0 0 0
631 2 2.7369707131522527e+00 3.1116968498721924e+00 2.6750749449388845e+01 0 0 0
633 2 2.7369707131522527e+00 3.0538588392678534e-01 2.6750749449388845e+01 0 0 0
635 2 3.9521390068657434e+00 1.0069636254130958e+00 2.6750749449388845e+01 0 0 0
650 2 3.9521390068657434e+00 2.4101191083858375e+00 2.6750749449388845e+01 0 0 0
652 2 5.1673073005798491e+00 3.1116968498721924e+00 2.6750749449388845e+01 0 0 0
654 2 5.1673073005798491e+00 3.0538588392678534e-01 2.6750749449388845e+01 0 0 0
656 2 6.3824755942935321e+00 1.0069636254130958e+00 2.6750749449388845e+01 0 0 0
679 2 6.3824755942935321e+00 2.4101191083858375e+00 2.6750749449388845e+01 0 0 0
681 2 7.5976438880068304e+00 3.1116968498721924e+00 2.6750749449388845e+01 0 0 0
683 2 7.5976438880068304e+00 3.0538588392678534e-01 2.6750749449388845e+01 0 0 0
685 2 8.8128121817206981e+00 1.0069636254130958e+00 2.6750749449388845e+01 0 0 0
716 2 8.8128121817206981e+00 2.4101191083858375e+00 2.6750749449388845e+01 0 0 0
718 2 1.0027980475435042e+01 3.1116968498721924e+00 2.6750749449388845e+01 0 0 0
720 2 1.0027980475435042e+01 3.0538588392678534e-01 2.6750749449388845e+01 0 0 0
722 2 1.1243148769148021e+01 1.0069636254130958e+00 2.6750749449388845e+01 0 0 0
761 2 1.1243148769148021e+01 2.4101191083858375e+00 2.6750749449388845e+01 0 0 0
763 2 1.2458317062862408e+01 3.1116968498721924e+00 2.6750749449388845e+01 0 0 0
765 2 1.2458317062862408e+01 3.0538588392678534e-01 2.6750749449388845e+01 0 0 0
6349 1 5.3887611947823748e+00 8.4182659100934139e+00 3.5662116502046828e+01 2 0 0
623 2 3.0663412572465631e-01 7.3211632987899922e+00 2.6750749449388845e+01 0 0 0
625 2 3.0663412572465631e-01 4.5148523328448897e+00 2.6750749449388845e+01 0 0 0
627 2 1.5218024194384545e+00 5.2164300743311065e+00 2.6750749449388845e+01 0 0 0
642 2 1.5218024194384545e+00 6.6195855573036306e+00 2.6750749449388845e+01 0 0 0
644 2 2.7369707131522527e+00 7.3211632987899922e+00 2.6750749449388845e+01 0 0 0
646 2 2.7369707131522527e+00 4.5148523328448897e+00 2.6750749449388845e+01 0 0 0
648 2 3.9521390068657434e+00 5.2164300743311065e+00 2.6750749449388845e+01 0 0 0
671 2 3.9521390068657434e+00 6.6195855573036306e+00 2.6750749449388845e+01 0 0 0
673 2 5.1673073005798491e+00 7.3211632987899922e+00 2.6750749449388845e+01 0 0 0
675 2 5.1673073005798491e+00 4.5148523328448897e+00 2.6750749449388845e+01 0 0 0
677 2 6.3824755942935321e+00 5.2164300743311065e+00 2.6750749449388845e+01 0 0 0
708 2 6.3824755942935321e+00 6.6195855573036306e+00 2.6750749449388845e+01 0 0 0
710 2 7.5976438880068304e+00 7.3211632987899922e+00 2.6750749449388845e+01 0 0 0
712 2 7.5976438880068304e+00 4.5148523328448897e+00 2.6750749449388845e+01 0 0 0
6345 1 8.4343176859627071e+00 1.2174855208301807e+01 3.5557777597957752e+01 1 0 -1
714 2 8.8128121817206981e+00 5.2164300743311065e+00 2.6750749449388845e+01 0 0 0
753 2 8.8128121817206981e+00 6.6195855573036306e+00 2.6750749449388845e+01 0 0 0
755 2 1.0027980475435042e+01 7.3211632987899922e+00 2.6750749449388845e+01 0 0 0
757 2 1.0027980475435042e+01 4.5148523328448897e+00 2.6750749449388845e+01 0 0 0
759 2 1.1243148769148021e+01 5.2164300743311065e+00 2.6750749449388845e+01 0 0 0
800 2 1.1243148769148021e+01 6.6195855573036306e+00 2.6750749449388845e+01 0 0 0
802 2 1.2458317062862408e+01 7.3211632987899922e+00 2.6750749449388845e+01 0 0 0
804 2 1.2458317062862408e+01 4.5148523328448897e+00 2.6750749449388845e+01 0 0 0
3297 1 7.5698856370599801e+00 1.5410785919133854e+01 2.4363226090464327e+01 2 0 1
636 2 3.0663412572465631e-01 1.1530629747708414e+01 2.6750749449388845e+01 0 0 0
638 2 3.0663412572465631e-01 8.7243187817629941e+00 2.6750749449388845e+01 0 0 0
640 2 1.5218024194384545e+00 9.4258965232488947e+00 2.6750749449388845e+01 0 0 0
663 2 1.5218024194384545e+00 1.0829052006221758e+01 2.6750749449388845e+01 0 0 0
665 2 2.7369707131522527e+00 1.1530629747708414e+01 2.6750749449388845e+01 0 0 0
667 2 2.7369707131522527e+00 8.7243187817629941e+00 2.6750749449388845e+01 0 0 0
669 2 3.9521390068657434e+00 9.4258965232488947e+00 2.6750749449388845e+01 0 0 0
700 2 3.9521390068657434e+00 1.0829052006221758e+01 2.6750749449388845e+01 0 0 0
6472 1 1.1465843010282207e+01 1.8060571050979554e+01 2.4332047770061703e+01 2 1 1
702 2 5.1673073005798491e+00 1.1530629747708414e+01 2.6750749449388845e+01 0 0 0
704 2 5.1673073005798491e+00 8.7243187817629941e+00 2.6750749449388845e+01 0 0 0
706 2 6.3824755942935321e+00 9.4258965232488947e+00 2.6750749449388845e+01 0 0 0
745 2 6.3824755942935321e+00 1.0829052006221758e+01 2.6750749449388845e+01 0 0 0
747 2 7.5976438880068304e+00 1.1530629747708414e+01 2.6750749449388845e+01 0 0 0
749 2 7.5976438880068304e+00 8.7243187817629941e+00 2.6750749449388845e+01 0 0 0
751 2 8.8128121817206981e+00 9.4258965232488947e+00 2.6750749449388845e+01 0 0 0
792 2 8.8128121817206981e+00 1.0829052006221758e+01 2.6750749449388845e+01 0 0 0
794 2 1.0027980475435042e+01 1.1530629747708414e+01 2.6750749449388845e+01 0 0 0
796 2 1.0027980475435042e+01 8.7243187817629941e+00 2.6750749449388845e+01 0 0 0
798 2 1.1243148769148021e+01 9.4258965232488947e+00 2.6750749449388845e+01 0 0 0
839 2 1.1243148769148021e+01 1.0829052006221758e+01 2.6750749449388845e+01 0 0 0
841 2 1.2458317062862408e+01 1.1530629747708414e+01 2.6750749449388845e+01 0 0 0
843 2 1.2458317062862408e+01 8.7243187817629941e+00 2.6750749449388845e+01 0 0 0
4958 1 9.5037410323309146e+00 1.1082085103734961e+01 2.4386785998637318e+01 0 1 1
657 2 3.0663412572465631e-01 1.5740096196625926e+01 2.6750749449388845e+01 0 0 0
659 2 3.0663412572465631e-01 1.2933785230680476e+01 2.6750749449388845e+01 0 0 0
661 2 1.5218024194384545e+00 1.3635362972167284e+01 2.6750749449388845e+01 0 0 0
692 2 1.5218024194384545e+00 1.5038518455139515e+01 2.6750749449388845e+01 0 0 0
694 2 2.7369707131522527e+00 1.5740096196625926e+01 2.6750749449388845e+01 0 0 0
696 2 2.7369707131522527e+00 1.2933785230680476e+01 2.6750749449388845e+01 0 0 0
698 2 3.9521390068657434e+00 1.3635362972167284e+01 2.6750749449388845e+01 0 0 0
737 2 3.9521390068657434e+00 1.5038518455139515e+01 2.6750749449388845e+01 0 0 0
739 2 5.1673073005798491e+00 1.5740096196625926e+01 2.6750749449388845e+01 0 0 0
741 2 5.1673073005798491e+00 1.2933785230680476e+01 2.6750749449388845e+01 0 0 0
743 2 6.3824755942935321e+00 1.3635362972167284e+01 2.6750749449388845e+01 0 0 0
784 2 6.3824755942935321e+00 1.5038518455139515e+01 2.6750749449388845e+01 0 0 0
786 2 7.5976438880068304e+00 1.5740096196625926e+01 2.6750749449388845e+01 0 0 0
788 2 7.5976438880068304e+00 1.2933785230680476e+01 2.6750749449388845e+01 0 0 0
1090 2 1.1243148769148021e+01 2.2054295870003070e+01 3.3311250550610822e+01 0 0 0
790 2 8.8128121817206981e+00 1.3635362972167284e+01 2.6750749449388845e+01 0 0 0
831 2 8.8128121817206981e+00 1.5038518455139515e+01 2.6750749449388845e+01 0 0 0
833 2 1.0027980475435042e+01 1.5740096196625926e+01 2.6750749449388845e+01 0 0 0
835 2 1.0027980475435042e+01 1.2933785230680476e+01 2.6750749449388845e+01 0 0 0
837 2 1.1243148769148021e+01 1.3635362972167284e+01 2.6750749449388845e+01 0 0 0
873 2 1.1243148769148021e+01 1.5038518455139515e+01 2.6750749449388845e+01 0 0 0
875 2 1.2458317062862408e+01 1.5740096196625926e+01 2.6750749449388845e+01 0 0 0
877 2 1.2458317062862408e+01 1.2933785230680476e+01 2.6750749449388845e+01 0 0 0
6623 1 6.9986944557655262e+00 1.6557543541246833e+01 3.5736947330585195e+01 -1 1 -1
686 2 3.0663412572465631e-01 1.9949562645544070e+01 2.6750749449388845e+01 0 0 0
688 2 3.0663412572465631e-01 1.7143251679599203e+01 2.6750749449388845e+01 0 0 0
690 2 1.5218024194384545e+00 1.7844829421084945e+01 2.6750749449388845e+01 0 0 0
729 2 1.5218024194384545e+00 1.9247984904057930e+01 2.6750749449388845e+01 0 0 0
731 2 2.7369707131522527e+00 1.9949562645544070e+01 2.6750749449388845e+01 0 0 0
733 2 2.7369707131522527e+00 1.7143251679599203e+01 2.6750749449388845e+01 0 0 0
735 2 3.9521390068657434e+00 1.7844829421084945e+01 2.6750749449388845e+01 0 0 0
776 2 3.9521390068657434e+00 1.9247984904057930e+01 2.6750749449388845e+01 0 0 0
5012 1 7.2278792062932551e+00 9.6671769794180429e-01 3.5657044816349639e+01 0 0 0
778 2 5.1673073005798491e+00 1.9949562645544070e+01 2.6750749449388845e+01 0 0 0
780 2 5.1673073005798491e+00 1.7143251679599203e+01 2.6750749449388845e+01 0 0 0
782 2 6.3824755942935321e+00 1.7844829421084945e+01 2.6750749449388845e+01 0 0 0
823 2 6.3824755942935321e+00 1.9247984904057930e+01 2.6750749449388845e+01 0 0 0
825 2 7.5976438880068304e+00 1.9949562645544070e+01 2.6750749449388845e+01 0 0 0
827 2 7.5976438880068304e+00 1.7143251679599203e+01 2.6750749449388845e+01 0 0 0
829 2 8.8128121817206981e+00 1.7844829421084945e+01 2.6750749449388845e+01 0 0 0
865 2 8.8128121817206981e+00 1.9247984904057930e+01 2.6750749449388845e+01 0 0 0
867 2 1.0027980475435042e+01 1.9949562645544070e+01 2.6750749449388845e+01 0 0 0
869 2 1.0027980475435042e+01 1.7143251679599203e+01 2.6750749449388845e+01 0 0 0
871 2 1.1243148769148021e+01 1.7844829421084945e+01 2.6750749449388845e+01 0 0 0
899 2 1.1243148769148021e+01 1.9247984904057930e+01 2.6750749449388845e+01 0 0 0
903 2 1.2458317062862408e+01 1.7143251679599203e+01 2.6750749449388845e+01 0 0 0
723 2 3.0663412572465631e-01 2.4159029094461932e+01 2.6750749449388845e+01 0 0 0
725 2 3.0663412572465631e-01 2.1352718128516731e+01 2.6750749449388845e+01 0 0 0
727 2 1.5218024194384545e+00 2.2054295870003070e+01 2.6750749449388845e+01 0 0 0
768 2 1.5218024194384545e+00 2.3457451352975450e+01 2.6750749449388845e+01 0 0 0
770 2 2.7369707131522527e+00 2.4159029094461932e+01 2.6750749449388845e+01 0 0 0
772 2 2.7369707131522527e+00 2.1352718128516731e+01 2.6750749449388845e+01 0 0 0
774 2 3.9521390068657434e+00 2.2054295870003070e+01 2.6750749449388845e+01 0 0 0
815 2 3.9521390068657434e+00 2.3457451352975450e+01 2.6750749449388845e+01 0 0 0
6352 1 7.2044057756983071e-01 2.2585005327678477e+01 3.5612682580635983e+01 1 0 0
817 2 5.1673073005798491e+00 2.4159029094461932e+01 2.6750749449388845e+01 0 0 0
819 2 5.1673073005798491e+00 2.1352718128516731e+01 2.6750749449388845e+01 0 0 0
821 2 6.3824755942935321e+00 2.2054295870003070e+01 2.6750749449388845e+01 0 0 0