LAMMPS data file via write_data, version 16 Mar 2018, timestep = 100000

6750 atoms
2 atom types

0.0000000000000000e+00 4.9219999999999999e+01 xlo xhi
0.0000000000000000e+00 4.9019635930410494e+01 ylo yhi
3.6998667204652236e-01 5.9692013327955351e+01 zlo zhi

Masses

1 18.015
2 12.01

Atoms # atomic

327 1 4.7043751369377400e+00 2.0535520657048636e+00 2.1130923043772976e+00 0 2 0
5100 1 2.9396557471126115e+00 3.2208624718516656e+00 4.2419653597793641e+00 1 0 0
3034 1 9.7771900464196033e+00 5.1413167690955630e+00 2.9431338119127424e+00 -1 0 1
5630 1 1.0525909159525788e+00 2.0816812893159026e-01 1.3307423162416578e+01 1 0 0
3143 1 7.5331975175015167e+00 3.4401081474182424e+00 2.3347254957604813e+00 -1 2 1
1427 1 1.2904850250621034e+00 2.2116779575001821e+01 1.0420505856467367e+01 1 -1 1
3497 1 1.2059433074778798e+00 9.8283789893739950e+00 4.5466296743177788e+00 0 0 1
1785 1 1.1352960378216926e+01 2.8522083925044064e+00 6.7500914135750634e+00 2 0 0
589 1 1.0911816569885231e+01 3.9622943432756936e+00 9.5909365596609533e+00 -1 1 1
393 1 1.0615976374977700e+01 1.8667745888517597e+01 2.0879970366343681e+00 0 1 0
3994 1 3.7436457507573691e+00 6.8483588370961570e+00 8.8075764639458487e-01 1 1 1
1804 1 1.9988495893462535e+00 8.9101925736429806e+00 1.9544925563825639e+00 0 0 0
6404 1 6.9500936006403231e+00 5.3744854147809411e+00 6.2038189887012987e+00 0 0 0
5453 1 6.5923865632922229e+00 6.0963989314588911e+00 1.0811535872052156e+00 0 1 0
1354 1 8.8845867419968485e+00 7.5874551812274929e+00 2.3077025050998765e+00 0 -2 0
1406 1 7.2622148348259119e-01 1.1837489248359779e+01 6.7563759793418967e+00 1 0 1
243 1 1.1482946827091231e+01 2.1477563636673530e+01 1.3952668005623188e+01 -1 1 0
6656 1 4.4439139599601223e+00 1.8442324245030939e+01 1.4526837939258229e+01 0 0 1
5509 1 4.2524923767622536e+00 1.0514776662829263e+01 1.2622242235136416e+00 2 0 0
3511 1 4.3821340546132230e+00 1.3261319653375425e+01 2.1051727999002656e+00 0 -1 1
142 1 4.0727248959190945e+00 2.0771214504175322e+01 3.9628046940445087e+00 -1 0 0
3337 1 6.9089255666818570e+00 1.3047748905795320e+01 3.0350953606992332e+00 0 0 0
1626 1 9.5154998177150532e+00 9.8774152190419677e+00 4.1981213628942733e+00 -1 0 1
459 1 3.7598620370684765e-01 2.3974982958286336e+01 1.2382936778803875e+00 0 -1 0
4769 1 1.2911944483893705e+00 2.3010194294024366e+01 1.3089833429804058e+01 2 0 1
5621 1 6.0671680505499985e+00 2.4484091157770408e+01 6.9486036912453173e+00 2 1 0
5384 1 9.2455692650278323e+00 1.0130487271716165e+01 1.4917016488870640e+01 1 0 0
2288 1 9.4927346745971555e+00 1.2135527075390684e+01 2.3353988813481026e+00 0 -1 0
3411 1 2.5128243101418946e+00 1.4045123066877158e+01 3.5327446282791075e+00 0 1 0
3919 1 2.1791801364890562e+00 1.6644536317342872e+01 2.6544434129570194e+00 0 0 1
364 1 9.4233347061609152e-01 2.2561275682891168e+01 4.5957289160865606e+00 1 0 0
543 1 4.6356394011483344e+00 1.7021563398679913e+01 3.5752100277588639e+00 -1 2 1
3116 1 1.0190313857889045e+01 1.5785200630318881e+01 5.1653716826298073e+00 -1 -1 1
1826 1 6.3714420878262485e+00 1.1764500225887899e+01 5.5934002645433063e+00 1 1 1
1335 1 7.0158374080273109e+00 1.5724485109755580e+01 2.9200438928165502e+00 0 0 1
4731 1 1.1668530212613128e+01 1.3933571361716030e+01 3.4653544107161367e+00 1 0 1
3552 1 3.7549988437681803e+00 2.3488497768601189e+01 1.4696882341131325e+01 0 1 0
4788 1 9.1240206533425035e+00 1.9972538618312171e+01 1.0414943475549340e+01 1 0 1
2259 1 3.9876571235124194e+00 2.1827110718334371e+01 9.9112096527615101e+00 0 -1 1
3091 1 1.1784244665477731e+01 1.1109285572278955e+01 1.4069339245389049e+01 1 -1 1
5056 1 1.8331702422434542e+00 1.9958076107501189e+01 2.5231559628460420e+00 0 -1 0
2131 1 8.8130041622267701e+00 1.8333381918111865e+01 3.7635310000912190e+00 1 1 0
502 1 6.0366383285471157e+00 1.8203762976109079e+01 8.6335821231501857e+00 0 0 0
2266 1 1.1475773486345551e+01 2.4065941264227309e+01 1.4601308015194702e+01 0 0 1
2026 1 2.3614878478026560e+00 2.4081563404925355e+01 6.3672753061401837e+00 2 0 0
3764 1 9.9060289523464142e+00 1.9320485005963395e+01 6.4652548279524327e+00 1 0 0
6589 1 5.6200005055920652e+00 1.5838104264335341e+01 1.4101758093659482e+01 1 0 1
514 1 6.9581389833595342e+00 1.9688609983879640e+01 1.2194382420532863e+01 0 0 1
464 1 2.4700051949113533e-01 2.5465358308129429e+00 5.2089607564008222e+00 -1 0 0
1997 1 1.2007571488167033e+01 2.2881026580938233e+01 1.0104473767875859e+01 1 0 0
6486 1 4.9061595139130656e+00 1.6862723119525551e+01 6.1348941889975901e+00 2 0 1
5441 1 7.2429413690757443e+00 2.0354141937780028e+01 3.5499844706834645e+00 1 1 0
3487 1 9.1216159879073260e+00 2.2035888217456499e+01 2.2241476780856395e+00 1 0 0
4887 1 1.1228562552632198e+01 2.2407070688559141e+01 3.8180339638568759e+00 0 0 1
6585 1 7.8168008464985048e+00 2.3591211738368330e+01 1.1155642226851082e+01 1 2 1
5478 1 5.6183931659646316e+00 2.1270054391894060e+01 1.4803278944546401e+01 1 1 0
1526 1 4.6009006998912012e+00 1.9406254432081669e+00 6.2822009679775004e+00 0 -1 0
1533 1 4.8844151680074397e+00 4.0969579539641128e+00 7.8116106644892289e+00 0 0 1
3806 1 6.9242312064355982e+00 2.5123680584489225e+00 5.1154495529707642e+00 1 0 0
2031 1 9.8571271581569420e+00 9.3051861861157936e-01 8.4415437177892070e+00 0 0 0
149 1 1.0432277763635209e+01 6.7565792134502534e+00 8.5975435440273777e+00 1 1 0
2084 1 1.4552672764521071e+00 7.1311747286968634e+00 8.3633698603318862e+00 2 1 0
3293 1 2.2484550939925234e+00 4.8050972448098319e+00 8.6854642136912332e+00 1 0 1
121 1 3.2505010419382088e+00 5.9902478431233961e+00 3.7267952754759475e+00 1 1 1
4694 1 1.5749168563465683e+00 7.1387859565016241e+00 5.4119556640698372e+00 0 1 1
4737 1 9.6133381910684133e+00 4.8913673682027037e+00 5.9960704784033698e+00 1 0 1
2218 1 5.6871370364801574e+00 7.1455852632382779e+00 4.3343536372481832e+00 0 -1 0
6690 1 6.3034434002821689e+00 6.0107408900521122e+00 9.8890412994351067e+00 0 0 0
2231 1 1.1109603833448716e+01 7.4090096827764649e+00 5.4515109206447017e+00 0 1 0
2096 1 1.1459810621482541e+01 4.6188481882668170e-01 4.9465501879643892e+00 1 1 0
3913 1 3.9328177882416764e+00 1.1486405298100777e+01 9.6309899627106663e+00 1 1 1
1606 1 1.2431070874822439e+00 1.8838811939698743e+01 1.0149410219530921e+01 0 0 1
5510 1 3.6237195882371882e+00 9.0292393167426983e+00 8.6012193153514289e+00 1 1 0
423 1 6.4916680710201309e+00 9.3517599886795022e+00 2.8387848268663496e+00 0 0 1
5579 1 5.7488127171850580e+00 8.8801959401297559e+00 6.5958588526633397e+00 1 1 1
3968 1 9.0705091039049321e+00 1.9103000579313010e+00 6.1171597772663500e-01 1 1 1
3515 1 1.1903337575313422e+01 5.5018989917911947e+00 1.3200625226240172e+01 0 0 1
1759 1 4.0765267942364938e+00 1.3964664026192859e+01 6.1125379797366142e+00 0 1 0
6339 1 4.8949418407972738e+00 1.4642906991667155e+01 1.0904125692629870e+01 1 0 1
1423 1 2.2984485158226278e+00 1.3368160678382630e+01 8.2428461564818480e+00 1 1 1
1640 1 6.5965166671141739e+00 1.2165547328615691e+01 8.7016413659642300e+00 2 1 1
2264 1 8.9255573336182525e+00 1.0493601914465918e+01 6.6281271403192710e+00 -1 1 1
2189 1 6.8391325127819620e+00 1.5661360178619775e+01 8.7333127193528295e+00 2 2 0
4918 1 9.3925621057821882e+00 1.2916007730476531e+01 7.2935171262495855e+00 0 -1 1
1619 1 4.6622053113395173e-01 2.0093203512681395e+01 5.8686995426708171e+00 2 0 0
482 1 8.5491564088450611e-01 1.5466101785638131e+01 5.8356195622113711e+00 1 1 1
1720 1 1.6240106047796039e+00 1.7434184402123503e+01 7.6581015503042895e+00 2 1 0
1687 1 7.6490485800232335e+00 1.4702817702584298e+01 5.8620324452921002e+00 -1 0 1
11 1 4.6272901236015205e+00 1.9075493957337979e+01 1.0914902630111586e+01 0 1 0
419 1 9.3147835989758718e+00 1.7178380028032809e+01 1.0052984225866963e+01 2 1 0
5411 1 1.0728117067693798e+01 1.7050205850385506e+01 7.5565464018937680e+00 1 1 0
3165 1 1.1113618998958534e+01 2.1699968378196260e+01 6.5340147480336386e+00 2 0 1
5297 1 3.6746586779283876e+00 1.9558727153941454e+01 6.6797609654442818e+00 0 0 0
1696 1 2.0428459431495505e-01 1.3072391108783583e+01 2.2504424291821725e+00 0 0 0
1699 1 7.0082381858579659e+00 2.0094753679551800e+01 6.5223615755442834e+00 1 1 1
3150 1 8.6137864058012514e+00 2.1689510648842756e+01 8.5700745525296576e+00 1 -1 1
5284 1 1.1719301572575562e+01 7.8785576026155129e+00 1.4691748956139335e+01 1 0 0
5325 1 4.0902619121230694e+00 2.3422342543762165e+00 1.1991999486457848e+01 1 1 0
436 1 1.1436071442490821e+01 2.0906372183130692e+01 1.1453333533165669e+01 2 0 0
2334 1 5.7097352258459004e+00 4.5975268910909035e+00 1.3438764435113784e+01 0 0 0
5632 1 6.2651325307391188e+00 2.3806411214786483e+00 9.9286391542134957e+00 1 0 0
6480 1 4.3941083360177577e+00 2.2359114958091482e+01 7.2349207263604054e+00 0 1 1
5218 1 1.1583290293361335e+01 2.4508925631427165e+00 1.3077922292269434e+01 1 -1 0
6738 1 9.4409398389130494e+00 2.4117982749735889e+00 1.1280344443192092e+01 1 0 1
1532 1 2.2713920719492586e+00 6.9253881418904744e+00 1.2607138043341461e+01 0 0 1
5351 1 2.1174160835607512e+00 4.3458921591331894e+00 1.1302160209052515e+01 1 1 0
80 1 4.4599809333535978e+00 7.0033569515017504e+00 1.4122866295857092e+01 0 2 1
416 1 2.1700636119465657e+00 1.9892052419142324e+01 1.3344262258686967e+01 -1 0 0
1530 1 7.7031539636992150e+00 4.7120544265299786e+00 1.1799593839007022e+01 1 0 1
6609 1 4.5922375339464274e+00 7.8302166027472984e+00 1.1036769962136908e+01 0 0 0
2111 1 8.4439953890595962e+00 7.6952605177551341e+00 1.4015263844186226e+01 1 1 0
3533 1 9.7688983636081037e+00 6.5260899037154063e+00 1.1594484379201040e+01 -1 1 0
5113 1 7.9671274650146193e+00 7.6076298772310658e+00 8.0317265208827884e+00 1 1 1
2066 1 3.7943716710521330e-01 9.7727826759976253e+00 1.2156200313497978e+01 1 0 0
2101 1 6.4162220196869981e+00 9.1720233447614454e+00 1.2317116272840147e+01 0 1 0
5149 1 4.7290710088096395e+00 1.0993448606541643e+01 1.3486571245004614e+01 1 0 1
5200 1 7.3855921406923457e+00 9.8573604937484056e+00 1.0027672163777705e+01 0 1 1
1313 1 1.0257146373869833e+01 9.7592685482001009e+00 1.0130542437167524e+01 0 0 1
1844 1 1.5017307316159170e+00 1.5178393172811120e+01 9.7858220975080332e+00 1 0 0
1801 1 2.1080742957494758e+00 1.3968158874788390e+01 1.3293312709242530e+01 -1 1 0
424 1 2.4966716428368918e+00 1.1583754696556772e+01 1.2066010881550277e+01 1 1 0
568 1 6.7492790726533169e-01 2.4224959382713038e+01 8.3896180170895853e+00 -1 1 1
4883 1 6.4928367619346705e+00 1.2834589640107641e+01 1.2783795520908289e+01 1 0 1
2223 1 8.8687483741334106e+00 1.2573805694975336e+01 1.1504473188590181e+01 0 1 0
5162 1 1.0006338012605134e+01 1.4195556677705252e+01 9.6502431750105853e+00 1 0 1
3853 1 1.0989183389246323e+01 1.3421857201758966e+01 1.3248840405125318e+01 0 0 0
3633 1 8.8026067213716663e-01 1.7261847842711397e+01 1.3794087832336839e+01 1 -1 0
2184 1 3.1768241595168956e+00 1.6577887087207177e+01 1.1853128423771659e+01 1 -1 0
5155 1 3.2126380011910016e-01 1.8094281960095973e+01 3.9622436224550159e+00 0 -1 0
115 1 5.1545636249549878e+00 2.4028942817072480e+01 1.1870218917947835e+01 1 1 0
429 1 1.1042336794040985e+01 4.7760098928402189e-01 1.9571531610045636e+00 2 1 0
1694 1 7.8008137812549529e+00 1.7056431091221654e+01 1.2903738578664715e+01 0 0 1
3724 1 5.5893258245015209e+00 1.8889067295813916e+01 1.8564262714762194e+00 -1 0 0
5619 1 9.6875620483049083e+00 1.7398802070937393e+01 1.4646201538437145e+01 1 0 1
3354 1 1.1343336491659237e+01 1.6416197174531316e+01 1.2157760892550961e+01 1 0 0
4845 1 1.1853041820304369e+01 9.7962123759867819e+00 7.3982323250951323e+00 2 0 1
3474 1 1.1956578654409890e+01 1.5992792693189815e+01 1.3625809828288533e+00 1 0 0
3303 1 8.3591571134592648e+00 1.2683410814379417e-02 4.1459107619704518e+00 1 0 1
1580 1 7.2245672937755918e+00 2.3921117488841364e+01 2.3974899007820731e+00 0 0 0
3043 1 5.0374157991556539e+00 2.2825238409555244e+01 2.1698822501592523e+00 0 0 1
6611 1 3.6566305387628186e+00 6.0520211756555831e-01 1.4497723500192761e+01 2 0 1
6680 1 9.1275270812528997e-01 5.7924307174921248e+00 1.6161283145612355e+01 1 -1 1
4695 1 1.7347137270959732e+00 2.1122273994084937e+00 1.6243890566997393e+01 1 0 1
1582 1 1.6775528017234267e+00 1.7410205548826616e+00 1.9138147764418438e+01 1 1 0
1739 1 7.3033939283898901e+00 4.0254156081310315e+00 1.9052957057047895e+01 1 1 0
3689 1 5.9109030602912274e+00 3.5159978219834129e+00 1.5823514833568630e+01 1 2 0
5228 1 1.1389922123900960e+00 2.4822709457712198e+00 2.3429584928481322e+01 0 0 0
1404 1 9.4626239980425453e+00 4.7565541410148802e+00 1.7140580771843187e+01 1 2 1
575 1 1.0317408554125274e+01 2.5380529232856226e+00 1.5869990869026237e+01 1 -1 1
274 1 3.5881047652273685e+00 4.5366152265608317e+00 1.7027828117708140e+01 1 1 0
863 2 8.6135000000000002e+00 2.2023314693372832e+01 2.6805938309662420e+01 0 0 0
3835 1 3.4065611777492042e+00 8.4102155862747168e+00 1.6393278568262936e+01 1 0 0
5585 1 5.3178110040868010e+00 7.2648098580229723e+00 1.7767982548683641e+01 1 2 1
6415 1 7.3744392967768793e+00 6.1068369214466633e+00 1.6103478915520803e+01 1 -1 0
1561 1 1.0861491747601663e+01 7.2502736559824221e+00 1.7411568267857987e+01 0 1 1
4976 1 1.1138457022771600e+00 8.2157672993583972e+00 1.7840830466083059e+01 0 0 1
3365 1 4.0202473320503298e+00 1.1055857365038342e+01 1.6051247394392760e+01 0 0 1
861 2 7.3829999999999991e+00 2.1312885187134999e+01 2.6805938309662420e+01 0 0 0
3860 1 6.9830407368530727e+00 9.3598235069671372e+00 1.8543872397505496e+01 0 0 0
3430 1 6.1845000852806855e+00 1.1802029874214799e+01 1.7462371030852349e+01 1 -1 0
186 1 9.7301045032127416e+00 9.6955089628976392e+00 1.8161619759961606e+01 0 0 0
6725 1 3.0150408681518295e+00 1.5201395037238912e+01 1.5946157272775144e+01 0 0 1
6591 1 1.9762234191359824e+00 1.2372265953961383e+01 1.6182515623861669e+01 0 0 1
50 1 6.4799958689196147e-01 2.1409442587937587e+01 1.8924697130970511e+01 0 1 0
893 2 9.8440000000000012e+00 2.4154603212086336e+01 2.6805938309662420e+01 0 0 0
6428 1 5.6766818258053897e+00 1.5451802643310621e+01 1.7225841058438672e+01 1 1 1
3227 1 5.2673743240185189e+00 1.3906662948121449e+01 1.9393368798694926e+01 1 1 1
609 1 6.6260519158611109e+00 1.2608871737225774e+01 2.1291427570922664e+01 1 1 1
5043 1 1.1500953070200056e+01 5.7725677688018200e+00 2.0077987776044047e+01 1 0 1
4905 1 1.0212758201813507e+01 1.2412810423468178e+01 1.8614595826191465e+01 -1 1 1
3617 1 8.5663413282818155e+00 1.6669067451055000e+01 1.9252737214580282e+01 1 -1 1
19 1 2.4327760928645672e+00 2.0783139977548661e+01 1.6551895836651358e+01 1 1 1
3945 1 2.9167772257476066e+00 1.8679142879753570e+01 1.8565575787110514e+01 0 0 1
6641 1 7.1967484941345203e+00 2.0051675972581549e+01 1.7586798524263902e+01 1 0 0
6562 1 5.5082255232236914e+00 1.7748298832710088e+01 1.7884406747857408e+01 1 -1 0
225 1 8.5556621246713380e+00 2.1244427990646717e+01 2.0192824442520671e+01 1 1 0
5226 1 9.9658315943955049e+00 1.8845295503436123e+01 1.9134479319255064e+01 0 0 0
5412 1 1.1750252363863090e+01 1.9932260323797401e+01 1.7361695057145820e+01 1 1 0
2132 1 4.7795054321751387e+00 2.2124665013833599e+01 1.7775075423745612e+01 0 0 0
897 2 1.1074500000000002e+01 2.2023314693372832e+01 2.6805938309662420e+01 0 0 0
821 2 6.1524999999999990e+00 2.2023314693372832e+01 2.6805938309662420e+01 0 0 0
1477 1 8.6411986454213174e+00 2.3366205552203418e+01 1.8064435209762390e+01 1 -1 1
3513 1 8.5869466539831940e+00 1.9865123511436060e+00 2.4263027608221226e+01 1 0 0
1399 1 8.3541192633086006e+00 1.5670561016328845e+01 1.6571788034748991e+01 0 0 1
1581 1 3.0798968762959218e+00 4.4088886181162232e+00 1.9719703648974484e+01 0 2 1
819 2 4.9220000000000006e+00 2.1312885187134995e+01 2.6805938309662420e+01 0 0 0
859 2 7.3830000000000009e+00 2.4154603212086336e+01 2.6805938309662420e+01 0 0 0
3885 1 7.3058020584566981e+00 1.2619453603966322e+01 1.5367725669844850e+01 0 0 1
65 1 3.7637120033623170e+00 2.3261205145950332e+00 2.4548136648577039e+01 -1 1 1
236 1 8.2444145006566334e+00 4.7788896299657075e+00 2.3705456080317933e+01 0 1 0
3749 1 1.2085265656936954e+01 1.0505950424475590e+00 1.9225061328123932e+01 0 0 0
1691 1 5.9901438750167575e+00 1.8167491352662848e+00 2.0484638861538656e+01 0 0 1
2247 1 1.0100028597764870e+01 1.4394472008610961e+00 2.0664599302162316e+01 0 2 1
5342 1 9.4321223369069696e+00 4.0429595809440837e+00 2.0961789749223378e+01 1 0 0
917 2 1.1074500000000002e+01 2.3444173705848499e+01 2.6805938309662420e+01 0 0 0
5242 1 1.4068931924644446e+00 8.6109577412338680e+00 2.0702838503369779e+01 1 0 0
5152 1 1.6735760771551333e+00 5.8380691190916956e+00 2.1285462891318510e+01 -1 0 0
6483 1 3.4649775108786272e+00 5.1374920816162488e+00 2.4087156851873484e+01 1 0 0
427 1 1.2302310558343628e+00 8.1665625080219399e+00 2.3997694789605447e+01 0 0 1
330 1 5.6895981341770572e+00 5.5648290514413503e+00 2.0302535875833005e+01 0 1 0
5676 1 6.1128858060839741e+00 6.2292888965811564e+00 2.3016188345505199e+01 1 0 1
2201 1 6.1148292827985884e+00 9.0497355571404086e+00 2.3300050912042437e+01 -1 0 1
3737 1 1.0098221671481765e+01 8.1706996902105757e+00 2.0778858971672324e+01 1 -1 0
6745 1 9.7519368385248022e+00 6.8939672510195331e+00 2.4385143116814099e+01 1 1 0
1827 1 8.8714105927404212e+00 9.4005462314941735e+00 2.2819812084430037e+01 0 1 1
817 2 4.9220000000000006e+00 2.4154603212086325e+01 2.6805938309662420e+01 0 0 0
5132 1 3.2365931282223639e+00 1.0725437108149166e+01 2.0941675807283893e+01 2 0 0
6383 1 3.6133201610750936e+00 9.6069494316612349e+00 2.4245176438996044e+01 0 0 1
4923 1 2.9552413292083757e+00 1.2692540696367377e+01 1.8908059770256845e+01 1 1 1
6663 1 2.9065121223380624e-01 1.2254631743348556e+01 2.4416210685979781e+01 0 0 1
5076 1 5.8870055390818949e+00 1.0112921956228261e+01 2.1021143054574825e+01 1 2 1
1434 1 2.9602249150903948e+00 1.2234463450283013e+01 2.3482019791644571e+01 0 -1 1
5565 1 5.5828327421578985e+00 1.4045387963318674e+01 2.3297495207301122e+01 0 1 1
5369 1 9.2803962467701808e+00 1.2936848831094617e+01 2.0849274931953438e+01 0 1 0
6549 1 9.9475609358913992e+00 1.1916924211750182e+01 2.3380827469761119e+01 2 -1 1
5474 1 7.8759521814339317e+00 1.3941692449487890e+01 2.4619026553902255e+01 0 0 0
3831 1 3.5370735718516721e-01 1.3436901112961642e+01 2.0188020375243770e+01 1 1 0
3941 1 1.4564053511150086e+00 1.7233084430325782e+01 1.6562304887739892e+01 0 0 1
1441 1 1.1616730076296344e+00 1.6596727318495255e+01 2.3539101809694298e+01 1 1 1
5506 1 4.6572876763211637e+00 1.5775052184279893e+01 2.1154178333937004e+01 0 0 0
3069 1 3.8436194558050021e+00 1.7236139980318178e+01 2.4356765872161478e+01 1 0 1
5264 1 1.0102003883811914e+01 1.5515520962686896e+01 2.1155127549797847e+01 0 0 1
3447 1 9.0096622922288052e+00 1.6472898261309574e+01 2.3769589415122041e+01 0 1 0
895 2 9.8440000000000012e+00 2.1312885187134999e+01 2.6805938309662420e+01 0 0 0
5051 1 3.7007451295464069e+00 2.1366140778009314e+01 2.0143867773564011e+01 1 1 0
3834 1 2.2309386711960024e+00 1.6998365666003149e+01 2.0742251098288492e+01 1 0 0
3248 1 2.4954216335906989e+00 1.9533508365494242e+01 2.2243697063881996e+01 1 -2 1
2317 1 1.1301710722660556e-01 1.0601894439834869e+01 1.7052496323345242e+01 1 0 0
1733 1 6.6843471481349299e+00 1.7326766569340368e+01 2.3340928592048332e+01 0 1 1
3217 1 6.2728718182407839e+00 1.7886080869784198e+01 2.0602813053329541e+01 0 2 1
3611 1 6.6574190463705323e+00 1.9772379178188238e+01 2.4033333850900068e+01 0 1 0
234 1 6.0621376778994449e+00 2.0725988952880119e+01 2.1396152499627295e+01 0 0 0
1320 1 1.1655675545635132e+01 1.9164730952717044e+01 2.1329674366402223e+01 1 0 1
1888 1 1.0035151108091691e+01 2.2319938773856219e+01 2.2480507462599618e+01 0 -1 0
3178 1 1.0912351446402994e+01 1.8678015543241617e+01 2.3957083869182938e+01 0 -1 0
5202 1 9.2476648286429732e+00 2.0703231461118179e+01 2.4482337321384112e+01 0 1 0
2990 1 2.7753376609930855e+00 2.3850531892719065e+01 2.1016572772804356e+01 2 -1 1
570 1 4.1541433491360280e+00 2.0478554133497454e+01 2.4278753170492024e+01 -1 1 1
3284 1 4.4277129379930029e+00 2.3275943298900948e+01 2.3565683144253917e+01 1 1 0
3660 1 7.2425693027284836e+00 2.3794378437100857e+01 2.2435430754990257e+01 2 0 0
1596 1 1.0845164075354988e+01 1.0424793565328456e+00 2.3418159163263837e+01 1 0 1
3686 1 1.6303580061009009e+00 2.4222155996662803e+01 2.3812395860254309e+01 2 0 0
2148 1 1.0215877031715745e+01 1.3971166740667309e+01 1.6113868381407443e+01 1 0 0
891 2 8.6134999999999984e+00 2.3444173705848499e+01 2.6805938309662420e+01 0 0 0
3088 1 5.0762896915752220e-01 5.3888347353011179e+00 2.4292866294715150e+01 0 1 0
126 1 7.8139057340528772e+00 6.3645463364269250e-01 1.8783625583092487e+01 1 0 0
618 2 0.0000000000000000e+00 2.8417180249513345e+00 2.6805938309662420e+01 0 0 0
620 2 0.0000000000000000e+00 0.0000000000000000e+00 2.6805938309662420e+01 0 0 0
622 2 1.2305000000000001e+00 7.1042950623783474e-01 2.6805938309662420e+01 0 0 0
629 2 1.2305000000000001e+00 2.1312885187134998e+00 2.6805938309662420e+01 0 0 0
631 2 2.4610000000000003e+00 2.8417180249513345e+00 2.6805938309662420e+01 0 0 0
633 2 2.4610000000000003e+00 0.0000000000000000e+00 2.6805938309662420e+01 0 0 0
635 2 3.6915000000000004e+00 7.1042950623783474e-01 2.6805938309662420e+01 0 0 0
650 2 3.6914999999999996e+00 2.1312885187134998e+00 2.6805938309662420e+01 0 0 0
652 2 4.9220000000000006e+00 2.8417180249513332e+00 2.6805938309662420e+01 0 0 0
654 2 4.9220000000000006e+00 0.0000000000000000e+00 2.6805938309662420e+01 0 0 0
656 2 6.1524999999999999e+00 7.1042950623783407e-01 2.6805938309662420e+01 0 0 0
679 2 6.1524999999999999e+00 2.1312885187134989e+00 2.6805938309662420e+01 0 0 0
681 2 7.3829999999999991e+00 2.8417180249513345e+00 2.6805938309662420e+01 0 0 0
683 2 7.3829999999999991e+00 0.0000000000000000e+00 2.6805938309662420e+01 0 0 0
685 2 8.6134999999999984e+00 7.1042950623783407e-01 2.6805938309662420e+01 0 0 0
716 2 8.6134999999999984e+00 2.1312885187135002e+00 2.6805938309662420e+01 0 0 0
718 2 9.8440000000000012e+00 2.8417180249513332e+00 2.6805938309662420e+01 0 0 0
720 2 9.8440000000000012e+00 0.0000000000000000e+00 2.6805938309662420e+01 0 0 0
722 2 1.1074500000000002e+01 7.1042950623783330e-01 2.6805938309662420e+01 0 0 0
761 2 1.1074500000000002e+01 2.1312885187135002e+00 2.6805938309662420e+01 0 0 0
623 2 0.0000000000000000e+00 7.1042950623783341e+00 2.6805938309662420e+01 0 0 0
625 2 0.0000000000000000e+00 4.2625770374269996e+00 2.6805938309662420e+01 0 0 0
627 2 1.2305000000000001e+00 4.9730065436648339e+00 2.6805938309662420e+01 0 0 0
642 2 1.2305000000000001e+00 6.3938655561404980e+00 2.6805938309662420e+01 0 0 0
644 2 2.4610000000000003e+00 7.1042950623783341e+00 2.6805938309662420e+01 0 0 0
646 2 2.4610000000000003e+00 4.2625770374269996e+00 2.6805938309662420e+01 0 0 0
648 2 3.6914999999999996e+00 4.9730065436648339e+00 2.6805938309662420e+01 0 0 0
671 2 3.6914999999999996e+00 6.3938655561404980e+00 2.6805938309662420e+01 0 0 0
673 2 4.9220000000000006e+00 7.1042950623783341e+00 2.6805938309662420e+01 0 0 0
675 2 4.9220000000000006e+00 4.2625770374269978e+00 2.6805938309662420e+01 0 0 0
677 2 6.1524999999999999e+00 4.9730065436648339e+00 2.6805938309662420e+01 0 0 0
708 2 6.1524999999999999e+00 6.3938655561404980e+00 2.6805938309662420e+01 0 0 0
710 2 7.3830000000000009e+00 7.1042950623783341e+00 2.6805938309662420e+01 0 0 0
712 2 7.3829999999999991e+00 4.2625770374269996e+00 2.6805938309662420e+01 0 0 0
714 2 8.6135000000000002e+00 4.9730065436648339e+00 2.6805938309662420e+01 0 0 0
753 2 8.6135000000000002e+00 6.3938655561404980e+00 2.6805938309662420e+01 0 0 0
755 2 9.8440000000000012e+00 7.1042950623783341e+00 2.6805938309662420e+01 0 0 0
757 2 9.8440000000000012e+00 4.2625770374270004e+00 2.6805938309662420e+01 0 0 0
759 2 1.1074500000000002e+01 4.9730065436648339e+00 2.6805938309662420e+01 0 0 0
800 2 1.1074500000000002e+01 6.3938655561404980e+00 2.6805938309662420e+01 0 0 0
636 2 0.0000000000000000e+00 1.1366872099805333e+01 2.6805938309662420e+01 0 0 0
638 2 0.0000000000000000e+00 8.5251540748539991e+00 2.6805938309662420e+01 0 0 0
640 2 1.2305000000000001e+00 9.2355835810918343e+00 2.6805938309662420e+01 0 0 0
663 2 1.2305000000000001e+00 1.0656442593567498e+01 2.6805938309662420e+01 0 0 0
665 2 2.4610000000000003e+00 1.1366872099805333e+01 2.6805938309662420e+01 0 0 0
667 2 2.4610000000000003e+00 8.5251540748539991e+00 2.6805938309662420e+01 0 0 0
669 2 3.6915000000000004e+00 9.2355835810918343e+00 2.6805938309662420e+01 0 0 0
700 2 3.6914999999999996e+00 1.0656442593567499e+01 2.6805938309662420e+01 0 0 0
702 2 4.9220000000000006e+00 1.1366872099805333e+01 2.6805938309662420e+01 0 0 0
704 2 4.9220000000000006e+00 8.5251540748539991e+00 2.6805938309662420e+01 0 0 0
706 2 6.1524999999999999e+00 9.2355835810918343e+00 2.6805938309662420e+01 0 0 0
745 2 6.1524999999999999e+00 1.0656442593567499e+01 2.6805938309662420e+01 0 0 0
747 2 7.3829999999999991e+00 1.1366872099805333e+01 2.6805938309662420e+01 0 0 0
749 2 7.3830000000000009e+00 8.5251540748539991e+00 2.6805938309662420e+01 0 0 0
751 2 8.6134999999999984e+00 9.2355835810918343e+00 2.6805938309662420e+01 0 0 0
792 2 8.6134999999999984e+00 1.0656442593567498e+01 2.6805938309662420e+01 0 0 0
794 2 9.8440000000000012e+00 1.1366872099805333e+01 2.6805938309662420e+01 0 0 0
796 2 9.8440000000000012e+00 8.5251540748539956e+00 2.6805938309662420e+01 0 0 0
798 2 1.1074500000000002e+01 9.2355835810918343e+00 2.6805938309662420e+01 0 0 0
839 2 1.1074500000000002e+01 1.0656442593567498e+01 2.6805938309662420e+01 0 0 0
841 2 1.2304999999999998e+01 1.1366872099805333e+01 2.6805938309662420e+01 0 0 0
657 2 0.0000000000000000e+00 1.5629449137232333e+01 2.6805938309662420e+01 0 0 0
659 2 0.0000000000000000e+00 1.2787731112280996e+01 2.6805938309662420e+01 0 0 0
661 2 1.2305000000000001e+00 1.3498160618518829e+01 2.6805938309662420e+01 0 0 0
692 2 1.2305000000000001e+00 1.4919019630994494e+01 2.6805938309662420e+01 0 0 0
694 2 2.4610000000000003e+00 1.5629449137232328e+01 2.6805938309662420e+01 0 0 0
696 2 2.4610000000000003e+00 1.2787731112280996e+01 2.6805938309662420e+01 0 0 0
698 2 3.6915000000000004e+00 1.3498160618518829e+01 2.6805938309662420e+01 0 0 0
737 2 3.6915000000000004e+00 1.4919019630994494e+01 2.6805938309662420e+01 0 0 0
739 2 4.9220000000000006e+00 1.5629449137232333e+01 2.6805938309662420e+01 0 0 0
741 2 4.9220000000000006e+00 1.2787731112280996e+01 2.6805938309662420e+01 0 0 0
743 2 6.1524999999999990e+00 1.3498160618518829e+01 2.6805938309662420e+01 0 0 0
784 2 6.1524999999999990e+00 1.4919019630994494e+01 2.6805938309662420e+01 0 0 0
786 2 7.3829999999999991e+00 1.5629449137232333e+01 2.6805938309662420e+01 0 0 0
788 2 7.3829999999999991e+00 1.2787731112280996e+01 2.6805938309662420e+01 0 0 0
790 2 8.6135000000000002e+00 1.3498160618518835e+01 2.6805938309662420e+01 0 0 0
831 2 8.6135000000000002e+00 1.4919019630994494e+01 2.6805938309662420e+01 0 0 0
833 2 9.8440000000000012e+00 1.5629449137232328e+01 2.6805938309662420e+01 0 0 0
835 2 9.8440000000000012e+00 1.2787731112280996e+01 2.6805938309662420e+01 0 0 0
837 2 1.1074500000000002e+01 1.3498160618518829e+01 2.6805938309662420e+01 0 0 0
873 2 1.1074500000000002e+01 1.4919019630994494e+01 2.6805938309662420e+01 0 0 0
686 2 0.0000000000000000e+00 1.9892026174659328e+01 2.6805938309662420e+01 0 0 0
688 2 0.0000000000000000e+00 1.7050308149707998e+01 2.6805938309662420e+01 0 0 0
690 2 1.2305000000000001e+00 1.7760737655945832e+01 2.6805938309662420e+01 0 0 0
729 2 1.2305000000000001e+00 1.9181596668421495e+01 2.6805938309662420e+01 0 0 0
731 2 2.4610000000000003e+00 1.9892026174659328e+01 2.6805938309662420e+01 0 0 0
733 2 2.4610000000000003e+00 1.7050308149707998e+01 2.6805938309662420e+01 0 0 0
735 2 3.6914999999999996e+00 1.7760737655945832e+01 2.6805938309662420e+01 0 0 0
776 2 3.6914999999999996e+00 1.9181596668421495e+01 2.6805938309662420e+01 0 0 0
778 2 4.9220000000000006e+00 1.9892026174659328e+01 2.6805938309662420e+01 0 0 0
780 2 4.9220000000000006e+00 1.7050308149707998e+01 2.6805938309662420e+01 0 0 0
782 2 6.1524999999999999e+00 1.7760737655945832e+01 2.6805938309662420e+01 0 0 0
823 2 6.1524999999999999e+00 1.9181596668421495e+01 2.6805938309662420e+01 0 0 0
825 2 7.3829999999999991e+00 1.9892026174659328e+01 2.6805938309662420e+01 0 0 0
827 2 7.3830000000000009e+00 1.7050308149707998e+01 2.6805938309662420e+01 0 0 0
829 2 8.6134999999999984e+00 1.7760737655945832e+01 2.6805938309662420e+01 0 0 0
865 2 8.6135000000000002e+00 1.9181596668421495e+01 2.6805938309662420e+01 0 0 0
867 2 9.8440000000000012e+00 1.9892026174659335e+01 2.6805938309662420e+01 0 0 0
869 2 9.8440000000000012e+00 1.7050308149707998e+01 2.6805938309662420e+01 0 0 0
871 2 1.1074500000000002e+01 1.7760737655945835e+01 2.6805938309662420e+01 0 0 0
899 2 1.1074500000000002e+01 1.9181596668421495e+01 2.6805938309662420e+01 0 0 0
903 2 1.2304999999999998e+01 1.7050308149707998e+01 2.6805938309662420e+01 0 0 0
723 2 0.0000000000000000e+00 2.4154603212086325e+01 2.6805938309662420e+01 0 0 0
770 2 2.4610000000000003e+00 2.4154603212086325e+01 2.6805938309662420e+01 0 0 0
774 2 3.6914999999999996e+00 2.2023314693372832e+01 2.6805938309662420e+01 0 0 0
725 2 0.0000000000000000e+00 2.1312885187134999e+01 2.6805938309662420e+01 0 0 0
727 2 1.2304999999999993e+00 2.2023314693372832e+01 2.6805938309662420e+01 0 0 0
772 2 2.4610000000000003e+00 2.1312885187134995e+01 2.6805938309662420e+01 0 0 0
768 2 1.2304999999999993e+00 2.3444173705848499e+01 2.6805938309662420e+01 0 0 0
815 2 3.6915000000000004e+00 2.3444173705848499e+01 2.6805938309662420e+01 0 0 0
857 2 6.1524999999999999e+00 2.3444173705848499e+01 2.6805938309662420e+01 0 0 0
383 1 6.3604184007127635e+00 6.6807921756333688e-01 2.2730118124655231e+01 1 1 0
4941 1 6.1310279567917911e+00 7.9952058421102468e-01 1.6605292555576696e+01 1 0 1
3055 1 1.1935587853703918e+01 5.4939875807002627e+00 2.2862102636727265e+01 0 0 1
3030 1 1.4465137430023189e-01 2.4478034335582354e+01 1.5940701850389303e+01 0 0 1
3240 1 3.7369609970273885e+00 3.0407477116897463e-01 1.9738734868403540e+01 1 1 1
5422 1 8.1996866599173028e+00 2.2364189346736296e+01 1.5678407706834010e+01 1 0 0