LAMMPS data file via write_data, version 16 Mar 2018, timestep = 6000000

6750 atoms
2 atom types

0.0000000000000000e+00 4.9219999999999999e+01 xlo xhi
0.0000000000000000e+00 4.9019635930410494e+01 ylo yhi
3.8146882451587416e-01 5.9680531175480112e+01 zlo zhi

Masses

1 18.015
2 12.01

Atoms # atomic

6580 1 1.2638759534935193e+00 3.4161027470753020e+00 2.5539428808051388e+00 0 0 1
2032 1 1.1212036240035981e+00 9.8640464773545367e-01 1.5714779808723962e+00 1 0 0
2322 1 1.5051966562804047e+00 3.3946837039469844e+00 5.1923887741565098e+00 0 -2 1
1704 1 5.8139690105535857e+00 2.8110984440407418e+00 2.5012430374994445e+00 0 -1 0
3888 1 3.4734472242303616e-01 1.4546599965377441e+01 1.0355693875714451e+01 3 0 0
3972 1 8.1322820296402281e+00 3.6502010544286341e+00 1.6119656792752963e+00 -1 1 1
428 1 1.0209269264835607e+01 1.9905643085261642e+00 2.8487425975753911e+00 0 2 0
1827 1 1.0314303092606647e+01 1.8058749711262614e+00 5.4244967770449151e+00 2 -1 1
2051 1 3.6852798898021035e+00 4.2087334529544336e+00 1.5947432812963989e+00 0 0 0
1498 1 7.8907965069562103e+00 2.2492627138204821e+01 1.3482668563023884e+01 3 0 0
3187 1 4.0913621624233727e+00 6.7902099009487458e+00 2.6273819729602601e+00 -1 1 1
4835 1 6.5051226962262270e+00 7.6901253193876355e+00 1.7499668512201125e+00 0 -2 1
3570 1 4.2895094165070651e+00 6.9894641399031423e+00 5.3754157778565448e+00 0 -1 0
5034 1 8.7236087079186735e+00 6.3526339152576909e+00 2.5876153820950303e+00 -1 1 1
5101 1 8.5585236724202858e+00 6.2123694383528685e+00 5.2424091093804108e+00 0 -2 0
3168 1 1.0075210938689578e+01 2.0963952306406821e+01 1.2623455440869829e+01 1 -1 0
6416 1 1.8875189379309723e+00 8.2829732401604410e+00 1.9337863301807299e+00 0 0 1
6470 1 2.4565536210396188e+00 1.0957750955612749e+01 2.8118263570354896e+00 1 0 1
1364 1 1.1160160142749790e+01 1.4720302474869687e+01 8.3176323283700277e+00 0 1 1
3814 1 2.6288701770349916e+00 1.0754583758917574e+01 5.6522616806632087e+00 0 -1 0
5013 1 6.9890282466214764e+00 1.0283443491681178e+01 2.5031753596615607e+00 2 2 1
1825 1 4.8799706592166654e+00 1.1629089409433817e+01 1.7608453109340672e+00 -2 -1 0
5629 1 9.3898116244072742e+00 1.1330847402331772e+01 1.5230197065640840e+00 0 3 1
464 1 3.1133746494796126e+00 1.5355185998337101e+01 1.4855558434915124e+00 -4 0 0
5341 1 4.5567285913090544e-01 1.1991367457093208e+01 9.0405085202438134e+00 1 0 0
1877 1 5.3320385410985001e+00 1.3932618252761566e+01 2.7523464948153409e+00 2 -4 0
5382 1 7.8058758173049165e+00 1.4738127780030483e+01 1.7000816344806400e+00 0 5 0
4921 1 9.8149468092253187e+00 1.3561858487327200e+01 2.9785672857479555e+00 -3 0 1
1414 1 9.8926345685520900e-01 1.9535836914399930e+01 1.6928898753970674e+00 -3 4 1
344 1 3.2659301668370704e+00 1.7872724864102306e+01 2.5649950346190815e+00 0 0 0
6535 1 5.6268405247148348e+00 1.8609807453241455e+01 1.5742354845673614e+00 1 1 0
6644 1 7.7626497730254691e+00 1.7272753782069650e+01 2.5947794507168926e+00 1 0 1
6441 1 7.7238910174344193e+00 1.7405468484327407e+01 5.1744059585918052e+00 -3 0 1
6625 1 1.1472720719755685e+01 1.5861797552537681e+01 2.7883545382791279e+00 -3 0 1
3184 1 1.0131158781668725e+01 1.8022399101274619e+01 1.7718420045291285e+00 -1 4 1
1322 1 1.4155308464945935e+00 2.2037978405133810e+01 2.5868147859763124e+00 1 1 1
1848 1 3.8567723582188282e+00 2.2917605659712134e+01 1.6023611598724701e+00 0 1 0
3150 1 1.2619745912507605e+00 2.2007230081306520e+01 5.5347007674605351e+00 2 -1 1
2301 1 5.8009888182828586e+00 2.1346001475670466e+01 2.2980332621171087e+00 1 6 1
5593 1 5.8236524504664038e+00 2.1410508689839080e+01 4.9930329474184267e+00 0 0 1
2241 1 9.7725328262631912e+00 2.0742282910448903e+01 2.6700359475581164e+00 1 1 1
5214 1 8.1363186262539351e+00 2.2520393231675822e+01 1.5353441372249159e+00 0 1 1
3494 1 1.0387963810320436e+01 2.0798829541318003e+01 5.3409585830809005e+00 3 -2 0
3742 1 9.9126853087329292e-01 8.3289046930532917e-01 8.9047811003764430e+00 2 1 1
3685 1 1.0801591524189331e+00 9.1920823405653118e-01 6.1599769776444600e+00 -4 0 0
214 1 1.2940165656193661e+00 3.2448345640532601e+00 9.9980648357413813e+00 1 1 0
5637 1 1.9492788340515277e-01 1.4850012738755824e+01 1.3082415387411432e+01 0 1 1
6610 1 5.8289480842279318e+00 3.0664822895341857e+00 5.2917470656263230e+00 -1 3 1
4952 1 5.6253797344949614e+00 3.3672074910167797e+00 1.0023567593223394e+01 -2 2 1
6428 1 5.6246378005680970e+00 6.5437184109852264e-01 9.2398475656481143e+00 6 4 1
187 1 8.2895928734942554e+00 3.7619242816287386e+00 9.1975005544068793e+00 2 1 0
3957 1 8.3920443398979661e+00 3.3303060411796728e+00 6.3692046280076537e+00 0 3 1
5476 1 1.0362308424800421e+01 2.5892692429372897e+00 1.0106923159345980e+01 1 0 0
6681 1 3.4624329704260965e+00 4.3934414636424179e+00 8.8927944047298588e+00 -1 3 1
380 1 3.8015931539788959e+00 4.3738762828298512e+00 6.3222471317472957e+00 0 -1 0
4767 1 4.5261628216760386e+00 6.8962241982852603e+00 1.0018425317931124e+01 2 0 1
3064 1 6.5553797252572874e+00 7.9954204757146474e+00 6.4601175803409578e+00 1 1 1
1327 1 6.7058606439281778e+00 8.0870026255016860e+00 9.0377958624710502e+00 -3 0 1
442 1 8.8164186934242288e+00 6.5499838972803657e+00 9.8628833587306630e+00 1 1 0
229 1 1.0658688086335694e+01 7.5744394794734315e+00 8.5849243198052356e+00 0 1 0
3801 1 1.0675047201225002e+01 7.8343892746005741e+00 5.8848712731106296e+00 -3 -1 0
3226 1 2.5485763762177642e+00 8.2071904443326122e+00 8.8612978160363678e+00 0 -3 1
1335 1 2.3493224725418731e+00 8.3508134002506278e+00 6.2142216883978048e+00 0 -1 1
299 1 2.5483227525355994e+00 1.0695875258430206e+01 9.8164797047671524e+00 -2 0 0
6471 1 1.1735436943059614e+01 5.8358649645324920e+00 1.7487923561904855e+00 3 1 0
64 1 3.9757511892827155e+00 2.3405095536718193e+01 1.3528877377074261e+01 2 0 0
594 1 7.3485061656986614e+00 1.0675902889469178e+01 5.2456384712038178e+00 -2 1 1
6440 1 4.8983387640789218e+00 1.1516868375262066e+01 9.2318640926173163e+00 -2 -1 1
218 1 4.8493732581509876e+00 1.1741991740245371e+01 6.2897477935729036e+00 -1 0 0
4761 1 7.0096242059065466e+00 1.0396044315170414e+01 1.0266776312302941e+01 3 -2 1
1839 1 9.3614309804027194e+00 1.1100779053554460e+01 8.9142951209319072e+00 0 -1 0
1837 1 9.8209082679721771e+00 1.0676198266237389e+01 6.0315381880178780e+00 -2 -1 0
479 1 1.1580306295797431e+01 9.6387111336398021e+00 9.8649096873654027e+00 2 1 0
4832 1 1.8194291623888341e+00 2.2191712007908869e+01 1.2760044939771154e+01 1 -1 0
3892 1 2.6840600413721019e+00 1.5195544440491366e+01 6.0787952276428898e+00 -2 0 1
522 1 2.3796222652143988e+00 1.5593879135420773e+01 8.9261942158332310e+00 0 0 1
149 1 1.1636913479683801e-01 1.4618730918078404e+01 5.1868165777386670e+00 0 -1 0
296 1 4.9111536339061690e+00 1.4429660331982335e+01 5.4130889886257680e+00 1 0 0
5475 1 6.7709530986996329e+00 1.5023763265484545e+01 9.1067529439349073e+00 2 2 0
6484 1 7.2860574824659654e+00 1.5082751450365365e+01 6.4411848851657387e+00 -1 1 1
1793 1 4.4040998841985060e+00 1.4017937422506147e+01 9.9856135439638880e+00 2 1 1
2982 1 9.5486772773339101e+00 1.3517959111709468e+01 5.7402922901517233e+00 -1 1 1
3675 1 8.9769181018203135e+00 1.3773014691599943e+01 9.9398186574006360e+00 0 -1 0
1945 1 1.1744536308623243e+01 1.6763490264320946e+01 1.2517286284672931e+01 0 0 0
360 1 3.0640686900044170e+00 1.7932526399812904e+01 5.3898616165017890e+00 5 1 0
4874 1 1.1213026438377545e+00 1.9819800098782736e+01 8.7122888217654921e+00 0 -1 1
5591 1 1.0503588319923860e+00 1.9372586428254873e+01 6.1026643540912078e+00 4 2 1
239 1 2.9085399158629359e+00 1.8044356926949931e+01 9.7375148504813183e+00 0 0 0
1344 1 5.4991504238022806e+00 1.9143093680938712e+01 8.7670273692104335e+00 0 2 1
3341 1 5.6361865680439784e+00 1.8848774678626036e+01 5.7897155701492062e+00 2 0 0
3082 1 7.3051024860756355e+00 1.7418993109069028e+01 9.6367508935300403e+00 0 1 1
178 1 4.6856081920397746e-01 1.2349207798418185e+01 6.3482312181512741e+00 -2 -3 1
1506 1 1.1824726663239270e+01 1.6822754334429863e+01 9.9213146196913620e+00 3 -2 1
1995 1 9.9955466394712449e+00 1.8394157118427987e+01 6.3319578650547470e+00 -1 2 0
3007 1 9.8639201362415196e+00 1.8148507449472074e+01 8.9969166169751205e+00 0 1 1
6460 1 1.9170161561636694e+00 2.2064336859927490e+01 9.7621559832098850e+00 0 -2 0
5511 1 3.6387622326786686e+00 2.2923483851564605e+01 6.1203569711639929e+00 0 -1 0
6361 1 4.2806258833711928e+00 2.3507806917552497e+01 8.6324280167069780e+00 1 4 1
4961 1 5.7545363472924107e+00 2.1576404503724142e+01 9.5585976829166999e+00 0 -2 1
3296 1 8.2890901960655921e+00 2.2127818830876148e+01 5.9727119474065065e+00 1 -1 1
5380 1 8.1468673685223596e+00 2.2330481908718191e+01 8.5966167717706359e+00 1 0 0
1919 1 9.9914293986853817e+00 2.0615951198950533e+01 9.8245164364386479e+00 -2 2 0
5148 1 6.0792034233432479e-01 1.0613109451543361e+00 1.3626972971739463e+01 0 -1 0
5160 1 1.2354704046333611e+00 3.5880682444027827e+00 1.2696190208667479e+01 2 1 1
568 1 3.6316265381557074e+00 4.6476784506042748e+00 1.3576831849151743e+01 -1 -2 1
4934 1 6.2744081277095054e-01 1.2610424077225804e+01 2.0607533260725788e+00 2 2 1
1476 1 5.8849995438312224e+00 3.2889022966718113e+00 1.2639950008368649e+01 2 -1 1
138 1 8.1417270864973013e+00 3.9146262035831327e+00 1.3639180589360803e+01 -2 1 0
6579 1 1.0254105190973128e+01 2.4323352667716382e+00 1.2571684410346554e+01 2 0 1
5535 1 4.3429885048994095e+00 6.8138758478768988e+00 1.2522253567221419e+01 3 -2 1
6386 1 6.8270659355181182e+00 7.5748288902194334e+00 1.3616798809932920e+01 4 -2 1
342 1 8.6617100408271490e+00 6.0872357864205018e+00 1.2251751806042664e+01 -2 3 0
3471 1 1.0584771011118983e+01 7.2851762131593709e+00 1.3382147606264246e+01 2 -2 0
4831 1 2.3352089965861418e+00 8.7195753469293962e+00 1.3559970559707420e+01 -1 1 1
3348 1 2.0702455587191335e+00 1.1138728102020620e+01 1.2390202405837570e+01 3 0 1
5434 1 5.3163060603750960e+00 3.7551474511763722e-01 6.6077344374217111e+00 0 1 0
3945 1 4.5473895417190535e+00 1.1712735023353432e+01 1.3599669020908976e+01 1 -1 1
6740 1 6.7933217099755172e+00 1.0051957866825518e+01 1.2883163654152369e+01 -1 0 0
5018 1 1.0817666533399725e+01 9.7298485761806734e+00 1.2562770696256248e+01 0 0 1
5515 1 8.8336456449782172e+00 1.1117417682554581e+01 1.3884398304454523e+01 0 -1 0
4846 1 1.1690107258849835e+01 1.6317635507648735e+01 5.7421999951386766e+00 0 2 1
5502 1 2.6394256386511183e+00 1.5742504362147169e+01 1.3650069989569053e+01 1 -1 0
5410 1 4.6092920472829846e+00 1.4253559024429705e+01 1.2635658238282797e+01 1 -3 0
1965 1 6.9311571482251901e+00 1.5163893150471184e+01 1.3473400701568350e+01 0 0 0
3407 1 1.1532711076360233e+01 1.4205051572970696e+01 1.3238109887993367e+01 -2 -1 0
6731 1 9.0626767890751641e+00 1.3450739554913268e+01 1.2537193652539179e+01 1 2 1
5119 1 2.8627776182234257e+00 1.8117015381748370e+01 1.2452717192265986e+01 2 -2 0
3969 1 1.0935591471806168e+00 1.9731853964303099e+01 1.3455217208906223e+01 1 0 1
5541 1 7.2617715452499079e+00 1.7657171120533366e+01 1.2337562716310526e+01 -1 2 0
3809 1 5.1358651691059372e+00 1.9167147954758242e+01 1.3432189278748471e+01 1 -2 0
2119 1 5.4147486901990121e+00 2.1633717941441631e+01 1.2342011648733875e+01 2 0 0
1491 1 9.8111221611763284e+00 1.8351265201927056e+01 1.3447555842583709e+01 -3 -1 1
4963 1 5.8548060508323052e-01 1.5224146329364986e+01 2.5511266772054277e+00 -1 2 1
510 1 5.1366106451305599e-02 1.2421500004593563e+01 1.3608621488137336e+01 5 -1 0
184 1 5.2436556576914937e+00 6.7669690497238966e-01 1.3103145793007277e+01 2 1 0
263 1 5.3807976163693514e+00 2.2525066683623729e-01 1.5508938112418404e+00 2 1 0
1607 1 1.0187528873596547e+01 1.6054074051026650e-02 9.0289664715865143e+00 -1 0 0
3189 1 2.9513944989123804e+00 1.7920154728208404e+00 1.7076119036348675e+01 0 1 1
5085 1 6.1316612656737690e-01 8.6229850940735919e-01 1.6057981587947268e+01 2 0 1
5393 1 3.1084747792243710e+00 1.6348050976425159e+00 1.9806123970113152e+01 1 -1 0
3859 1 7.4298809609274006e+00 1.1938121550519638e+00 1.6922131787564798e+01 0 1 1
1748 1 7.4388104590850768e+00 1.1530895932678757e+00 1.9774576092950380e+01 -2 0 0
3422 1 7.9855855581826241e+00 3.9744611187829570e+00 1.6382566441932234e+01 1 -3 0
893 2 9.8440000000000012e+00 2.4154603212086336e+01 2.6807186771714679e+01 0 0 0
863 2 8.6135000000000002e+00 2.2023314693372832e+01 2.6807186771714679e+01 0 0 0
895 2 9.8440000000000012e+00 2.1312885187134999e+01 2.6807186771714679e+01 0 0 0
2105 1 1.2167814689928644e+01 2.9844537408152627e+00 2.0930173256903682e+01 1 0 0
503 1 3.5862093860772974e+00 4.2108377899955229e+00 1.6260548340496452e+01 2 2 0
73 1 1.5284244099015141e+00 5.7936863778565693e+00 1.7130079583700081e+01 -1 -1 0
335 1 1.3077338593362047e+00 5.8499229370021304e+00 1.9719511500845339e+01 -2 -4 0
5407 1 5.8709056424438151e+00 5.1135134579678363e+00 1.7398996654886268e+01 2 0 0
5068 1 6.2338805478040218e+00 7.7221050285205566e+00 1.6321917778545583e+01 1 1 1
1847 1 5.9183007122154407e+00 4.9595162905355163e+00 1.9989871870409200e+01 -1 1 0
6346 1 1.0133919518266344e+01 4.4263326817708331e+00 1.9947082875534228e+01 0 1 1
3989 1 1.0172194817004478e+01 4.3422227707841348e+00 1.7296539863232187e+01 -3 -1 1
5153 1 1.0696204790870901e+01 6.8207340748899332e+00 1.6438004577380525e+01 1 0 0
1551 1 8.5397209233726965e+00 8.1988968420081534e+00 1.7389647338269981e+01 1 -1 0
917 2 1.1074500000000002e+01 2.3444173705848499e+01 2.6807186771714679e+01 0 0 0
6664 1 1.8638791567068731e+00 8.3275540072751166e+00 1.6442692216054198e+01 -2 1 1
3009 1 4.5635652405167111e+00 9.4624730942641033e+00 1.9752965752968056e+01 0 0 1
6448 1 4.0935967700099010e+00 9.3514036779653082e+00 1.7329711845419673e+01 2 1 1
518 1 4.5360507937213495e+00 1.1700488450602883e+01 1.6124965593821031e+01 1 1 0
33 1 8.8990608587350266e+00 8.2529790965829548e+00 2.0074435863916651e+01 2 0 0
2161 1 9.0632451591929559e+00 1.0813010214260824e+01 1.6870310389020901e+01 1 -1 1
4995 1 1.1532409229934784e+01 1.1763177035178440e+01 1.7095138614869924e+01 0 1 0
4829 1 1.1297845304660306e+01 1.1606400490733867e+01 1.9723449203705314e+01 1 0 1
3309 1 2.6390117541619302e+00 1.3055686282353797e+01 1.7237782583611438e+01 -1 2 0
5459 1 2.7548775088819419e+00 1.5522759590581012e+01 1.6333588117056117e+01 1 0 0
205 1 2.5107023497363312e+00 1.3206663561124449e+01 2.0101192682089287e+01 -3 1 0
1543 1 6.6474515640980183e+00 1.2534941796405690e+01 1.7308461843841826e+01 3 -1 0
3884 1 7.1051388549619476e+00 1.5051587890662182e+01 1.6218251839084729e+01 0 2 0
3920 1 7.1817788145496282e+00 1.2651989974500916e+01 2.0277728556032162e+01 2 -1 0
1355 1 9.5937069750024992e+00 1.5968376904308544e+01 1.7180331444905271e+01 -3 0 1
5438 1 9.9910503652599569e+00 1.5689801462664864e+01 1.9766570646343048e+01 -1 -3 0
5122 1 1.3094837645908781e+00 2.4283835823685557e+01 2.4015644048103759e+01 2 0 0
541 1 9.1318650602052887e-01 1.7301863305840147e+01 1.7557435734756996e+01 3 0 0
3598 1 1.2417673451415561e+00 1.9744973338570748e+01 1.6213318717453351e+01 -2 -1 1
3858 1 1.2374953878677530e+00 1.7640945173320016e+01 2.0067491782075159e+01 0 1 1
333 1 3.5371221365385237e+00 2.0514666302184722e+01 1.7218822853896224e+01 1 -2 0
1758 1 3.5215091596244563e+00 2.0378830665995231e+01 1.9958016530561228e+01 -1 -2 1
3414 1 5.3806830953159004e+00 1.6414247130496911e+01 1.9760781146493873e+01 3 -1 0
613 1 5.1641124762644228e+00 1.6479930005104116e+01 1.6959765416443194e+01 0 -1 0
4714 1 5.3817968371960783e+00 1.9115613356679940e+01 1.5964864660263631e+01 1 0 1
3800 1 7.6952998828804127e+00 1.9892404080340306e+01 1.6914534228486396e+01 -2 0 0
2020 1 8.0949294131769207e+00 2.0099114320585056e+01 1.9350344490436676e+01 0 2 0
6375 1 9.8672337968029016e+00 1.8361627545148959e+01 1.6084059557081645e+01 2 -1 1
6367 1 3.9471509437797061e+00 2.3158107617394919e+01 1.6132582883574688e+01 0 1 1
1339 1 1.1737194242151261e+01 4.1185252650117532e-01 1.7137956431861859e+01 0 -1 1
3385 1 6.2811743335432988e+00 2.3493387676449704e+01 1.7268646156167495e+01 -2 -2 1
4715 1 8.3404529151326674e+00 2.2352925262494910e+01 1.6084396375032540e+01 -1 -1 1
6616 1 1.0991727671879113e+01 2.3319041190072564e+01 1.6959547802308307e+01 0 -1 1
1916 1 1.0589584135297264e+01 2.3259402337349069e+01 1.9840965808724015e+01 2 0 0
5297 1 8.2932259276873943e-01 8.3002288339342467e-01 2.3536070867547323e+01 2 4 0
3931 1 7.0405944311315538e-01 6.0744253858636554e-01 2.0848560795760115e+01 2 1 1
391 1 1.1856539829008585e+00 3.2511811742717427e+00 2.3903450040827249e+01 -1 0 0
144 1 3.5893212693257830e+00 4.1508950323339571e+00 2.0582229942101730e+01 2 4 0
3908 1 5.6354769268432774e+00 2.3087635124043326e+00 2.4176496456440006e+01 0 2 1
4682 1 7.7625135935765703e+00 3.6154687238995886e+00 2.0876804856401165e+01 2 1 1
2002 1 8.2098629840356097e+00 3.7002910146078873e+00 2.3466522294947065e+01 -1 2 0
3402 1 1.0297128983249051e+01 1.7559278766352155e+00 2.3858818642428517e+01 -1 0 1
897 2 1.1074500000000002e+01 2.2023314693372832e+01 2.6807186771714679e+01 0 0 0
2045 1 3.5489236345848099e+00 4.0254483208418099e+00 2.3204369133928026e+01 0 -2 1
2993 1 4.1266800170911653e+00 6.7069430416544549e+00 2.4138276859923860e+01 -1 0 1
2057 1 6.4969741570469903e+00 7.3863593169279733e+00 2.0848819553411769e+01 1 0 0
2994 1 6.4974656812618621e+00 7.4051178525217036e+00 2.3671513175603643e+01 1 2 0
176 1 8.9906635669588617e+00 5.9713769809248216e+00 2.4409774082385713e+01 0 1 0
2131 1 1.0825588197981052e+01 6.7908661830087151e+00 2.0860650960665360e+01 -1 0 0
609 1 1.1008660674030699e+01 7.2279560585065985e+00 2.3430574131858766e+01 5 0 1
5217 1 2.2175621319388572e+00 8.3454420957353452e+00 2.0640262555749089e+01 -1 0 1
2192 1 2.0982993743434530e+00 8.1668401836802431e+00 2.3401302158494889e+01 -1 1 0
1436 1 2.3872189984295651e+00 1.0575776049490200e+01 2.4654749305490835e+01 2 -2 1
1771 1 4.7721852776598137e+00 1.1835381057117861e+01 2.1129346004182299e+01 -2 1 0
3113 1 6.6078576369574415e+00 9.8738362403642910e+00 2.4399130036794130e+01 -3 1 1
2175 1 4.6612722743610835e+00 1.1420416994333793e+01 2.3791908872554348e+01 0 1 1
5193 1 1.1803148648223324e+01 9.8050116327678651e+00 2.4734663908102906e+01 -1 2 0
129 1 9.3308177519597848e+00 1.1070232155789586e+01 2.3937725993690414e+01 -1 1 0
1994 1 9.1312532795527357e+00 1.1163453424835801e+01 2.1184806862693918e+01 -4 -1 0
410 1 9.6380011530959342e-01 1.5257887880912449e+01 2.4280149568336434e+01 1 1 1
409 1 2.9394829702657832e+00 1.5745488230454381e+01 2.0827109645673644e+01 2 1 1
3733 1 3.3534178818229323e+00 1.5989303697236723e+01 2.3315288595219045e+01 1 -1 1
1438 1 4.3100517631652230e-01 1.2144441841497805e+01 1.6316884495638604e+01 2 -3 0
3013 1 1.1727088132773448e+01 1.4306495665318170e+01 1.6044462278393627e+01 0 2 1
5516 1 7.5475081092847720e+00 1.5116955642237834e+01 2.0766366717648651e+01 -3 0 0
1445 1 5.2279088276778456e+00 1.4014618004079045e+01 2.4284288675007442e+01 0 2 1
2323 1 7.9246171339084022e+00 1.5063432064858311e+01 2.3344832951106476e+01 2 0 1
3717 1 1.1860159250238674e+01 1.4065300863247446e+01 2.0793589737293100e+01 3 -1 0
5612 1 9.9898968325826143e+00 1.3721001323657294e+01 2.4226477930364332e+01 2 2 0
3684 1 1.1710508666861191e+01 4.8739962009859744e-01 1.9919509759481514e+01 0 0 0
1780 1 2.2226091769502569e+00 2.0691543297033711e+01 2.3857384381180914e+01 2 2 0
1778 1 1.0908997484245966e+00 2.0138009688072462e+01 2.1157314832255430e+01 -1 0 0
5328 1 3.8576114112073774e+00 1.8747041221633829e+01 2.4138008517134129e+01 2 0 0
4779 1 5.7219419628617008e+00 1.8920237427645187e+01 2.0353702938545087e+01 -1 0 1
5235 1 6.3396939564606853e+00 1.9467982001085357e+01 2.3110055397969234e+01 1 0 0
5531 1 1.0966728121443495e+01 1.8654096012813866e+01 2.2902557405095546e+01 -2 -4 0
262 1 8.2424079363225609e+00 1.7864725624581556e+01 2.4182068934054886e+01 0 0 1
3126 1 1.0040568221216617e+01 1.8261942507114028e+01 2.0321335613927474e+01 -2 2 1
2092 1 3.6333046084723888e+00 2.3072839571398756e+01 2.3296449890045842e+01 0 -1 0
6418 1 4.0180212451370787e+00 2.2946559753211332e+01 2.0792140433789619e+01 0 -1 1
1731 1 6.1163367863326741e+00 2.3307480395645161e+01 2.4526728588750927e+01 1 2 0
6627 1 7.7830826189132933e+00 2.1797083601585797e+01 2.3205879604561186e+01 -1 1 0
38 1 8.1351869046526311e+00 2.2292520526890790e+01 2.0776987476912485e+01 -1 -2 1
891 2 8.6134999999999984e+00 2.3444173705848499e+01 2.6807186771714679e+01 0 0 0
5202 1 6.3927054960759944e-01 1.2676634614843572e+01 2.3845378890918695e+01 2 -1 0
5474 1 1.0188632015392601e+01 2.3111228799179425e+01 2.4042659714208302e+01 0 -3 0
618 2 0.0000000000000000e+00 2.8417180249513345e+00 2.6807186771714679e+01 0 0 0
620 2 0.0000000000000000e+00 0.0000000000000000e+00 2.6807186771714679e+01 0 0 0
622 2 1.2305000000000001e+00 7.1042950623783474e-01 2.6807186771714679e+01 0 0 0
629 2 1.2305000000000001e+00 2.1312885187134998e+00 2.6807186771714679e+01 0 0 0
631 2 2.4610000000000003e+00 2.8417180249513345e+00 2.6807186771714679e+01 0 0 0
633 2 2.4610000000000003e+00 0.0000000000000000e+00 2.6807186771714679e+01 0 0 0
635 2 3.6915000000000004e+00 7.1042950623783474e-01 2.6807186771714679e+01 0 0 0
650 2 3.6914999999999996e+00 2.1312885187134998e+00 2.6807186771714679e+01 0 0 0
652 2 4.9220000000000006e+00 2.8417180249513332e+00 2.6807186771714679e+01 0 0 0
654 2 4.9220000000000006e+00 0.0000000000000000e+00 2.6807186771714679e+01 0 0 0
656 2 6.1524999999999999e+00 7.1042950623783407e-01 2.6807186771714679e+01 0 0 0
679 2 6.1524999999999999e+00 2.1312885187134989e+00 2.6807186771714679e+01 0 0 0
681 2 7.3829999999999991e+00 2.8417180249513345e+00 2.6807186771714679e+01 0 0 0
683 2 7.3829999999999991e+00 0.0000000000000000e+00 2.6807186771714679e+01 0 0 0
685 2 8.6134999999999984e+00 7.1042950623783407e-01 2.6807186771714679e+01 0 0 0
716 2 8.6134999999999984e+00 2.1312885187135002e+00 2.6807186771714679e+01 0 0 0
718 2 9.8440000000000012e+00 2.8417180249513332e+00 2.6807186771714679e+01 0 0 0
720 2 9.8440000000000012e+00 0.0000000000000000e+00 2.6807186771714679e+01 0 0 0
722 2 1.1074500000000002e+01 7.1042950623783330e-01 2.6807186771714679e+01 0 0 0
761 2 1.1074500000000002e+01 2.1312885187135002e+00 2.6807186771714679e+01 0 0 0
623 2 0.0000000000000000e+00 7.1042950623783341e+00 2.6807186771714679e+01 0 0 0
625 2 0.0000000000000000e+00 4.2625770374269996e+00 2.6807186771714679e+01 0 0 0
627 2 1.2305000000000001e+00 4.9730065436648339e+00 2.6807186771714679e+01 0 0 0
642 2 1.2305000000000001e+00 6.3938655561404980e+00 2.6807186771714679e+01 0 0 0
644 2 2.4610000000000003e+00 7.1042950623783341e+00 2.6807186771714679e+01 0 0 0
646 2 2.4610000000000003e+00 4.2625770374269996e+00 2.6807186771714679e+01 0 0 0
648 2 3.6914999999999996e+00 4.9730065436648339e+00 2.6807186771714679e+01 0 0 0
671 2 3.6914999999999996e+00 6.3938655561404980e+00 2.6807186771714679e+01 0 0 0
673 2 4.9220000000000006e+00 7.1042950623783341e+00 2.6807186771714679e+01 0 0 0
675 2 4.9220000000000006e+00 4.2625770374269978e+00 2.6807186771714679e+01 0 0 0
677 2 6.1524999999999999e+00 4.9730065436648339e+00 2.6807186771714679e+01 0 0 0
708 2 6.1524999999999999e+00 6.3938655561404980e+00 2.6807186771714679e+01 0 0 0
710 2 7.3830000000000009e+00 7.1042950623783341e+00 2.6807186771714679e+01 0 0 0
712 2 7.3829999999999991e+00 4.2625770374269996e+00 2.6807186771714679e+01 0 0 0
714 2 8.6135000000000002e+00 4.9730065436648339e+00 2.6807186771714679e+01 0 0 0
753 2 8.6135000000000002e+00 6.3938655561404980e+00 2.6807186771714679e+01 0 0 0
755 2 9.8440000000000012e+00 7.1042950623783341e+00 2.6807186771714679e+01 0 0 0
757 2 9.8440000000000012e+00 4.2625770374270004e+00 2.6807186771714679e+01 0 0 0
759 2 1.1074500000000002e+01 4.9730065436648339e+00 2.6807186771714679e+01 0 0 0
800 2 1.1074500000000002e+01 6.3938655561404980e+00 2.6807186771714679e+01 0 0 0
636 2 0.0000000000000000e+00 1.1366872099805333e+01 2.6807186771714679e+01 0 0 0
638 2 0.0000000000000000e+00 8.5251540748539991e+00 2.6807186771714679e+01 0 0 0
640 2 1.2305000000000001e+00 9.2355835810918343e+00 2.6807186771714679e+01 0 0 0
663 2 1.2305000000000001e+00 1.0656442593567498e+01 2.6807186771714679e+01 0 0 0
665 2 2.4610000000000003e+00 1.1366872099805333e+01 2.6807186771714679e+01 0 0 0
667 2 2.4610000000000003e+00 8.5251540748539991e+00 2.6807186771714679e+01 0 0 0
669 2 3.6915000000000004e+00 9.2355835810918343e+00 2.6807186771714679e+01 0 0 0
700 2 3.6914999999999996e+00 1.0656442593567499e+01 2.6807186771714679e+01 0 0 0
702 2 4.9220000000000006e+00 1.1366872099805333e+01 2.6807186771714679e+01 0 0 0
704 2 4.9220000000000006e+00 8.5251540748539991e+00 2.6807186771714679e+01 0 0 0
706 2 6.1524999999999999e+00 9.2355835810918343e+00 2.6807186771714679e+01 0 0 0
745 2 6.1524999999999999e+00 1.0656442593567499e+01 2.6807186771714679e+01 0 0 0
747 2 7.3829999999999991e+00 1.1366872099805333e+01 2.6807186771714679e+01 0 0 0
749 2 7.3830000000000009e+00 8.5251540748539991e+00 2.6807186771714679e+01 0 0 0
751 2 8.6134999999999984e+00 9.2355835810918343e+00 2.6807186771714679e+01 0 0 0
792 2 8.6134999999999984e+00 1.0656442593567498e+01 2.6807186771714679e+01 0 0 0
794 2 9.8440000000000012e+00 1.1366872099805333e+01 2.6807186771714679e+01 0 0 0
796 2 9.8440000000000012e+00 8.5251540748539956e+00 2.6807186771714679e+01 0 0 0
798 2 1.1074500000000002e+01 9.2355835810918343e+00 2.6807186771714679e+01 0 0 0
839 2 1.1074500000000002e+01 1.0656442593567498e+01 2.6807186771714679e+01 0 0 0
841 2 1.2304999999999998e+01 1.1366872099805333e+01 2.6807186771714679e+01 0 0 0
657 2 0.0000000000000000e+00 1.5629449137232333e+01 2.6807186771714679e+01 0 0 0
659 2 0.0000000000000000e+00 1.2787731112280996e+01 2.6807186771714679e+01 0 0 0
661 2 1.2305000000000001e+00 1.3498160618518829e+01 2.6807186771714679e+01 0 0 0
692 2 1.2305000000000001e+00 1.4919019630994494e+01 2.6807186771714679e+01 0 0 0
694 2 2.4610000000000003e+00 1.5629449137232328e+01 2.6807186771714679e+01 0 0 0
696 2 2.4610000000000003e+00 1.2787731112280996e+01 2.6807186771714679e+01 0 0 0
698 2 3.6915000000000004e+00 1.3498160618518829e+01 2.6807186771714679e+01 0 0 0
737 2 3.6915000000000004e+00 1.4919019630994494e+01 2.6807186771714679e+01 0 0 0
739 2 4.9220000000000006e+00 1.5629449137232333e+01 2.6807186771714679e+01 0 0 0
741 2 4.9220000000000006e+00 1.2787731112280996e+01 2.6807186771714679e+01 0 0 0
743 2 6.1524999999999990e+00 1.3498160618518829e+01 2.6807186771714679e+01 0 0 0
784 2 6.1524999999999990e+00 1.4919019630994494e+01 2.6807186771714679e+01 0 0 0
786 2 7.3829999999999991e+00 1.5629449137232333e+01 2.6807186771714679e+01 0 0 0
788 2 7.3829999999999991e+00 1.2787731112280996e+01 2.6807186771714679e+01 0 0 0
790 2 8.6135000000000002e+00 1.3498160618518835e+01 2.6807186771714679e+01 0 0 0
831 2 8.6135000000000002e+00 1.4919019630994494e+01 2.6807186771714679e+01 0 0 0
833 2 9.8440000000000012e+00 1.5629449137232328e+01 2.6807186771714679e+01 0 0 0
835 2 9.8440000000000012e+00 1.2787731112280996e+01 2.6807186771714679e+01 0 0 0
837 2 1.1074500000000002e+01 1.3498160618518829e+01 2.6807186771714679e+01 0 0 0
873 2 1.1074500000000002e+01 1.4919019630994494e+01 2.6807186771714679e+01 0 0 0
686 2 0.0000000000000000e+00 1.9892026174659328e+01 2.6807186771714679e+01 0 0 0
688 2 0.0000000000000000e+00 1.7050308149707998e+01 2.6807186771714679e+01 0 0 0
690 2 1.2305000000000001e+00 1.7760737655945832e+01 2.6807186771714679e+01 0 0 0
729 2 1.2305000000000001e+00 1.9181596668421495e+01 2.6807186771714679e+01 0 0 0
731 2 2.4610000000000003e+00 1.9892026174659328e+01 2.6807186771714679e+01 0 0 0
733 2 2.4610000000000003e+00 1.7050308149707998e+01 2.6807186771714679e+01 0 0 0
735 2 3.6914999999999996e+00 1.7760737655945832e+01 2.6807186771714679e+01 0 0 0
776 2 3.6914999999999996e+00 1.9181596668421495e+01 2.6807186771714679e+01 0 0 0
778 2 4.9220000000000006e+00 1.9892026174659328e+01 2.6807186771714679e+01 0 0 0
780 2 4.9220000000000006e+00 1.7050308149707998e+01 2.6807186771714679e+01 0 0 0
782 2 6.1524999999999999e+00 1.7760737655945832e+01 2.6807186771714679e+01 0 0 0
823 2 6.1524999999999999e+00 1.9181596668421495e+01 2.6807186771714679e+01 0 0 0
825 2 7.3829999999999991e+00 1.9892026174659328e+01 2.6807186771714679e+01 0 0 0
827 2 7.3830000000000009e+00 1.7050308149707998e+01 2.6807186771714679e+01 0 0 0
899 2 1.1074500000000002e+01 1.9181596668421495e+01 2.6807186771714679e+01 0 0 0
903 2 1.2304999999999998e+01 1.7050308149707998e+01 2.6807186771714679e+01 0 0 0
869 2 9.8440000000000012e+00 1.7050308149707998e+01 2.6807186771714679e+01 0 0 0
871 2 1.1074500000000002e+01 1.7760737655945835e+01 2.6807186771714679e+01 0 0 0
829 2 8.6134999999999984e+00 1.7760737655945832e+01 2.6807186771714679e+01 0 0 0
865 2 8.6135000000000002e+00 1.9181596668421495e+01 2.6807186771714679e+01 0 0 0
867 2 9.8440000000000012e+00 1.9892026174659335e+01 2.6807186771714679e+01 0 0 0
815 2 3.6915000000000004e+00 2.3444173705848499e+01 2.6807186771714679e+01 0 0 0
770 2 2.4610000000000003e+00 2.4154603212086325e+01 2.6807186771714679e+01 0 0 0
725 2 0.0000000000000000e+00 2.1312885187134999e+01 2.6807186771714679e+01 0 0 0
768 2 1.2304999999999993e+00 2.3444173705848499e+01 2.6807186771714679e+01 0 0 0
727 2 1.2304999999999993e+00 2.2023314693372832e+01 2.6807186771714679e+01 0 0 0
723 2 0.0000000000000000e+00 2.4154603212086325e+01 2.6807186771714679e+01 0 0 0
772 2 2.4610000000000003e+00 2.1312885187134995e+01 2.6807186771714679e+01 0 0 0
774 2 3.6914999999999996e+00 2.2023314693372832e+01 2.6807186771714679e+01 0 0 0
819 2 4.9220000000000006e+00 2.1312885187134995e+01 2.6807186771714679e+01 0 0 0
859 2 7.3830000000000009e+00 2.4154603212086336e+01 2.6807186771714679e+01 0 0 0
857 2 6.1524999999999999e+00 2.3444173705848499e+01 2.6807186771714679e+01 0 0 0
861 2 7.3829999999999991e+00 2.1312885187134999e+01 2.6807186771714679e+01 0 0 0
821 2 6.1524999999999990e+00 2.2023314693372832e+01 2.6807186771714679e+01 0 0 0
817 2 4.9220000000000006e+00 2.4154603212086325e+01 2.6807186771714679e+01 0 0 0
497 1 6.5182422856072355e+00 2.4042436777098203e+01 1.9895022876226687e+01 3 -4 0
3521 1 4.8560566963136624e+00 3.0172646206389336e-01 1.5939246506910649e+01 2 -2 1