LAMMPS data file via write_data, version 16 Mar 2018, timestep = 6000000

6750 atoms
2 atom types

2.2573857312658419e-01 4.8994261426871432e+01 xlo xhi
2.2481963978765407e-01 4.8794816290617412e+01 ylo yhi
-2.3800572233576389e-01 6.0300005722325537e+01 zlo zhi

Masses

1 18.015
2 12.01

Atoms # atomic

3296 1 2.3242419210617822e+00 1.8917751087243957e+00 1.2020314488783621e+00 -1 -1 1
3853 1 7.0690744014079410e-01 3.9964990760877113e+00 2.1690221924882551e+00 -1 -2 0
1314 1 4.9522856195753162e+00 2.0714017742535069e+00 2.2901754605048747e+00 -3 -3 1
3201 1 9.7831204197630619e+00 2.7548182941155908e+00 9.3785874209171372e-01 1 0 1
6724 1 1.2136742798226249e+01 3.3371938293296171e+00 5.0246837727118434e+00 -2 -3 1
6423 1 8.8832470490019038e+00 4.3861355596316859e-01 4.7405681606198433e+00 3 -2 1
3921 1 1.7775340011431755e+00 6.0697508965338081e+00 1.1808138707740226e+00 0 0 0
1550 1 4.0789671152499496e+00 6.3087994531006757e+00 2.2964945906926872e+00 3 1 1
2107 1 6.0361538904138667e+00 4.3666016977474591e+00 1.0771193152089127e+00 3 1 0
3180 1 8.5603972478330874e+00 4.9534506377834058e+00 2.0838749502504457e+00 1 0 1
1553 1 1.1792849455841797e+01 7.2124357332203530e+00 2.3122873370284824e+00 2 5 1
2021 1 9.1946457418008958e+00 7.3271428023983791e+00 1.4511776875539788e+00 -3 0 1
1669 1 3.4062260246490950e+00 1.0804048261446678e+01 2.3714428825430849e+00 1 1 0
5164 1 8.1766032094586361e-01 1.0392498940683092e+01 1.2242913355299099e+00 0 2 0
6596 1 4.9690234899157417e+00 8.7034819214637960e+00 1.2316055118125819e+00 -2 0 1
5454 1 7.2731002607138970e+00 8.9012014186919348e+00 2.4263729270947469e+00 -1 3 0
1548 1 8.1703247344521319e+00 1.1228145266732426e+01 1.4085401334397638e+00 -1 0 1
5649 1 1.0657479844889968e+01 1.1783520367785949e+01 2.4220974790575012e+00 0 2 1
2305 1 4.1977869520044333e+00 2.3999986658016407e+01 8.8547955224911910e+00 1 1 1
5671 1 2.9920613202302078e+00 1.5136165523959457e+01 2.5474594470649148e+00 6 0 1
4805 1 8.6749302966537414e+00 5.6474713479005412e-01 2.1429723843900437e+00 -1 1 1
3319 1 4.1693642247345242e+00 1.3186505455540459e+01 1.4775644677558391e+00 2 -1 0
518 1 6.7849951817269822e+00 1.3497014379659417e+01 2.3979617775058322e+00 5 1 0
3178 1 7.5551285547578226e+00 1.5821317578521555e+01 1.1968999333259580e+00 -1 -2 0
4739 1 1.1629454553495002e+01 1.3900586625108748e+01 1.2645818638346131e+00 0 2 1
6497 1 1.0143773123978855e+01 1.5967712287781872e+01 1.9086383715265018e+00 2 2 0
5259 1 2.3556064956803353e+00 1.9620453624851894e+01 2.6396826867001826e+00 1 3 0
3407 1 3.8081283252940499e+00 1.7494528532306155e+01 1.3170042848390762e+00 3 0 0
3112 1 6.3298130387234695e+00 1.7899400882258874e+01 2.1525521243726247e+00 -1 3 1
4702 1 7.2814337063798078e+00 2.0032000647241340e+01 1.3893348519241200e+00 3 -1 1
4818 1 1.0851910372835299e+01 1.8691453236073812e+01 1.4321276741477067e+00 0 1 1
6362 1 3.0956203748591555e+00 2.2037059727755082e+01 1.2726792882693032e+00 2 -1 1
1926 1 1.3106916762244714e+00 2.3815510132493703e+01 2.4737048992761452e+00 2 -3 0
1746 1 5.5999310396169584e+00 2.1921711125798776e+01 2.4623643665036608e+00 3 -1 0
438 1 9.6379528830385173e+00 2.0748173015619074e+01 2.6797612900842673e+00 3 0 0
5548 1 1.0369788042777268e+01 2.2902232198376584e+01 1.5601855639458821e+00 1 2 1
432 1 3.0593384719143639e+00 4.4072147123575736e+00 5.8737661628844213e+00 -4 1 1
3110 1 1.2158229201618934e+01 3.1651828603538146e+00 2.2187670283713636e+00 2 -1 1
3939 1 7.4061980759925439e-01 3.6666555330656392e+00 4.8252781454642619e+00 -1 0 0
1324 1 4.6681013796611976e+00 2.1816861611198313e+00 5.0467667066587332e+00 -1 -1 1
1634 1 7.2561852008799397e+00 2.3471991235922829e+00 5.9690900982983033e+00 0 0 1
137 1 1.2181108667760153e+01 9.8561053613587752e+00 1.4656117994743136e+00 0 0 0
3746 1 1.1438434784910651e+01 5.8087100773336897e-01 5.8805372692620308e+00 1 3 0
5020 1 1.0804546040523057e+01 2.3080513674592414e+01 9.7233587659109002e+00 3 1 1
5149 1 4.3056307977256152e+00 6.4261794624166360e+00 4.9316131164097614e+00 2 -1 1
6360 1 6.8125003970261044e+00 6.6364141978090840e+00 5.9110856991943139e+00 0 -1 1
1554 1 8.2019566440208820e+00 4.6471522148454429e+00 4.8005306947593356e+00 0 -3 1
2137 1 1.0542226434862503e+01 4.9982865583678180e+00 6.0516033745372084e+00 2 1 0
1626 1 1.1625542414775477e+01 7.5597918193093125e+00 5.0113781091712646e+00 -1 1 1
5639 1 2.8271814511648108e+00 8.4555040661063714e+00 6.0926521707902825e+00 -1 2 1
3782 1 3.7526985326839641e+00 1.0997506332998469e+01 5.0419188974771814e+00 1 -3 1
1384 1 7.4065283761159266e+00 9.0787632798878040e+00 5.0732790634927216e+00 2 1 1
5136 1 6.2332413920143326e+00 1.1159587959508606e+01 6.1105623258131230e+00 2 0 1
542 1 1.0633648523187121e+01 1.1735436468143575e+01 4.9764889477388499e+00 1 3 1
5589 1 1.0019081594525751e+01 9.3421395347501139e+00 6.0807750536338272e+00 2 -1 0
5436 1 1.8751467290391470e+00 1.2930601743188051e+01 5.7207965104289684e+00 -2 1 0
2030 1 2.8204629087049518e+00 1.5371267090590552e+01 5.4295175241575793e+00 1 2 1
445 1 6.8694871894872129e+00 1.3549637330205924e+01 4.9403530811904570e+00 1 -1 0
2045 1 5.4563277182571479e+00 1.5449603582766962e+01 5.8792558965211041e+00 -1 -4 1
3626 1 9.3560445458212769e+00 1.3735118016020099e+01 5.7449165891267961e+00 2 1 0
5138 1 1.0238102366491230e+01 1.6006390508186449e+01 4.6367945548913401e+00 0 2 0
1537 1 6.5330190724391457e-01 2.1563691187719570e+01 9.0944044598157561e+00 0 -1 1
6501 1 1.3713267240690603e+00 1.7339083000266005e+01 6.4994037403262208e+00 1 -2 0
6359 1 2.4983149174777397e+00 1.9543800886682380e+01 5.4421887864230039e+00 2 -1 1
376 1 4.9331929015429079e+00 1.9656977056714815e+01 6.5620722872815884e+00 0 1 0
65 1 6.2521459001041695e+00 1.7895509680484061e+01 4.9936658552919946e+00 -2 -1 1
6417 1 8.9365437687809361e+00 1.8056288041933865e+01 6.1931839945224061e+00 -3 0 1
2195 1 8.1890715739046804e-01 2.1677471936815106e+01 6.2485488854344062e+00 -1 0 0
1561 1 1.5747173565606318e+00 2.3794708034263152e+01 5.1503047478393489e+00 2 -1 1
2044 1 1.1900175456461922e+01 1.4031199837653975e+01 9.5455546093166674e+00 1 -1 0
2155 1 5.7658211359423870e+00 2.1827493811502375e+01 5.2704295752352026e+00 4 0 0
2267 1 7.9497977230119252e+00 2.2666884096916039e+01 6.2781443205051595e+00 0 0 1
5523 1 9.2777763933538520e+00 2.0542050626679586e+01 5.4391099832671452e+00 -1 1 0
6690 1 6.5558556017829002e+00 2.4175830366321129e+01 9.9117661514273951e+00 0 -2 0
3318 1 2.1838663902557593e+00 2.0233245257907573e+00 9.8631538128350069e+00 -1 -1 1
3706 1 3.3541645830495681e+00 4.2494442879186121e+00 8.6514360907141690e+00 1 -4 0
1522 1 7.3388968900515534e+00 2.5754198089475326e+00 8.5425445087896321e+00 4 0 1
2098 1 1.1427142041530603e+01 5.5953406063701794e-01 8.4062834422261208e+00 2 0 0
6569 1 9.7758068724668217e+00 2.5066429442526941e+00 9.5415924271361092e+00 0 -2 1
4978 1 1.8268571147147106e+00 6.0862755883157620e+00 9.5292714973467945e+00 2 -1 0
2278 1 2.7628351159375621e+00 8.4914299733942880e+00 8.6868035157396282e+00 1 -1 0
1494 1 5.8853549763803574e+00 4.2743687991878101e+00 9.8249411909741724e+00 0 -1 1
5201 1 6.6708688258287818e+00 6.6049624360336354e+00 8.6611097496549796e+00 2 -1 0
2329 1 1.0881588178530299e+01 4.8274606187004796e+00 8.6544712605701068e+00 -2 1 1
4748 1 9.2657668188598237e+00 6.7496105300131966e+00 9.7843156496209058e+00 0 2 1
1306 1 1.0682102120498418e+00 1.0607979374759800e+01 9.4356479824455075e+00 -2 -2 1
1832 1 5.1986960677467646e+00 8.5315239574156045e+00 9.8033181877479958e+00 2 -1 0
2029 1 6.0073873029252098e+00 1.0777138968577868e+01 8.6922842845266430e+00 1 0 0
3514 1 8.7414593146611281e+00 1.1233679264948671e+01 9.4682362287627946e+00 2 2 1
1764 1 1.0303105473055190e+01 9.2289719443104108e+00 8.8293707376742177e+00 3 -1 0
3779 1 8.1948961017197099e+00 2.2304646411518235e+01 8.9603240732306446e+00 0 0 0
5171 1 3.2031400164787405e+00 2.1732939288036544e+01 1.0248118131639060e+01 5 -1 0
6432 1 1.7437054101321838e+00 1.2654128705399012e+01 8.3909603242162252e+00 2 0 1
4980 1 4.3125192946991291e+00 1.2866264557172059e+01 9.3171266736442480e+00 -2 -3 1
1541 1 5.5735598406228135e+00 1.5145166816721618e+01 8.4613955628638564e+00 1 3 0
2017 1 7.9279752827422341e+00 1.5434515509047316e+01 9.3866373074639373e+00 0 2 0
2064 1 4.0784836907619990e+00 2.3688378974336459e+01 6.1355679494135567e+00 1 2 0
3101 1 9.5255234063448455e+00 1.3757493954928439e+01 8.5255775654858112e+00 -1 1 1
3430 1 1.6406623201016890e+00 1.7069737994218844e+01 9.2335491689907077e+00 2 0 0
1517 1 4.1356463256965315e+00 1.7070508639723311e+01 9.8264320265093179e+00 2 -2 1
5577 1 5.0968570615133331e+00 1.9800775509552924e+01 9.1094173624171884e+00 0 -3 1
5009 1 7.6498567113472715e+00 1.9870415434201028e+01 9.9909315735695081e+00 -1 0 1
2995 1 1.1301490996367873e+01 1.8585248994960256e+01 9.8341694712527925e+00 -1 2 1
3648 1 9.0445251962425885e+00 1.7676135326348192e+01 8.8711797904503413e+00 0 -1 0
5252 1 6.7706992590029258e-01 1.5069362294215836e+01 1.5180930837750943e+00 1 3 0
2042 1 5.8356153272078326e-01 1.4595653307166058e+01 9.9167533828506631e+00 1 1 0
362 1 3.7596772722966132e-01 7.9524253113563637e+00 4.8684428515459830e+00 0 -2 0
3660 1 1.2011175843900180e+01 2.0821100854707566e+01 8.9268985742880425e+00 2 -3 0
6742 1 1.1885683851965705e+01 2.0938901723489444e+01 6.0580047935505910e+00 -1 -2 1
500 1 6.2408162449566387e+00 2.4350995186380729e+01 1.2151122531226866e+00 3 -2 0
1788 1 1.2381513104325633e+01 1.6332711809703380e+01 8.3753993373484530e+00 -3 1 1
6579 1 6.4168338643556915e+00 2.3993230290690093e-01 9.6226879894282558e+00 1 0 1
2065 1 6.3541843402510541e+00 3.2041410093636102e-01 1.2393895085089712e+00 1 3 0
1374 1 1.1865540933959769e+01 1.8298044731920946e+01 1.7244708858017916e+01 3 3 1
5143 1 2.2103462718060518e+00 1.4900988604751788e+00 1.2593863781894905e+01 2 0 0
2985 1 4.8922137792329261e+00 2.1573188417596283e+00 1.3122090778821807e+01 1 1 1
1867 1 1.2117411546628057e+01 1.4224691081243378e+01 1.2375684936073156e+01 1 0 0
1827 1 7.1390658466655577e+00 2.4273196945524347e+01 1.7425224927519917e+01 1 2 1
5117 1 1.5753643661602235e+00 5.8712370718628470e+00 1.2592747181146017e+01 2 2 0
3920 1 9.7033448233858763e+00 6.9580181193067832e+00 1.2429961267502685e+01 1 3 0
2141 1 4.2869677572810474e+00 6.5292628354468674e+00 1.3423856154463664e+01 -1 -1 0
5662 1 5.6564140668003828e+00 4.4012764962128399e+00 1.2528662065482992e+01 -1 1 1
2054 1 8.4060433096989957e+00 4.6524195992712256e+00 1.3235855690744438e+01 0 0 0
602 1 1.2340859716760866e+01 7.6078713866291787e+00 1.3422643743942414e+01 -3 4 1
409 1 9.5204871249981711e+00 3.1557520352460133e-01 2.3231740674690219e+01 3 2 1
1732 1 8.6869395902899509e+00 4.4959252983412439e+00 1.5756651486716541e+01 0 0 0
3659 1 3.6884823960413042e+00 1.0480121148770774e+01 1.3329822253629795e+01 2 -2 0
460 1 1.2793941983404320e+00 1.0086641097186522e+01 1.2302606673723258e+01 2 4 1
2201 1 5.4461241840429215e+00 8.6777319726149624e+00 1.2295106451651371e+01 -1 0 1
3691 1 8.0168898650943312e+00 9.1143268564953033e+00 1.3476364706328615e+01 -1 1 0
5258 1 1.1341164759302764e+01 1.1680752372126188e+01 1.3387010946897600e+01 1 0 0
5428 1 1.0277254152600156e+01 2.4733526255654006e+00 1.2449538353185646e+01 -1 2 1
5571 1 3.0757799924962272e+00 1.4712118226100296e+01 1.3694884485499802e+01 2 -4 1
5288 1 2.7319648354247965e+00 1.4682211454294054e+01 1.6570114694059832e+01 4 2 0
6467 1 1.0874248580802687e+01 2.2758158263558482e+01 1.2331229110561386e+01 -1 -1 0
1468 1 8.1145391882831088e+00 1.5598241046017051e+01 1.2299823684048828e+01 -4 0 1
3420 1 4.5567850326236981e+00 1.2766177814505143e+01 1.2392788563608356e+01 -1 0 0
1760 1 7.1576913854786062e+00 1.3498400861902351e+01 1.3426727269721988e+01 0 -1 1
6704 1 5.7824844627159888e-01 3.6871494682480090e+00 1.3376731236791183e+01 2 1 1
5040 1 1.1702300978844313e+01 1.1798131104119607e+01 1.6250498311303325e+01 -1 3 1
1632 1 4.0305003632524405e+00 1.6838713693031256e+01 1.2502210931869969e+01 1 3 1
1914 1 2.6608957513462528e+00 1.8595645190096377e+01 1.3477369321952354e+01 3 0 0
5145 1 2.5155383522617294e+00 1.8798976403178052e+01 1.6028546034813793e+01 -2 2 0
1994 1 6.7253394075479092e+00 1.7573013897576185e+01 1.3629246493269097e+01 1 -1 0
2075 1 7.2912318006483163e+00 2.0043872726701938e+01 1.2634741081218541e+01 0 1 0
5240 1 1.0879449270481986e+01 1.6293276065016563e+01 1.3192930736141449e+01 0 2 0
5630 1 1.1840596573700724e+01 1.8394243336076670e+01 1.2491802008452581e+01 0 -1 0
5241 1 3.4230609218359964e+00 2.1345336917308735e+01 1.2852143347216581e+01 0 -3 0
5014 1 1.8326217287048119e+00 2.3592934774038103e+01 1.3478184245437443e+01 0 3 1
6573 1 5.7270761333146849e+00 2.1865057154203285e+01 1.3596512695312601e+01 2 -4 1
1624 1 5.9183524827283280e+00 2.1673535658546641e+01 1.6389555010205868e+01 -1 0 0
3555 1 9.8983398418148365e+00 2.0438887713159392e+01 1.3416675080618560e+01 1 4 0
4775 1 1.2009864809296838e+01 1.8513287538235094e+01 1.9863024910543604e+01 0 -1 1
5448 1 2.4599337439600215e+00 1.4389476795609457e+00 1.6901763866101970e+01 -1 2 0
2068 1 7.1762336635106583e-01 3.3523213972683887e+00 1.5937991961635223e+01 -2 1 0
3522 1 2.4028056947078240e+00 8.3842708794660159e-01 1.9549524833118170e+01 0 0 1
4854 1 4.9127423190684700e+00 1.8481523911913122e+00 1.6135902925281453e+01 -1 -1 1
503 1 6.0417590797914000e+00 4.1879076469466447e+00 1.9921007612644878e+01 1 -1 0
1716 1 5.8995414896003631e+00 4.0338325293368360e+00 1.7181161632513984e+01 1 -4 0
3243 1 1.0650466943448581e+01 1.6191922134294440e+01 2.0495564535417579e+01 -1 -4 1
4960 1 1.0268563300510376e+01 2.4368022135000653e+00 1.6664803018007817e+01 -2 2 1
115 1 1.0358217088253802e+01 2.4876953224793956e+00 1.9522426551513682e+01 2 4 0
1747 1 1.4061831257452015e+00 5.8979805110963595e+00 1.6791772053471014e+01 1 1 0
5394 1 4.2401120138501911e+00 6.2925631545163103e+00 1.6273377745327554e+01 -3 3 0
1469 1 1.0044130756076303e+01 6.9022749130558827e+00 1.6955473229460367e+01 0 1 1
5169 1 1.0032190383416351e+01 7.1878889956214458e+00 1.9514568358295080e+01 0 0 0
3119 1 6.7936164842206663e+00 2.3841212953721691e+01 1.9948718321884357e+01 0 0 1
497 1 3.3632768825181083e+00 1.0383460370910218e+01 1.6103676508117626e+01 3 1 0
5407 1 9.5281807780002481e-01 9.7357892803468271e+00 1.6991075149243528e+01 -3 0 0
3609 1 1.1825048130914100e+00 9.6193329012027160e+00 1.9611234268816364e+01 -3 0 0
1413 1 5.5283719609345257e+00 8.6115662179365771e+00 1.6717806288911536e+01 -2 1 1
3642 1 8.3101579009051179e+00 8.8816988642263119e+00 1.5954937068773212e+01 -5 1 1
4905 1 5.4463317197838412e+00 8.5304641270816735e+00 1.9466203705057936e+01 -4 0 1
4875 1 9.1074518581437047e+00 1.1233390299605588e+01 1.7137070548736837e+01 1 0 1
3325 1 9.0170014152264013e+00 1.1221683345418992e+01 1.9684394310750914e+01 4 2 1
3841 1 1.0439947623210124e+01 2.0448775031152696e+01 2.0604310686196062e+01 -1 -3 0
3710 1 5.6627835390875783e+00 2.1213211546347875e+01 2.0845687885748394e+01 -3 3 0
566 1 7.4888118088832387e+00 1.3166480489375715e+01 1.6202606742921009e+01 1 1 1
2214 1 4.5168032293889526e+00 1.2756989104138084e+01 1.7151944683404025e+01 -2 -1 1
168 1 8.2597964277283253e+00 1.5561490950649340e+01 1.6956568466184979e+01 -1 0 0
5322 1 8.1754315695574782e+00 1.5487262320162648e+01 1.9713857388555187e+01 -1 -4 0
1876 1 1.0884087628317683e+01 1.6310804775871738e+01 1.6112482550383685e+01 -2 0 0
3079 1 4.2526027420219981e+00 1.6888471341660960e+01 1.7215801369662536e+01 -2 3 1
4920 1 4.0991880169651305e+00 1.6920874251538969e+01 1.9852916210034692e+01 -1 0 0
4742 1 6.7849505334519362e+00 1.7522017541923564e+01 1.6334946382238254e+01 0 3 0
3824 1 7.7218225843026218e+00 1.9867530264420331e+01 1.7494225820055778e+01 0 -1 0
2142 1 7.5693620589053277e+00 1.9549641785451467e+01 2.0147167408111141e+01 0 1 0
570 1 7.9296920517446701e+00 1.9650873379839656e+01 2.3667817831096919e+01 1 1 1
4851 1 8.1671004510289507e+00 9.1616280136740720e+00 2.3561014824090019e+01 0 -1 1
399 1 1.3968831590923556e+00 2.3195371347244418e+01 1.6160926130685727e+01 0 -4 0
3332 1 3.4950377461417257e+00 2.1384677848956045e+01 1.7248006676235942e+01 0 0 1
3851 1 3.1251401152717495e+00 2.1256198884065405e+01 1.9867244083189064e+01 1 3 0
1611 1 2.6173984944547818e-01 1.3820539788394942e+01 2.0291812873975836e+01 -2 1 0
3735 1 6.5083678881910894e+00 1.7223320278567314e+01 2.0865839859820429e+01 1 3 0
120 1 1.0229252358824802e+01 2.0221228266735952e+01 1.6202824193818522e+01 3 -1 0
140 1 1.1231765097456778e+01 2.2901811475160883e+01 1.9593578351058518e+01 2 0 0
1917 1 1.1484679085620330e+01 2.2639059125710258e+01 1.6990921192541524e+01 4 -1 1
2246 1 1.1453303118363096e+00 3.1342352571898844e+00 2.0368268604256787e+01 3 1 0
3248 1 1.0248957900728111e+00 2.8848910708790818e+00 2.3261441323397648e+01 -1 -4 1
104 1 5.1418289707503035e+00 1.3901835926949051e+00 2.3352612826713344e+01 1 2 0
24 1 4.9539666139651626e+00 1.6076584817422586e+00 2.0552685615699346e+01 0 -1 0
3167 1 8.6379305713154881e+00 1.1562872559466385e+01 1.2329227088600703e+01 1 1 1
3123 1 1.0537900843647135e+01 2.0041968590101177e+01 2.3234952702246790e+01 1 -1 1
3918 1 5.7121048567695203e+00 2.1382705436506029e+01 2.3396536602381037e+01 -1 3 0
4746 1 1.6783696716522050e+00 5.5890516743921292e+00 1.9497971668536337e+01 -1 0 1
2276 1 9.2445893370593577e+00 3.2861404719596299e-01 2.0613764726314397e+01 0 3 1
5195 1 4.3548538989540262e+00 6.1662419248989009e+00 2.0440213514068709e+01 -1 2 0
3250 1 4.3049483794396677e+00 5.9779920947381902e+00 2.3278127005043089e+01 -1 2 0
5238 1 2.3734364338513786e-01 1.4187817547732104e+01 1.2481491193498698e+01 -4 -2 0
5099 1 9.0234416989673498e+00 4.6751364079028912e+00 2.0564867738380904e+01 -3 2 0
3994 1 8.5372999423560394e+00 4.4359283373419931e+00 2.3230305900529768e+01 -1 -1 1
6422 1 6.5128838274278982e+00 1.7402853355835941e+01 2.3490665786967917e+01 2 1 1
2290 1 3.7721194366995712e+00 9.8970972302678888e+00 2.0777756676650657e+01 1 0 1
56 1 3.2988321311176501e+00 9.8658551844018376e+00 2.3380384533860031e+01 -1 1 0
3193 1 9.4762264772763718e+00 2.4308484613631666e+01 2.0879362105053868e+01 -2 3 1
3432 1 8.0430318389982247e+00 8.7658804038438198e+00 2.0476471974446891e+01 1 -2 0
5476 1 8.9310141754184098e+00 5.1597279704161148e-01 1.3507623900750209e+01 2 2 0
1377 1 1.1402762168477572e+01 1.2038129716979878e+01 2.0541167345860607e+01 -2 -1 1
3518 1 1.1313169722409683e+01 1.1536419153860168e+01 2.3060765881048422e+01 -2 4 1
6527 1 3.1249058695072280e+00 1.4386274708436156e+01 2.0587086273564989e+01 1 -2 1
5499 1 2.8634452462922657e+00 1.3986249666583813e+01 2.3520727017294863e+01 2 0 0
3345 1 2.1905884627519643e+00 1.8904302649816408e+01 2.0767447300729792e+01 -2 -1 1
1330 1 4.8340526972877411e+00 1.2471187776981919e+01 1.9920859902395311e+01 1 1 1
3224 1 7.2680450946794304e+00 1.3122484499754986e+01 2.3386065758595109e+01 -1 1 1
4947 1 7.2237760597034031e+00 1.3048705571157496e+01 2.0557668342125012e+01 0 1 1
4699 1 1.2863916126450190e+00 2.3150587133308861e+01 2.3659982332298483e+01 0 0 1
3970 1 1.0756006173598291e+01 1.5848457180592467e+01 2.3129167364112490e+01 2 0 1
2168 1 1.2951053717030903e+00 2.3171553350979593e+01 2.1135846648122367e+01 0 0 0
5441 1 2.2997812569879605e+00 1.8543278437974809e+01 2.3535958686571810e+01 2 -3 0
4915 1 4.8967225237890668e+00 1.2182604650032909e+01 2.3969823958550233e+01 -1 0 0
1378 1 1.7285133274592577e+00 5.4200160573068352e+00 2.3876432217661574e+01 1 2 1
5029 1 9.4113804333918285e+00 2.4503586697612345e+01 1.3798038557101664e+01 -1 1 0
6458 1 6.8007740265184085e+00 2.4174075186515253e+01 1.2818848515327403e+01 -1 2 1
4883 1 1.0480594994007607e+01 2.7389243886504828e+00 2.3799353513877929e+01 0 2 1
3439 1 1.1926877207619832e+01 6.9571442905406231e+00 2.3302922207343293e+01 0 -2 1
3482 1 9.1241060102319569e+00 2.4209474369723221e+01 2.3363971928373079e+01 1 1 1
3942 1 5.8269142877559572e+00 3.9115230498619593e+00 2.3947243882177709e+01 1 1 1
618 2 2.2573857312658419e-01 3.0404716195462118e+00 2.6739830892581452e+01 0 0 0
620 2 2.2573857312658419e-01 2.2481963978765407e-01 2.6739830892581452e+01 0 0 0
622 2 1.4449516444700876e+00 9.2873263472729350e-01 2.6739830892581452e+01 0 0 0
629 2 1.4449516444700876e+00 2.3365586246056189e+00 2.6739830892581452e+01 0 0 0
631 2 2.6641647158135910e+00 3.0404716195462118e+00 2.6739830892581452e+01 0 0 0
633 2 2.6641647158135910e+00 2.2481963978765407e-01 2.6739830892581452e+01 0 0 0
635 2 3.8833777871564350e+00 9.2873263472729350e-01 2.6739830892581452e+01 0 0 0
650 2 3.8833777871564350e+00 2.3365586246056189e+00 2.6739830892581452e+01 0 0 0
1416 1 9.4663009511991607e+00 6.9182140476576386e+00 2.4107503483104903e+01 1 0 1
652 2 5.1025908585005979e+00 3.0404716195462118e+00 2.6739830892581452e+01 0 0 0
654 2 5.1025908585005979e+00 2.2481963978765407e-01 2.6739830892581452e+01 0 0 0
656 2 6.3218039298446884e+00 9.2873263472729350e-01 2.6739830892581452e+01 0 0 0
679 2 6.3218039298446884e+00 2.3365586246056189e+00 2.6739830892581452e+01 0 0 0
681 2 7.5410170011862858e+00 3.0404716195462118e+00 2.6739830892581452e+01 0 0 0
683 2 7.5410170011862858e+00 2.2481963978765407e-01 2.6739830892581452e+01 0 0 0
685 2 8.7602300725334832e+00 9.2873263472729350e-01 2.6739830892581452e+01 0 0 0
716 2 8.7602300725334832e+00 2.3365586246056189e+00 2.6739830892581452e+01 0 0 0
718 2 9.9794431438746116e+00 3.0404716195462118e+00 2.6739830892581452e+01 0 0 0
720 2 9.9794431438746116e+00 2.2481963978765407e-01 2.6739830892581452e+01 0 0 0
722 2 1.1198656215221597e+01 9.2873263472729350e-01 2.6739830892581452e+01 0 0 0
761 2 1.1198656215221597e+01 2.3365586246056189e+00 2.6739830892581452e+01 0 0 0
763 2 1.2417869286562793e+01 3.0404716195462118e+00 2.6739830892581452e+01 0 0 0
765 2 1.2417869286562793e+01 2.2481963978765407e-01 2.6739830892581452e+01 0 0 0
502 1 2.2045973907886336e+00 4.0287179933741859e+00 3.5745474849472757e+01 -1 3 -1
623 2 2.2573857312658419e-01 7.2639495891824195e+00 2.6739830892581452e+01 0 0 0
625 2 2.2573857312658419e-01 4.4482976094235838e+00 2.6739830892581452e+01 0 0 0
627 2 1.4449516444700876e+00 5.1522106043630425e+00 2.6739830892581452e+01 0 0 0
642 2 1.4449516444700876e+00 6.5600365942405787e+00 2.6739830892581452e+01 0 0 0
644 2 2.6641647158135910e+00 7.2639495891824195e+00 2.6739830892581452e+01 0 0 0
646 2 2.6641647158135910e+00 4.4482976094235838e+00 2.6739830892581452e+01 0 0 0
648 2 3.8833777871564350e+00 5.1522106043630425e+00 2.6739830892581452e+01 0 0 0
671 2 3.8833777871564350e+00 6.5600365942405787e+00 2.6739830892581452e+01 0 0 0
673 2 5.1025908585005979e+00 7.2639495891824195e+00 2.6739830892581452e+01 0 0 0
675 2 5.1025908585005979e+00 4.4482976094235838e+00 2.6739830892581452e+01 0 0 0
677 2 6.3218039298446884e+00 5.1522106043630425e+00 2.6739830892581452e+01 0 0 0
708 2 6.3218039298446884e+00 6.5600365942405787e+00 2.6739830892581452e+01 0 0 0
710 2 7.5410170011862858e+00 7.2639495891824195e+00 2.6739830892581452e+01 0 0 0
712 2 7.5410170011862858e+00 4.4482976094235838e+00 2.6739830892581452e+01 0 0 0
5389 1 8.3730754104873846e+00 1.8108767689531533e+01 3.5964833039931740e+01 4 4 -1
714 2 8.7602300725334832e+00 5.1522106043630425e+00 2.6739830892581452e+01 0 0 0
753 2 8.7602300725334832e+00 6.5600365942405787e+00 2.6739830892581452e+01 0 0 0
755 2 9.9794431438746116e+00 7.2639495891824195e+00 2.6739830892581452e+01 0 0 0
757 2 9.9794431438746116e+00 4.4482976094235838e+00 2.6739830892581452e+01 0 0 0
759 2 1.1198656215221597e+01 5.1522106043630425e+00 2.6739830892581452e+01 0 0 0
800 2 1.1198656215221597e+01 6.5600365942405787e+00 2.6739830892581452e+01 0 0 0
802 2 1.2417869286562793e+01 7.2639495891824195e+00 2.6739830892581452e+01 0 0 0
804 2 1.2417869286562793e+01 4.4482976094235838e+00 2.6739830892581452e+01 0 0 0
636 2 2.2573857312658419e-01 1.1487427558821885e+01 2.6739830892581452e+01 0 0 0
638 2 2.2573857312658419e-01 8.6717755790595135e+00 2.6739830892581452e+01 0 0 0
640 2 1.4449516444700876e+00 9.3756885739991898e+00 2.6739830892581452e+01 0 0 0
663 2 1.4449516444700876e+00 1.0783514563877693e+01 2.6739830892581452e+01 0 0 0
665 2 2.6641647158135910e+00 1.1487427558821885e+01 2.6739830892581452e+01 0 0 0
667 2 2.6641647158135910e+00 8.6717755790595135e+00 2.6739830892581452e+01 0 0 0
669 2 3.8833777871564350e+00 9.3756885739991898e+00 2.6739830892581452e+01 0 0 0
700 2 3.8833777871564350e+00 1.0783514563877693e+01 2.6739830892581452e+01 0 0 0
1697 1 3.8877140477917775e+00 1.6563701411837712e+01 2.4143572671577882e+01 -2 -3 1
702 2 5.1025908585005979e+00 1.1487427558821885e+01 2.6739830892581452e+01 0 0 0
704 2 5.1025908585005979e+00 8.6717755790595135e+00 2.6739830892581452e+01 0 0 0
706 2 6.3218039298446884e+00 9.3756885739991898e+00 2.6739830892581452e+01 0 0 0
745 2 6.3218039298446884e+00 1.0783514563877693e+01 2.6739830892581452e+01 0 0 0
747 2 7.5410170011862858e+00 1.1487427558821885e+01 2.6739830892581452e+01 0 0 0
749 2 7.5410170011862858e+00 8.6717755790595135e+00 2.6739830892581452e+01 0 0 0
751 2 8.7602300725334832e+00 9.3756885739991898e+00 2.6739830892581452e+01 0 0 0
792 2 8.7602300725334832e+00 1.0783514563877693e+01 2.6739830892581452e+01 0 0 0
794 2 9.9794431438746116e+00 1.1487427558821885e+01 2.6739830892581452e+01 0 0 0
796 2 9.9794431438746116e+00 8.6717755790595135e+00 2.6739830892581452e+01 0 0 0
798 2 1.1198656215221597e+01 9.3756885739991898e+00 2.6739830892581452e+01 0 0 0
839 2 1.1198656215221597e+01 1.0783514563877693e+01 2.6739830892581452e+01 0 0 0
841 2 1.2417869286562793e+01 1.1487427558821885e+01 2.6739830892581452e+01 0 0 0
843 2 1.2417869286562793e+01 8.6717755790595135e+00 2.6739830892581452e+01 0 0 0
6461 1 8.4494111666545102e+00 1.5452093744352903e+01 2.4294551705615465e+01 -1 1 0
657 2 2.2573857312658419e-01 1.5710905528458285e+01 2.6739830892581452e+01 0 0 0
659 2 2.2573857312658419e-01 1.2895253548693503e+01 2.6739830892581452e+01 0 0 0
661 2 1.4449516444700876e+00 1.3599166543635636e+01 2.6739830892581452e+01 0 0 0
692 2 1.4449516444700876e+00 1.5006992533514957e+01 2.6739830892581452e+01 0 0 0
694 2 2.6641647158135910e+00 1.5710905528458285e+01 2.6739830892581452e+01 0 0 0
696 2 2.6641647158135910e+00 1.2895253548693503e+01 2.6739830892581452e+01 0 0 0
698 2 3.8833777871564350e+00 1.3599166543635636e+01 2.6739830892581452e+01 0 0 0
737 2 3.8833777871564350e+00 1.5006992533514957e+01 2.6739830892581452e+01 0 0 0
4992 1 1.1050232585666762e+01 2.2516997211451091e+01 2.4308838495923254e+01 2 -2 1
739 2 5.1025908585005979e+00 1.5710905528458285e+01 2.6739830892581452e+01 0 0 0
741 2 5.1025908585005979e+00 1.2895253548693503e+01 2.6739830892581452e+01 0 0 0
743 2 6.3218039298446884e+00 1.3599166543635636e+01 2.6739830892581452e+01 0 0 0
784 2 6.3218039298446884e+00 1.5006992533514957e+01 2.6739830892581452e+01 0 0 0
786 2 7.5410170011862858e+00 1.5710905528458285e+01 2.6739830892581452e+01 0 0 0
788 2 7.5410170011862858e+00 1.2895253548693503e+01 2.6739830892581452e+01 0 0 0
790 2 8.7602300725334832e+00 1.3599166543635636e+01 2.6739830892581452e+01 0 0 0
831 2 8.7602300725334832e+00 1.5006992533514957e+01 2.6739830892581452e+01 0 0 0
833 2 9.9794431438746116e+00 1.5710905528458285e+01 2.6739830892581452e+01 0 0 0
835 2 9.9794431438746116e+00 1.2895253548693503e+01 2.6739830892581452e+01 0 0 0
837 2 1.1198656215221597e+01 1.3599166543635636e+01 2.6739830892581452e+01 0 0 0
873 2 1.1198656215221597e+01 1.5006992533514957e+01 2.6739830892581452e+01 0 0 0
875 2 1.2417869286562793e+01 1.5710905528458285e+01 2.6739830892581452e+01 0 0 0
877 2 1.2417869286562793e+01 1.2895253548693503e+01 2.6739830892581452e+01 0 0 0
686 2 2.2573857312658419e-01 1.9934383498089208e+01 2.6739830892581452e+01 0 0 0
688 2 2.2573857312658419e-01 1.7118731518331373e+01 2.6739830892581452e+01 0 0 0
690 2 1.4449516444700876e+00 1.7822644513275105e+01 2.6739830892581452e+01 0 0 0
729 2 1.4449516444700876e+00 1.9230470503152134e+01 2.6739830892581452e+01 0 0 0
731 2 2.6641647158135910e+00 1.9934383498089208e+01 2.6739830892581452e+01 0 0 0
733 2 2.6641647158135910e+00 1.7118731518331373e+01 2.6739830892581452e+01 0 0 0
735 2 3.8833777871564350e+00 1.7822644513275105e+01 2.6739830892581452e+01 0 0 0
776 2 3.8833777871564350e+00 1.9230470503152134e+01 2.6739830892581452e+01 0 0 0
778 2 5.1025908585005979e+00 1.9934383498089208e+01 2.6739830892581452e+01 0 0 0
780 2 5.1025908585005979e+00 1.7118731518331373e+01 2.6739830892581452e+01 0 0 0
782 2 6.3218039298446884e+00 1.7822644513275105e+01 2.6739830892581452e+01 0 0 0
823 2 6.3218039298446884e+00 1.9230470503152134e+01 2.6739830892581452e+01 0 0 0
825 2 7.5410170011862858e+00 1.9934383498089208e+01 2.6739830892581452e+01 0 0 0
827 2 7.5410170011862858e+00 1.7118731518331373e+01 2.6739830892581452e+01 0 0 0
511 1 2.4677714543824041e+00 1.0417931045199675e+00 2.4202989518980065e+01 2 3 1
829 2 8.7602300725334832e+00 1.7822644513275105e+01 2.6739830892581452e+01 0 0 0
865 2 8.7602300725334832e+00 1.9230470503152134e+01 2.6739830892581452e+01 0 0 0
867 2 9.9794431438746116e+00 1.9934383498089208e+01 2.6739830892581452e+01 0 0 0
869 2 9.9794431438746116e+00 1.7118731518331373e+01 2.6739830892581452e+01 0 0 0
871 2 1.1198656215221597e+01 1.7822644513275105e+01 2.6739830892581452e+01 0 0 0
899 2 1.1198656215221597e+01 1.9230470503152134e+01 2.6739830892581452e+01 0 0 0
903 2 1.2417869286562793e+01 1.7118731518331373e+01 2.6739830892581452e+01 0 0 0
4750 1 2.9804772436232407e+00 2.1118302141720243e+01 2.4164467041408187e+01 -3 0 1
723 2 2.2573857312658419e-01 2.4157861467730935e+01 2.6739830892581452e+01 0 0 0
725 2 2.2573857312658419e-01 2.1342209487967732e+01 2.6739830892581452e+01 0 0 0
727 2 1.4449516444700876e+00 2.2046122482911887e+01 2.6739830892581452e+01 0 0 0
768 2 1.4449516444700876e+00 2.3453948472783654e+01 2.6739830892581452e+01 0 0 0
770 2 2.6641647158135910e+00 2.4157861467730935e+01 2.6739830892581452e+01 0 0 0
772 2 2.6641647158135910e+00 2.1342209487967732e+01 2.6739830892581452e+01 0 0 0
774 2 3.8833777871564350e+00 2.2046122482911887e+01 2.6739830892581452e+01 0 0 0