LAMMPS data file via write_data, version 16 Mar 2018, timestep = 8000000

4990 atoms
2 atom types

0.0000000000000000e+00 4.9219999999999999e+01 xlo xhi
0.0000000000000000e+00 4.9019635930410494e+01 ylo yhi
1.3093298104651367e+00 3.8690670189551398e+01 zlo zhi

Masses

1 18.015
2 12.01

Atoms # atomic

3060 1 3.8109998006477563e+00 1.4073467158791941e+00 3.0299697809369377e+00 3 1 1
4563 1 3.9198972287906555e+00 3.9802371129684242e+00 3.3718733356211845e+00 -1 3 0
1372 1 8.3388377262472542e+00 3.9000625407867662e+00 3.7033791377941756e+00 -2 3 1
514 1 8.1466672626916612e+00 1.2952236739131864e+00 2.8038362071665190e+00 -2 0 1
2710 1 6.1585801087718721e+00 2.3422671673879920e+00 1.0114580819740496e+01 -2 -1 1
1744 1 1.6174915215746073e+00 5.0873144165445074e+00 2.8537062156490576e+00 0 3 0
4217 1 1.6048448944469373e+00 7.7050086963792044e+00 3.7900395137255747e+00 4 -1 1
548 1 6.1470742386834045e+00 5.1413519227004425e+00 2.8554521067727716e+00 2 1 1
945 1 6.3270288905352059e+00 7.7327281150167000e+00 3.8427368573687164e+00 -1 -1 1
3885 1 1.0762758110490376e+01 4.7661484043873346e+00 2.7405229793584671e+00 -1 -3 0
3845 1 1.0580144007853612e+01 7.2915467534499276e+00 3.9766173441451613e+00 5 2 0
4659 1 4.0131882851757208e+00 1.1242184595163257e+01 3.6860184578022244e+00 3 -2 0
1870 1 3.9900657807809834e+00 8.7999229173577245e+00 2.8213892603758985e+00 0 -1 1
472 1 8.5944962807829004e+00 8.7027886879274909e+00 2.7226819475010826e+00 -1 0 1
121 1 8.3968514255439999e+00 1.1235463293156499e+01 6.7645709508108753e+00 -1 2 1
1864 1 8.5963327255590691e+00 1.1487628557240102e+01 3.8471448865756757e+00 0 0 0
870 1 1.4746867665401431e+00 2.4712605736449804e+00 7.3072288658462652e+00 0 2 1
1801 1 3.6944656520278354e+00 3.8003081445122624e+00 6.2384806862250501e+00 2 1 1
4657 1 5.9685424657929866e+00 1.0205188373146587e+01 7.5807875913986260e+00 -2 4 1
2629 1 5.9219524035249300e+00 2.4409793642374220e+00 7.2717244785483128e+00 2 0 1
2590 1 8.1818864183732778e+00 3.6460786487639472e+00 6.5495151212956539e+00 -2 2 1
4277 1 6.1779040597661039e+00 1.0061747193842322e+01 1.0221459602545746e+01 1 3 1
2684 1 1.0217865040909661e+01 2.4588777399674662e+00 7.5945785899148941e+00 0 0 0
1875 1 1.0242768405152370e+01 2.7261769057422591e+00 1.0564335013603445e+01 3 -1 1
2898 1 1.0701492199239730e+01 1.0040701343574559e+01 7.6432271840093247e+00 0 -2 1
1837 1 4.1167375090991039e+00 6.1082126825847300e+00 1.0110574270506472e+01 -1 1 0
49 1 1.4768540379347983e+00 7.4752410939016221e+00 6.4894147312038060e+00 -1 -2 -1
4200 1 3.7396362674890069e+00 6.2893039372116384e+00 7.2992514223507206e+00 1 -2 0
2563 1 1.6896969670145610e+00 1.0156126368728739e+01 1.0127781646750993e+01 -1 1 1
1394 1 6.1125396889354775e+00 7.7251319636372262e+00 6.3943192289087181e+00 2 -1 0
157 1 7.9707672430953593e+00 6.2399239889457814e+00 1.0457903030251133e+01 0 4 0
4227 1 8.0952185665181151e+00 6.1407103792787865e+00 7.5877399375542032e+00 -2 -3 0
1384 1 1.0598578356910746e+01 7.3001075619730003e+00 6.6757405444338627e+00 1 -1 1
134 1 1.6305801639395174e+00 1.0134365265022000e+01 7.4459478912047681e+00 -1 0 1
4532 1 3.8708626078487427e+00 1.1487006085550682e+01 6.4565001968143756e+00 0 3 1
3008 1 1.3541456822260238e+00 2.9296327386768564e+00 1.0063387977606405e+01 -1 -1 0
4599 1 1.0536250909729901e+01 1.0427447951060969e+01 1.0316503999593985e+01 1 1 1
3011 1 1.3474186768836720e+00 2.2443143465892990e-01 3.4506582997600916e+00 1 1 1
4253 1 1.2159600421064218e+00 5.6838055448089141e-02 6.2698222715395486e+00 3 -2 0
1242 1 3.4021512991969218e+00 2.3797627701449469e+00 1.4133465327802496e+01 -1 0 1
3811 1 1.1984358338124643e+00 1.0135228286564566e+00 1.3500393120800542e+01 0 -3 1
3495 1 3.8607062873200189e+00 3.5681666180531093e+00 1.1297190207975678e+01 5 -2 0
283 2 8.6134999999999984e+00 1.0656442593567498e+01 1.6868186681411224e+01 0 0 0
2621 1 5.2743640308816673e+00 6.0836094907274219e-01 1.3919258203518414e+01 2 -1 0
1795 1 8.0276146359448557e+00 3.7476620038355040e+00 1.1405944023460560e+01 -1 -2 0
2214 1 7.5737714813245356e+00 2.0628070845150850e+00 1.4102461521700649e+01 -3 -3 0
3357 1 9.9250318566421765e+00 6.9322421410659851e-01 1.3901474302655814e+01 0 1 1
1328 1 1.6391803262835003e+00 7.4784361799020083e+00 1.0910037801512706e+01 0 -2 1
921 1 1.4130209872102313e+00 6.9363957013355177e+00 1.3846771689473240e+01 -3 -3 1
3740 1 3.7278541829147618e+00 5.2374567338677327e+00 1.3865167857832221e+01 3 0 0
4375 1 5.7827752648633899e+00 6.6561381299065081e+00 1.4015712990125721e+01 -2 3 0
4618 1 7.8280899361053820e+00 4.7025138629059988e+00 1.4263958807888475e+01 5 2 1
3511 1 1.0034761679185118e+01 8.0725407833331673e+00 1.1167943504189308e+01 -2 1 0
941 1 1.0350623875094438e+01 5.6351831060053437e+00 1.4386043748623331e+01 -1 1 0
362 1 4.1420289078322599e+00 1.1238210976850528e+01 1.1293888169104489e+01 1 1 1
872 1 1.8008731103397195e+00 9.9070526783929367e+00 1.4377416587245039e+01 2 -2 1
1379 1 4.2438182444985131e+00 1.1224756666361291e+01 1.3891863243538673e+01 3 1 1
960 1 6.0667171949356486e+00 9.4189570093716171e+00 1.4609711161276278e+01 -2 0 1
4627 1 1.0642089201792176e+01 8.4565337029180778e+00 1.3858628411166839e+01 -3 0 0
3521 1 8.5425021345945051e+00 1.0497650608821964e+01 1.4121849649317641e+01 1 -4 0
4353 1 8.2478817821989932e+00 1.1369555033712812e+01 1.1324285650911753e+01 -4 3 0
193 2 0.0000000000000000e+00 2.8417180249513345e+00 1.6868186681411224e+01 0 0 0
194 2 0.0000000000000000e+00 0.0000000000000000e+00 1.6868186681411224e+01 0 0 0
195 2 1.2305000000000001e+00 7.1042950623783474e-01 1.6868186681411224e+01 0 0 0
199 2 1.2305000000000001e+00 2.1312885187134998e+00 1.6868186681411224e+01 0 0 0
200 2 2.4610000000000003e+00 2.8417180249513345e+00 1.6868186681411224e+01 0 0 0
201 2 2.4610000000000003e+00 0.0000000000000000e+00 1.6868186681411224e+01 0 0 0
202 2 3.6915000000000004e+00 7.1042950623783474e-01 1.6868186681411224e+01 0 0 0
210 2 3.6914999999999996e+00 2.1312885187134998e+00 1.6868186681411224e+01 0 0 0
211 2 4.9220000000000006e+00 2.8417180249513332e+00 1.6868186681411224e+01 0 0 0
212 2 4.9220000000000006e+00 0.0000000000000000e+00 1.6868186681411224e+01 0 0 0
213 2 6.1524999999999999e+00 7.1042950623783407e-01 1.6868186681411224e+01 0 0 0
225 2 6.1524999999999999e+00 2.1312885187134989e+00 1.6868186681411224e+01 0 0 0
226 2 7.3829999999999991e+00 2.8417180249513345e+00 1.6868186681411224e+01 0 0 0
227 2 7.3829999999999991e+00 0.0000000000000000e+00 1.6868186681411224e+01 0 0 0
228 2 8.6134999999999984e+00 7.1042950623783407e-01 1.6868186681411224e+01 0 0 0
244 2 8.6134999999999984e+00 2.1312885187135002e+00 1.6868186681411224e+01 0 0 0
245 2 9.8440000000000012e+00 2.8417180249513332e+00 1.6868186681411224e+01 0 0 0
246 2 9.8440000000000012e+00 0.0000000000000000e+00 1.6868186681411224e+01 0 0 0
247 2 1.1074500000000002e+01 7.1042950623783330e-01 1.6868186681411224e+01 0 0 0
267 2 1.1074500000000002e+01 2.1312885187135002e+00 1.6868186681411224e+01 0 0 0
197 2 0.0000000000000000e+00 4.2625770374269996e+00 1.6868186681411224e+01 0 0 0
198 2 1.2305000000000001e+00 4.9730065436648339e+00 1.6868186681411224e+01 0 0 0
206 2 1.2305000000000001e+00 6.3938655561404980e+00 1.6868186681411224e+01 0 0 0
208 2 2.4610000000000003e+00 4.2625770374269996e+00 1.6868186681411224e+01 0 0 0
209 2 3.6914999999999996e+00 4.9730065436648339e+00 1.6868186681411224e+01 0 0 0
221 2 3.6914999999999996e+00 6.3938655561404980e+00 1.6868186681411224e+01 0 0 0
196 2 0.0000000000000000e+00 7.1042950623783341e+00 1.6868186681411224e+01 0 0 0
207 2 2.4610000000000003e+00 7.1042950623783341e+00 1.6868186681411224e+01 0 0 0
223 2 4.9220000000000006e+00 4.2625770374269978e+00 1.6868186681411224e+01 0 0 0
224 2 6.1524999999999999e+00 4.9730065436648339e+00 1.6868186681411224e+01 0 0 0
240 2 6.1524999999999999e+00 6.3938655561404980e+00 1.6868186681411224e+01 0 0 0
242 2 7.3829999999999991e+00 4.2625770374269996e+00 1.6868186681411224e+01 0 0 0
222 2 4.9220000000000006e+00 7.1042950623783341e+00 1.6868186681411224e+01 0 0 0
241 2 7.3830000000000009e+00 7.1042950623783341e+00 1.6868186681411224e+01 0 0 0
243 2 8.6135000000000002e+00 4.9730065436648339e+00 1.6868186681411224e+01 0 0 0
263 2 8.6135000000000002e+00 6.3938655561404980e+00 1.6868186681411224e+01 0 0 0
265 2 9.8440000000000012e+00 4.2625770374270004e+00 1.6868186681411224e+01 0 0 0
266 2 1.1074500000000002e+01 4.9730065436648339e+00 1.6868186681411224e+01 0 0 0
287 2 1.1074500000000002e+01 6.3938655561404980e+00 1.6868186681411224e+01 0 0 0
264 2 9.8440000000000012e+00 7.1042950623783341e+00 1.6868186681411224e+01 0 0 0
204 2 0.0000000000000000e+00 8.5251540748539991e+00 1.6868186681411224e+01 0 0 0
205 2 1.2305000000000001e+00 9.2355835810918343e+00 1.6868186681411224e+01 0 0 0
219 2 2.4610000000000003e+00 8.5251540748539991e+00 1.6868186681411224e+01 0 0 0
220 2 3.6915000000000004e+00 9.2355835810918343e+00 1.6868186681411224e+01 0 0 0
203 2 0.0000000000000000e+00 1.1366872099805333e+01 1.6868186681411224e+01 0 0 0
217 2 1.2305000000000001e+00 1.0656442593567498e+01 1.6868186681411224e+01 0 0 0
218 2 2.4610000000000003e+00 1.1366872099805333e+01 1.6868186681411224e+01 0 0 0
236 2 3.6914999999999996e+00 1.0656442593567499e+01 1.6868186681411224e+01 0 0 0
238 2 4.9220000000000006e+00 8.5251540748539991e+00 1.6868186681411224e+01 0 0 0
239 2 6.1524999999999999e+00 9.2355835810918343e+00 1.6868186681411224e+01 0 0 0
260 2 7.3829999999999991e+00 1.1366872099805333e+01 1.6868186681411224e+01 0 0 0
261 2 7.3830000000000009e+00 8.5251540748539991e+00 1.6868186681411224e+01 0 0 0
237 2 4.9220000000000006e+00 1.1366872099805333e+01 1.6868186681411224e+01 0 0 0
259 2 6.1524999999999999e+00 1.0656442593567499e+01 1.6868186681411224e+01 0 0 0
308 2 1.2304999999999998e+01 1.1366872099805333e+01 1.6868186681411224e+01 0 0 0
307 2 1.1074500000000002e+01 1.0656442593567498e+01 1.6868186681411224e+01 0 0 0
262 2 8.6134999999999984e+00 9.2355835810918343e+00 1.6868186681411224e+01 0 0 0
284 2 9.8440000000000012e+00 1.1366872099805333e+01 1.6868186681411224e+01 0 0 0
285 2 9.8440000000000012e+00 8.5251540748539956e+00 1.6868186681411224e+01 0 0 0
286 2 1.1074500000000002e+01 9.2355835810918343e+00 1.6868186681411224e+01 0 0 0
396 1 6.1822596840071817e+00 7.4887767661832001e+00 1.1445931761216352e+01 0 2 1
4262 1 1.3529498634815222e+00 6.2239953030915529e-01 1.0845438042152072e+01 0 -4 1
549 2 0.0000000000000000e+00 1.4208590124756650e+00 2.0029216434818853e+01 0 0 0
550 2 0.0000000000000000e+00 0.0000000000000000e+00 2.0029216434818853e+01 0 0 0
554 2 1.2305000000000001e+00 2.1312885187134998e+00 2.0029216434818853e+01 0 0 0
555 2 2.4610000000000003e+00 1.4208590124756650e+00 2.0029216434818853e+01 0 0 0
556 2 2.4610000000000003e+00 0.0000000000000000e+00 2.0029216434818853e+01 0 0 0
564 2 3.6914999999999996e+00 2.1312885187134998e+00 2.0029216434818853e+01 0 0 0
710 2 0.0000000000000000e+00 2.8417180249513345e+00 2.3190246188222048e+01 0 0 0
711 2 0.0000000000000000e+00 0.0000000000000000e+00 2.3190246188222048e+01 0 0 0
712 2 1.2305000000000001e+00 7.1042950623783474e-01 2.3190246188222048e+01 0 0 0
716 2 1.2305000000000001e+00 2.1312885187134998e+00 2.3190246188222048e+01 0 0 0
717 2 2.4610000000000003e+00 2.8417180249513345e+00 2.3190246188222048e+01 0 0 0
718 2 2.4610000000000003e+00 0.0000000000000000e+00 2.3190246188222048e+01 0 0 0
719 2 3.6915000000000004e+00 7.1042950623783474e-01 2.3190246188222048e+01 0 0 0
727 2 3.6914999999999996e+00 2.1312885187134998e+00 2.3190246188222048e+01 0 0 0
553 2 1.2305000000000001e+00 3.5521475311891644e+00 2.0029216434818853e+01 0 0 0
563 2 3.6914999999999996e+00 3.5521475311891644e+00 2.0029216434818853e+01 0 0 0
565 2 4.9220000000000006e+00 1.4208590124756650e+00 2.0029216434818853e+01 0 0 0
566 2 4.9220000000000006e+00 0.0000000000000000e+00 2.0029216434818853e+01 0 0 0
578 2 6.1524999999999999e+00 2.1312885187134989e+00 2.0029216434818853e+01 0 0 0
579 2 7.3829999999999991e+00 1.4208590124756659e+00 2.0029216434818853e+01 0 0 0
580 2 7.3829999999999991e+00 0.0000000000000000e+00 2.0029216434818853e+01 0 0 0
728 2 4.9220000000000006e+00 2.8417180249513332e+00 2.3190246188222048e+01 0 0 0
729 2 4.9220000000000006e+00 0.0000000000000000e+00 2.3190246188222048e+01 0 0 0
730 2 6.1524999999999999e+00 7.1042950623783407e-01 2.3190246188222048e+01 0 0 0
742 2 6.1524999999999999e+00 2.1312885187134989e+00 2.3190246188222048e+01 0 0 0
743 2 7.3829999999999991e+00 2.8417180249513345e+00 2.3190246188222048e+01 0 0 0
744 2 7.3829999999999991e+00 0.0000000000000000e+00 2.3190246188222048e+01 0 0 0
577 2 6.1524999999999999e+00 3.5521475311891644e+00 2.0029216434818853e+01 0 0 0
596 2 8.6134999999999984e+00 2.1312885187135002e+00 2.0029216434818853e+01 0 0 0
597 2 9.8440000000000012e+00 1.4208590124756659e+00 2.0029216434818853e+01 0 0 0
598 2 9.8440000000000012e+00 0.0000000000000000e+00 2.0029216434818853e+01 0 0 0
618 2 1.1074500000000002e+01 2.1312885187135002e+00 2.0029216434818853e+01 0 0 0
745 2 8.6134999999999984e+00 7.1042950623783407e-01 2.3190246188222048e+01 0 0 0
761 2 8.6134999999999984e+00 2.1312885187135002e+00 2.3190246188222048e+01 0 0 0
762 2 9.8440000000000012e+00 2.8417180249513332e+00 2.3190246188222048e+01 0 0 0
763 2 9.8440000000000012e+00 0.0000000000000000e+00 2.3190246188222048e+01 0 0 0
764 2 1.1074500000000002e+01 7.1042950623783330e-01 2.3190246188222048e+01 0 0 0
784 2 1.1074500000000002e+01 2.1312885187135002e+00 2.3190246188222048e+01 0 0 0
595 2 8.6134999999999984e+00 3.5521475311891657e+00 2.0029216434818853e+01 0 0 0
617 2 1.1074500000000002e+01 3.5521475311891644e+00 2.0029216434818853e+01 0 0 0
551 2 0.0000000000000000e+00 5.6834360499026637e+00 2.0029216434818853e+01 0 0 0
552 2 0.0000000000000000e+00 4.2625770374269996e+00 2.0029216434818853e+01 0 0 0
560 2 1.2305000000000001e+00 6.3938655561404980e+00 2.0029216434818853e+01 0 0 0
561 2 2.4610000000000003e+00 5.6834360499026637e+00 2.0029216434818853e+01 0 0 0
562 2 2.4610000000000003e+00 4.2625770374269996e+00 2.0029216434818853e+01 0 0 0
574 2 3.6914999999999996e+00 6.3938655561404980e+00 2.0029216434818853e+01 0 0 0
714 2 0.0000000000000000e+00 4.2625770374269996e+00 2.3190246188222048e+01 0 0 0
715 2 1.2305000000000001e+00 4.9730065436648339e+00 2.3190246188222048e+01 0 0 0
723 2 1.2305000000000001e+00 6.3938655561404980e+00 2.3190246188222048e+01 0 0 0
725 2 2.4610000000000003e+00 4.2625770374269996e+00 2.3190246188222048e+01 0 0 0
726 2 3.6914999999999996e+00 4.9730065436648339e+00 2.3190246188222048e+01 0 0 0
738 2 3.6914999999999996e+00 6.3938655561404980e+00 2.3190246188222048e+01 0 0 0
559 2 1.2305000000000001e+00 7.8147245686161639e+00 2.0029216434818853e+01 0 0 0
573 2 3.6914999999999996e+00 7.8147245686161639e+00 2.0029216434818853e+01 0 0 0
713 2 0.0000000000000000e+00 7.1042950623783341e+00 2.3190246188222048e+01 0 0 0
724 2 2.4610000000000003e+00 7.1042950623783341e+00 2.3190246188222048e+01 0 0 0
575 2 4.9220000000000006e+00 5.6834360499026637e+00 2.0029216434818853e+01 0 0 0
576 2 4.9220000000000006e+00 4.2625770374269978e+00 2.0029216434818853e+01 0 0 0
592 2 6.1524999999999999e+00 6.3938655561404980e+00 2.0029216434818853e+01 0 0 0
593 2 7.3829999999999991e+00 5.6834360499026637e+00 2.0029216434818853e+01 0 0 0
594 2 7.3829999999999991e+00 4.2625770374269996e+00 2.0029216434818853e+01 0 0 0
740 2 4.9220000000000006e+00 4.2625770374269978e+00 2.3190246188222048e+01 0 0 0
741 2 6.1524999999999999e+00 4.9730065436648339e+00 2.3190246188222048e+01 0 0 0
757 2 6.1524999999999999e+00 6.3938655561404980e+00 2.3190246188222048e+01 0 0 0
759 2 7.3829999999999991e+00 4.2625770374269996e+00 2.3190246188222048e+01 0 0 0
591 2 6.1524999999999999e+00 7.8147245686161639e+00 2.0029216434818853e+01 0 0 0
739 2 4.9220000000000006e+00 7.1042950623783341e+00 2.3190246188222048e+01 0 0 0
758 2 7.3830000000000009e+00 7.1042950623783341e+00 2.3190246188222048e+01 0 0 0
614 2 8.6135000000000002e+00 6.3938655561404980e+00 2.0029216434818853e+01 0 0 0
615 2 9.8440000000000012e+00 5.6834360499026637e+00 2.0029216434818853e+01 0 0 0
616 2 9.8440000000000012e+00 4.2625770374270004e+00 2.0029216434818853e+01 0 0 0
637 2 1.1074500000000002e+01 6.3938655561404980e+00 2.0029216434818853e+01 0 0 0
760 2 8.6135000000000002e+00 4.9730065436648339e+00 2.3190246188222048e+01 0 0 0
780 2 8.6135000000000002e+00 6.3938655561404980e+00 2.3190246188222048e+01 0 0 0
782 2 9.8440000000000012e+00 4.2625770374270004e+00 2.3190246188222048e+01 0 0 0
783 2 1.1074500000000002e+01 4.9730065436648339e+00 2.3190246188222048e+01 0 0 0
804 2 1.1074500000000002e+01 6.3938655561404980e+00 2.3190246188222048e+01 0 0 0
613 2 8.6135000000000002e+00 7.8147245686161639e+00 2.0029216434818853e+01 0 0 0
636 2 1.1074500000000002e+01 7.8147245686161639e+00 2.0029216434818853e+01 0 0 0
781 2 9.8440000000000012e+00 7.1042950623783341e+00 2.3190246188222048e+01 0 0 0
557 2 0.0000000000000000e+00 9.9460130873296642e+00 2.0029216434818853e+01 0 0 0
558 2 0.0000000000000000e+00 8.5251540748539991e+00 2.0029216434818853e+01 0 0 0
571 2 2.4610000000000003e+00 9.9460130873296642e+00 2.0029216434818853e+01 0 0 0
572 2 2.4610000000000003e+00 8.5251540748539991e+00 2.0029216434818853e+01 0 0 0
721 2 0.0000000000000000e+00 8.5251540748539991e+00 2.3190246188222048e+01 0 0 0
722 2 1.2305000000000001e+00 9.2355835810918343e+00 2.3190246188222048e+01 0 0 0
736 2 2.4610000000000003e+00 8.5251540748539991e+00 2.3190246188222048e+01 0 0 0
737 2 3.6915000000000004e+00 9.2355835810918343e+00 2.3190246188222048e+01 0 0 0
569 2 1.2305000000000001e+00 1.2077301606043163e+01 2.0029216434818853e+01 0 0 0
570 2 1.2305000000000001e+00 1.0656442593567498e+01 2.0029216434818853e+01 0 0 0
587 2 3.6914999999999996e+00 1.2077301606043163e+01 2.0029216434818853e+01 0 0 0
588 2 3.6914999999999996e+00 1.0656442593567499e+01 2.0029216434818853e+01 0 0 0
720 2 0.0000000000000000e+00 1.1366872099805333e+01 2.3190246188222048e+01 0 0 0
734 2 1.2305000000000001e+00 1.0656442593567498e+01 2.3190246188222048e+01 0 0 0
735 2 2.4610000000000003e+00 1.1366872099805333e+01 2.3190246188222048e+01 0 0 0
753 2 3.6914999999999996e+00 1.0656442593567499e+01 2.3190246188222048e+01 0 0 0
589 2 4.9220000000000006e+00 9.9460130873296642e+00 2.0029216434818853e+01 0 0 0
590 2 4.9220000000000006e+00 8.5251540748539991e+00 2.0029216434818853e+01 0 0 0
611 2 7.3830000000000009e+00 9.9460130873296642e+00 2.0029216434818853e+01 0 0 0
612 2 7.3830000000000009e+00 8.5251540748539991e+00 2.0029216434818853e+01 0 0 0
755 2 4.9220000000000006e+00 8.5251540748539991e+00 2.3190246188222048e+01 0 0 0
756 2 6.1524999999999999e+00 9.2355835810918343e+00 2.3190246188222048e+01 0 0 0
778 2 7.3830000000000009e+00 8.5251540748539991e+00 2.3190246188222048e+01 0 0 0
609 2 6.1524999999999999e+00 1.2077301606043163e+01 2.0029216434818853e+01 0 0 0
610 2 6.1524999999999999e+00 1.0656442593567499e+01 2.0029216434818853e+01 0 0 0
754 2 4.9220000000000006e+00 1.1366872099805333e+01 2.3190246188222048e+01 0 0 0
776 2 6.1524999999999999e+00 1.0656442593567499e+01 2.3190246188222048e+01 0 0 0
777 2 7.3829999999999991e+00 1.1366872099805333e+01 2.3190246188222048e+01 0 0 0
634 2 9.8440000000000012e+00 9.9460130873296642e+00 2.0029216434818853e+01 0 0 0
635 2 9.8440000000000012e+00 8.5251540748539956e+00 2.0029216434818853e+01 0 0 0
779 2 8.6134999999999984e+00 9.2355835810918343e+00 2.3190246188222048e+01 0 0 0
802 2 9.8440000000000012e+00 8.5251540748539956e+00 2.3190246188222048e+01 0 0 0
803 2 1.1074500000000002e+01 9.2355835810918343e+00 2.3190246188222048e+01 0 0 0
632 2 8.6135000000000002e+00 1.2077301606043163e+01 2.0029216434818853e+01 0 0 0
633 2 8.6134999999999984e+00 1.0656442593567498e+01 2.0029216434818853e+01 0 0 0
655 2 1.1074500000000002e+01 1.2077301606043163e+01 2.0029216434818853e+01 0 0 0
656 2 1.1074500000000002e+01 1.0656442593567498e+01 2.0029216434818853e+01 0 0 0
800 2 8.6134999999999984e+00 1.0656442593567498e+01 2.3190246188222048e+01 0 0 0
801 2 9.8440000000000012e+00 1.1366872099805333e+01 2.3190246188222048e+01 0 0 0
824 2 1.1074500000000002e+01 1.0656442593567498e+01 2.3190246188222048e+01 0 0 0
825 2 1.2304999999999998e+01 1.1366872099805333e+01 2.3190246188222048e+01 0 0 0
3840 1 1.2465764203586427e+00 2.1969091595612920e+00 2.5551832004927430e+01 0 1 0
163 1 3.5662545461122597e+00 9.3906006272715004e-01 2.6153135522423657e+01 1 0 -1
495 1 5.7827545605614281e+00 4.8182339850408953e+00 2.9233582710111985e+01 3 -1 0
4566 1 5.5474923668127705e+00 2.7133875591932881e+00 2.5529637591995193e+01 1 -3 0
1039 1 7.7767722370943826e+00 1.4107426629847932e+00 2.6380939217060490e+01 1 1 -2
3852 1 1.3411449348349587e+00 4.8839829563791968e+00 2.9109226751062664e+01 0 -2 0
1017 1 1.0170821180605445e+01 2.4761549426160530e+00 2.5632094974818447e+01 1 2 0
3540 1 1.1213763255775173e+00 4.8548632194981245e+00 2.6428003822921699e+01 4 2 0
2716 1 3.3047468588757849e+00 6.3592857876270941e+00 2.5543919724353572e+01 1 1 -2
4291 1 1.0332418683370515e+01 4.8483138544645126e+00 2.9180783287564250e+01 3 0 -1
909 1 5.5140998998758102e+00 5.1705026448700764e+00 2.6573098970340574e+01 1 4 -1
14 1 7.7686233144918733e+00 6.5219363281118401e+00 2.5827693850755303e+01 -2 1 -1
2879 1 1.0013731307159869e+01 1.0555546061926096e+01 2.5354383772919238e+01 -3 -4 0
109 1 1.0276338985650778e+01 5.1871368568372489e+00 2.6354443521701167e+01 1 -2 -1
1710 1 8.0256075064442971e+00 9.1307553577293774e+00 2.6458066954963034e+01 0 -1 -1
2720 1 3.7865079856908381e+00 8.6015612504137984e+00 2.9094896073883962e+01 2 -2 0
4204 1 1.9428286625215434e+00 1.0503333471517690e+01 2.5543110571129631e+01 -3 3 0
2653 1 3.8270718364594121e+00 8.9627741856972882e+00 2.6265929701633436e+01 1 4 0
3483 1 8.1286512970338070e+00 8.8293138955222492e+00 2.9265869508734767e+01 1 -1 -1
2247 1 5.8743570441207114e+00 1.0643937303766926e+01 2.5686182010727848e+01 3 1 0
4363 1 3.5698552365593748e+00 1.1972295960032968e+00 2.8958186612387173e+01 1 3 -1
2 1 7.9015232822813299e+00 9.5311690109722336e-01 2.9046610670655600e+01 1 1 -1
115 1 1.2069548156412552e+01 9.0288187379790337e+00 2.6261473256219737e+01 -1 -4 0
4575 1 1.2235086474334043e+01 6.1750337423625723e+00 2.5228130877607775e+01 -3 3 0
36 1 1.5104332032387342e+00 2.6420818909354118e+00 3.3348558193706772e+01 -2 1 0
2638 1 3.6794633420100649e+00 3.6698826507440914e+00 3.0029791633328152e+01 -4 2 -1
4194 1 3.7812260344666102e+00 3.9295538901209337e+00 3.2818497186611751e+01 -1 2 -1
1009 1 5.8755428672703571e+00 2.7382984722371435e+00 3.3779930123106581e+01 0 -1 -1
140 1 8.1508454455054302e+00 3.4777219785465823e+00 2.9836105448514548e+01 3 2 0
3528 1 8.0628901468500693e+00 3.6973597136950076e+00 3.2654474129330048e+01 2 -1 -1
1030 1 8.6596798737513510e+00 8.9393833690844762e+00 3.7369056272865151e+01 4 -2 0
2163 1 1.0150865886413914e+01 2.4896809880574358e+00 3.3212405061767100e+01 -1 -1 0
3025 1 1.5837183643584383e+00 7.5343677401407678e+00 3.2887560266723824e+01 -2 0 -1
1378 1 3.8314367248377503e+00 6.4239164860275251e+00 3.3749142952935770e+01 -1 0 0
3859 1 1.4248302304102409e+00 7.4127577483796205e+00 2.9967982993708006e+01 -1 -1 -1
1835 1 6.1540975137493579e+00 7.5258791640776543e+00 3.2771734425446780e+01 2 1 -1
7 1 6.0189785247618888e+00 7.2966103869149768e+00 3.0279567595710226e+01 -2 -1 -1
973 1 8.2752552569184648e+00 6.3014450340360693e+00 3.3636248796144152e+01 1 2 0
1706 1 1.0380846030499756e+01 7.6136812267563299e+00 3.2639705454286400e+01 -2 3 -1
508 1 1.0403030240488524e+01 7.4752322577824444e+00 2.9979505302489052e+01 1 -1 0
1895 1 1.7243323842708123e+00 1.0115582580468661e+01 3.3790911640453857e+01 0 2 -1
880 1 3.8751858392352587e+00 1.1549834586908281e+01 3.2656239214977532e+01 -1 6 -1
1831 1 3.9250020406410018e+00 1.1313926565409837e+01 2.9958675707177054e+01 1 2 -1
4630 1 6.2287416769486121e+00 1.0314238745415553e+01 3.3554824590381152e+01 2 1 0
3494 1 8.4890098072177622e+00 1.1465004629900355e+01 3.2397042155566652e+01 -3 1 0
64 1 1.0732471796805685e+01 1.0218026339686968e+01 3.3713222801904593e+01 2 1 0
901 1 6.3238690707938892e+00 1.0045609384667067e+01 3.6190416697299923e+01 -2 3 -1
449 1 1.3225176928616691e+00 2.7686158745035510e+00 3.6267848918708253e+01 -2 -1 0
167 1 3.4850986865407538e+00 1.3724264714701317e+00 3.7523367747331008e+01 -2 2 -1
491 1 5.8467710423074166e+00 2.7485218906181319e+00 3.6691620913345922e+01 1 1 0
891 1 8.3166120512159214e+00 1.2279192847506215e+00 3.7379987728035381e+01 -4 -3 -1
2137 1 1.0472019427056818e+01 2.5897316452834729e+00 3.6046674801692077e+01 0 1 -1
1199 1 1.0867831241946602e+01 9.9180043466568666e+00 3.6273248490628660e+01 3 -3 0
3758 1 1.5801850220963971e+00 5.2769837532067871e+00 3.7465359861936733e+01 3 -1 0
1315 1 3.8617016566296463e+00 6.2477749218165339e+00 3.6410359650703434e+01 -2 -1 0
1008 1 6.1368789844014655e+00 5.2617954893192289e+00 3.7502348196013735e+01 -5 0 0
1344 1 8.4903538569576824e+00 6.4473942047171855e+00 3.6635149690768209e+01 0 -1 0
2589 1 1.0896582778333586e+01 5.0618082765977093e+00 3.7166683466256778e+01 0 -3 0
4693 1 4.1383599764867789e+00 8.7853332549102863e+00 3.7285427342689772e+01 4 2 -1
2963 1 1.9198560893654726e+00 1.0153388797655349e+01 3.6674922176512190e+01 1 2 1
4584 1 8.4294785660978722e+00 1.1387935814999524e+01 2.9809420815149110e+01 -1 2 0
4232 1 1.4475724528743947e+00 9.5430927353540085e-02 3.2810011287451417e+01 -2 0 -1
1254 1 1.0165961448044074e+01 2.8572369613300452e-02 3.0095682681950084e+01 0 -1 0
4535 1 1.5015569187909781e+00 1.5113570483009337e+01 3.9216798544414702e+00 -2 3 0
989 1 3.9807874189198587e+00 1.6077322225811177e+01 3.1231328586111955e+00 6 0 0
2155 1 8.7512095652280770e+00 2.1211745983724995e+01 1.0502585492219570e+01 -1 -3 1
3879 1 6.4547154137348270e+00 1.5332082203604610e+01 3.6464068156293319e+00 0 1 1
3499 1 1.0777112304432062e+01 1.5009273879238210e+01 3.2664563640727255e+00 -2 0 0
4555 1 8.8032946987764529e+00 1.6453289178223805e+01 2.5526571280882209e+00 1 -3 1
2055 1 1.0884422136015779e+01 2.2416925051894026e+01 6.5773575470873515e+00 -2 2 1
83 1 2.0393826822406433e+00 1.9725276954193422e+01 3.1378695521537519e+00 1 0 0
130 1 4.1974250471533319e+00 1.8779602173352913e+01 4.0861628951492186e+00 0 -3 1
1246 1 6.6388061076219076e+00 1.9905664536394443e+01 2.8993546693605503e+00 -4 1 1
1763 1 9.1129196861921358e+00 1.9015593318815391e+01 3.8059541067783829e+00 3 0 0
1766 1 1.1382129814173682e+01 2.0372090922882151e+01 2.6023926303481542e+00 1 2 0
1338 1 2.2732441798055749e+00 2.2480334670879881e+01 3.7594120308167693e+00 -1 1 1
2997 1 4.3059629833758626e+00 2.3640453974357641e+01 2.6135912246795003e+00 1 -4 1
1741 1 6.4238401489215731e+00 2.2436777117071344e+01 3.4853582721567480e+00 1 -2 0
2603 1 1.1317558054064348e+01 2.2744158444491354e+01 3.9687345335470856e+00 3 -1 0
503 1 8.8358380919168926e+00 2.3630434007060213e+01 2.6605044648692857e+00 2 0 2
3544 1 1.0914426056121032e+01 1.2302698622047224e+01 2.7107601107678327e+00 2 3 0
3743 1 1.6204725763930434e+00 1.4801268616298220e+01 6.7610327516788349e+00 -2 0 1
2926 1 4.2197445835448253e+00 1.3929419479361044e+01 7.4557002955926626e+00 1 0 2
51 1 6.4166834283866745e+00 1.5286445109176487e+01 6.5309610461854533e+00 -4 3 0
3791 1 6.4531656354114233e+00 1.7715829757690305e+01 1.0412191509252915e+01 0 -2 0
2588 1 8.7697265624215053e+00 1.3882220916263437e+01 7.2110378603602152e+00 -3 2 1
2236 1 1.1088252637199076e+01 1.5339120847720467e+01 6.0713569536171397e+00 -3 2 0
1836 1 2.1577980586178325e+00 1.7424380318455068e+01 7.7820145173497171e+00 1 -4 0
2195 1 4.0023357279760337e+00 1.8887842321207430e+01 6.6871551321131211e+00 0 0 0
4361 1 1.0919821754921031e+01 1.7033455005432458e+01 9.9245716614659649e+00 0 1 0
2675 1 8.4945757007754974e+00 2.1414541021576820e+01 7.6373308209693489e+00 4 4 1
3404 1 6.3913062820432804e+00 1.7631333914425564e+01 7.6042504155716450e+00 0 1 1
5 1 8.5798856707653925e+00 1.8774417830392252e+01 6.5920378295286586e+00 3 -1 0
2167 1 1.0950166825347051e+01 1.7587854209648633e+01 7.3815782507634928e+00 -1 -6 1
1215 1 6.0891118553937575e+00 1.2586658469761247e+01 2.7226699852056386e+00 4 -3 0
1370 1 2.0136931332236125e+00 2.2450338039553415e+01 6.5721168469414062e+00 0 2 1
2197 1 3.1185746022947880e-01 2.3991868452677963e+01 2.6028467023945279e+00 -1 1 1
2693 1 4.1804930616967155e+00 1.3823526902351103e+01 1.0064328749383835e+01 3 -5 1
4574 1 6.4871594002404924e+00 2.2648928420117691e+01 6.3654604165006186e+00 2 3 1
3381 1 4.3304322418437540e+00 2.1374100427156243e+01 7.8521430862756514e+00 0 -2 0
1734 1 8.6131853813841310e+00 1.3870089081660419e+01 1.0160278064537319e+01 4 3 1
4616 1 1.8487416384402218e+00 1.2429799646857600e+01 2.6247713861193711e+00 -1 2 0
1882 1 1.9450311125484410e+00 1.7464732973316927e+01 1.0281280892074497e+01 -3 2 0
2732 1 4.4848504273921677e+00 2.1471508634155420e+01 1.0443902454102547e+01 0 0 0
2644 1 1.1447950335430335e-02 1.8570780310525329e+01 7.0526747654848920e+00 -1 2 0
3810 1 2.0670583076518230e+00 1.5040364552472528e+01 1.3978878848210417e+01 0 0 0
335 2 9.8440000000000012e+00 2.1312885187134999e+01 1.6868186681411224e+01 0 0 0
2697 1 4.3735391475943688e+00 1.3813530715469069e+01 1.4815704840949095e+01 3 3 1
2943 1 6.6350341330618665e+00 1.4894174517703915e+01 1.3858869021718416e+01 4 5 1
346 2 1.1074500000000002e+01 2.3444173705848499e+01 1.6868186681411224e+01 0 0 0
3354 1 1.0964899507682951e+01 1.4518519198480082e+01 1.3897933231212996e+01 1 3 1
2571 1 1.0720284543608617e+01 1.4839206256190501e+01 1.1305776902282414e+01 0 -1 0
1796 1 8.6293981330682641e+00 1.3252414766170681e+01 1.4405418232070746e+01 3 2 0
4610 1 1.6155956636643405e+00 1.7659346306807905e+01 1.4239125912470280e+01 1 -3 1
4346 1 4.0184591359983903e+00 1.8929161819916878e+01 1.4124807025658528e+01 6 0 0
3514 1 4.0884250290026802e+00 1.8892768522998722e+01 1.1427536808254287e+01 2 0 0
968 1 6.6071795362322145e+00 1.7766004483150180e+01 1.4318475226658526e+01 2 0 0
4328 1 8.8538497020256113e+00 1.8489501673355839e+01 1.1189297935185259e+01 -3 -3 1
4307 1 1.1209698859654718e+01 1.7254146047199324e+01 1.4508681383770583e+01 -1 3 0