LAMMPS data file via write_data, version 16 Mar 2018, timestep = 100000

4055 atoms
2 atom types

0.0000000000000000e+00 4.9219999999999999e+01 xlo xhi
0.0000000000000000e+00 4.9019635930410494e+01 ylo yhi
1.8036007033980379e+00 2.6136399296602018e+01 zlo zhi

Masses

1 18.015
2 12.01

Atoms # atomic

53 2 0.0000000000000000e+00 2.8417180249513345e+00 3.3371658888206284e+00 0 0 0
55 2 0.0000000000000000e+00 0.0000000000000000e+00 3.3371658888206284e+00 0 0 0
57 2 1.2305000000000001e+00 7.1042950623783474e-01 3.3371658888206284e+00 0 0 0
64 2 1.2305000000000001e+00 2.1312885187134998e+00 3.3371658888206284e+00 0 0 0
66 2 2.4610000000000003e+00 2.8417180249513345e+00 3.3371658888206284e+00 0 0 0
68 2 2.4610000000000003e+00 0.0000000000000000e+00 3.3371658888206284e+00 0 0 0
70 2 3.6915000000000004e+00 7.1042950623783474e-01 3.3371658888206284e+00 0 0 0
85 2 3.6914999999999996e+00 2.1312885187134998e+00 3.3371658888206284e+00 0 0 0
87 2 4.9220000000000006e+00 2.8417180249513332e+00 3.3371658888206284e+00 0 0 0
89 2 4.9220000000000006e+00 0.0000000000000000e+00 3.3371658888206284e+00 0 0 0
60 2 0.0000000000000000e+00 4.2625770374269996e+00 3.3371658888206284e+00 0 0 0
81 2 2.4610000000000003e+00 4.2625770374269996e+00 3.3371658888206284e+00 0 0 0
110 2 4.9220000000000006e+00 4.2625770374269978e+00 3.3371658888206284e+00 0 0 0
62 2 1.2305000000000001e+00 4.9730065436648339e+00 3.3371658888206284e+00 0 0 0
77 2 1.2305000000000001e+00 6.3938655561404980e+00 3.3371658888206284e+00 0 0 0
83 2 3.6914999999999996e+00 4.9730065436648339e+00 3.3371658888206284e+00 0 0 0
106 2 3.6914999999999996e+00 6.3938655561404980e+00 3.3371658888206284e+00 0 0 0
58 2 0.0000000000000000e+00 7.1042950623783341e+00 3.3371658888206284e+00 0 0 0
73 2 0.0000000000000000e+00 8.5251540748539991e+00 3.3371658888206284e+00 0 0 0
75 2 1.2305000000000001e+00 9.2355835810918343e+00 3.3371658888206284e+00 0 0 0
79 2 2.4610000000000003e+00 7.1042950623783341e+00 3.3371658888206284e+00 0 0 0
102 2 2.4610000000000003e+00 8.5251540748539991e+00 3.3371658888206284e+00 0 0 0
104 2 3.6915000000000004e+00 9.2355835810918343e+00 3.3371658888206284e+00 0 0 0
108 2 4.9220000000000006e+00 7.1042950623783341e+00 3.3371658888206284e+00 0 0 0
139 2 4.9220000000000006e+00 8.5251540748539991e+00 3.3371658888206284e+00 0 0 0
54 2 0.0000000000000000e+00 1.4208590124756650e+00 6.2382092150141011e+00 0 0 0
56 2 0.0000000000000000e+00 0.0000000000000000e+00 6.2382092150141011e+00 0 0 0
65 2 1.2305000000000001e+00 2.1312885187134998e+00 6.2382092150141011e+00 0 0 0
67 2 2.4610000000000003e+00 1.4208590124756650e+00 6.2382092150141011e+00 0 0 0
69 2 2.4610000000000003e+00 0.0000000000000000e+00 6.2382092150141011e+00 0 0 0
86 2 3.6914999999999996e+00 2.1312885187134998e+00 6.2382092150141011e+00 0 0 0
382 2 0.0000000000000000e+00 2.8417180249513345e+00 9.1392525412072629e+00 0 0 0
383 2 0.0000000000000000e+00 0.0000000000000000e+00 9.1392525412072629e+00 0 0 0
384 2 1.2305000000000001e+00 7.1042950623783474e-01 9.1392525412072629e+00 0 0 0
388 2 1.2305000000000001e+00 2.1312885187134998e+00 9.1392525412072629e+00 0 0 0
389 2 2.4610000000000003e+00 2.8417180249513345e+00 9.1392525412072629e+00 0 0 0
390 2 2.4610000000000003e+00 0.0000000000000000e+00 9.1392525412072629e+00 0 0 0
391 2 3.6915000000000004e+00 7.1042950623783474e-01 9.1392525412072629e+00 0 0 0
399 2 3.6914999999999996e+00 2.1312885187134998e+00 9.1392525412072629e+00 0 0 0
88 2 4.9220000000000006e+00 1.4208590124756650e+00 6.2382092150141011e+00 0 0 0
90 2 4.9220000000000006e+00 0.0000000000000000e+00 6.2382092150141011e+00 0 0 0
400 2 4.9220000000000006e+00 2.8417180249513332e+00 9.1392525412072629e+00 0 0 0
401 2 4.9220000000000006e+00 0.0000000000000000e+00 9.1392525412072629e+00 0 0 0
61 2 0.0000000000000000e+00 4.2625770374269996e+00 6.2382092150141011e+00 0 0 0
63 2 1.2305000000000001e+00 3.5521475311891644e+00 6.2382092150141011e+00 0 0 0
82 2 2.4610000000000003e+00 4.2625770374269996e+00 6.2382092150141011e+00 0 0 0
84 2 3.6914999999999996e+00 3.5521475311891644e+00 6.2382092150141011e+00 0 0 0
386 2 0.0000000000000000e+00 4.2625770374269996e+00 9.1392525412072629e+00 0 0 0
397 2 2.4610000000000003e+00 4.2625770374269996e+00 9.1392525412072629e+00 0 0 0
111 2 4.9220000000000006e+00 4.2625770374269978e+00 6.2382092150141011e+00 0 0 0
412 2 4.9220000000000006e+00 4.2625770374269978e+00 9.1392525412072629e+00 0 0 0
59 2 0.0000000000000000e+00 5.6834360499026637e+00 6.2382092150141011e+00 0 0 0
78 2 1.2305000000000001e+00 6.3938655561404980e+00 6.2382092150141011e+00 0 0 0
80 2 2.4610000000000003e+00 5.6834360499026637e+00 6.2382092150141011e+00 0 0 0
107 2 3.6914999999999996e+00 6.3938655561404980e+00 6.2382092150141011e+00 0 0 0
387 2 1.2305000000000001e+00 4.9730065436648339e+00 9.1392525412072629e+00 0 0 0
395 2 1.2305000000000001e+00 6.3938655561404980e+00 9.1392525412072629e+00 0 0 0
398 2 3.6914999999999996e+00 4.9730065436648339e+00 9.1392525412072629e+00 0 0 0
410 2 3.6914999999999996e+00 6.3938655561404980e+00 9.1392525412072629e+00 0 0 0
109 2 4.9220000000000006e+00 5.6834360499026637e+00 6.2382092150141011e+00 0 0 0
74 2 0.0000000000000000e+00 8.5251540748539991e+00 6.2382092150141011e+00 0 0 0
76 2 1.2305000000000001e+00 7.8147245686161639e+00 6.2382092150141011e+00 0 0 0
103 2 2.4610000000000003e+00 8.5251540748539991e+00 6.2382092150141011e+00 0 0 0
105 2 3.6914999999999996e+00 7.8147245686161639e+00 6.2382092150141011e+00 0 0 0
385 2 0.0000000000000000e+00 7.1042950623783341e+00 9.1392525412072629e+00 0 0 0
393 2 0.0000000000000000e+00 8.5251540748539991e+00 9.1392525412072629e+00 0 0 0
394 2 1.2305000000000001e+00 9.2355835810918343e+00 9.1392525412072629e+00 0 0 0
396 2 2.4610000000000003e+00 7.1042950623783341e+00 9.1392525412072629e+00 0 0 0
408 2 2.4610000000000003e+00 8.5251540748539991e+00 9.1392525412072629e+00 0 0 0
409 2 3.6915000000000004e+00 9.2355835810918343e+00 9.1392525412072629e+00 0 0 0
140 2 4.9220000000000006e+00 8.5251540748539991e+00 6.2382092150141011e+00 0 0 0
411 2 4.9220000000000006e+00 7.1042950623783341e+00 9.1392525412072629e+00 0 0 0
427 2 4.9220000000000006e+00 8.5251540748539991e+00 9.1392525412072629e+00 0 0 0
3963 1 7.4352767577057599e-01 4.5275862867069341e+00 1.1614739294491560e+01 0 1 -1
1974 1 3.9095773510375489e+00 2.7039058061353711e+00 1.1751575272209468e+01 1 1 -1
768 1 1.9277269769288805e+00 7.0409121115698028e+00 1.1631254149566164e+01 0 0 0
43 1 4.7461891497715127e+00 6.6019872597569167e+00 1.2406112689122988e+01 2 0 0
1317 1 5.1558393775421130e-01 9.4069978942888817e+00 1.2031833178703399e+01 1 0 0
2630 1 6.1353685094671402e+00 4.2620678022803062e+00 1.1683230240884916e+01 0 0 0
2056 1 2.1149826281196735e+00 3.6614631416370713e+00 1.3724035735493169e+01 2 0 0
1267 1 6.0095801934394952e+00 3.2621752401757207e+00 2.4610078395089708e+01 -1 1 0
1436 1 3.2820540200895358e+00 1.8914714675580961e+00 1.5962960822761001e+01 0 0 0
1395 1 1.5738794284752418e+00 8.6855893325438025e+00 1.9968775192715100e+01 0 1 0
4022 1 1.3630025065156208e+00 9.1132556820316353e+00 2.4930583257211879e+01 0 0 -1
1366 1 5.6784473430870488e+00 6.4395371239857155e+00 1.6353324576440684e+01 0 0 -1
3984 1 1.2025588764019279e+00 7.6158866292855096e+00 1.4976143137697084e+01 1 1 0
2629 1 3.4854225213330206e+00 5.8908778640866730e+00 1.4833070773760756e+01 1 1 -1
686 1 6.1220314052954850e+00 6.0710600003860797e+00 2.4848882651748198e+01 0 1 0
1995 1 2.1993281544048786e+00 4.1934193228518666e+00 2.2016179767830991e+01 0 2 0
1386 1 1.0176537641621377e+00 6.7923179841049626e+00 1.7718655090397860e+01 0 1 0
706 1 4.2334778434684468e+00 3.1120553868067256e+00 1.9441952933578634e+01 -1 0 1
1287 1 4.0352598961107580e+00 4.6378219138866039e-01 1.8522937137072596e+01 0 0 1
1368 1 3.5066707419047840e+00 2.2621627131675544e+00 2.5405829651586217e+01 0 0 0
729 1 6.3844475823356373e-01 7.6900859193463567e-01 2.5037651885246412e+01 0 1 0
2000 1 1.8070854829361518e+00 1.2042555524076621e+00 2.2389730959155116e+01 0 0 0
1954 1 3.9248225346974652e+00 6.9065180860621123e+00 1.9318580730759500e+01 0 0 0
2559 1 2.6455682426970295e+00 4.5265592296139880e+00 1.7344601850700062e+01 0 1 -1
1994 1 4.9582654748897292e+00 8.7950886250473950e+00 1.7548791579584204e+01 0 1 0
1446 1 5.1220006169963090e+00 8.6758384512410451e+00 2.2487146834776176e+01 0 0 0
2700 1 5.7211948734231113e+00 2.0013298060172322e+00 1.4239235283453274e+01 0 0 0
2668 1 4.9360279257028310e+00 5.7316243018289441e+00 2.1797726091600204e+01 0 1 0
2692 1 3.7571456076091954e+00 7.7495905562696121e+00 2.4754782912578250e+01 1 1 -1
1293 1 2.7472772102830190e+00 4.9820360874469127e+00 2.4789733741918248e+01 1 0 0
1291 1 1.9800965139600371e-01 3.0421354698859893e+00 1.7203727696492592e+01 0 1 0
708 1 5.3680220681555815e+00 2.9026598579063552e+00 2.1991684132033335e+01 1 0 0
3444 1 4.2280907282471354e+00 1.6942783165798642e-01 2.2404902979025593e+01 0 1 0
71 2 0.0000000000000000e+00 1.1366872099805333e+01 3.3371658888206284e+00 0 0 0
94 2 0.0000000000000000e+00 1.2787731112280996e+01 3.3371658888206284e+00 0 0 0
96 2 1.2305000000000001e+00 1.3498160618518829e+01 3.3371658888206284e+00 0 0 0
98 2 1.2305000000000001e+00 1.0656442593567498e+01 3.3371658888206284e+00 0 0 0
100 2 2.4610000000000003e+00 1.1366872099805333e+01 3.3371658888206284e+00 0 0 0
131 2 2.4610000000000003e+00 1.2787731112280996e+01 3.3371658888206284e+00 0 0 0
133 2 3.6915000000000004e+00 1.3498160618518829e+01 3.3371658888206284e+00 0 0 0
135 2 3.6914999999999996e+00 1.0656442593567499e+01 3.3371658888206284e+00 0 0 0
137 2 4.9220000000000006e+00 1.1366872099805333e+01 3.3371658888206284e+00 0 0 0
176 2 4.9220000000000006e+00 1.2787731112280996e+01 3.3371658888206284e+00 0 0 0
178 2 6.1524999999999990e+00 1.3498160618518829e+01 3.3371658888206284e+00 0 0 0
92 2 0.0000000000000000e+00 1.5629449137232333e+01 3.3371658888206284e+00 0 0 0
123 2 0.0000000000000000e+00 1.7050308149707998e+01 3.3371658888206284e+00 0 0 0
127 2 1.2305000000000001e+00 1.4919019630994494e+01 3.3371658888206284e+00 0 0 0
129 2 2.4610000000000003e+00 1.5629449137232328e+01 3.3371658888206284e+00 0 0 0
168 2 2.4610000000000003e+00 1.7050308149707998e+01 3.3371658888206284e+00 0 0 0
172 2 3.6915000000000004e+00 1.4919019630994494e+01 3.3371658888206284e+00 0 0 0
174 2 4.9220000000000006e+00 1.5629449137232333e+01 3.3371658888206284e+00 0 0 0
215 2 4.9220000000000006e+00 1.7050308149707998e+01 3.3371658888206284e+00 0 0 0
219 2 6.1524999999999990e+00 1.4919019630994494e+01 3.3371658888206284e+00 0 0 0
125 2 1.2305000000000001e+00 1.7760737655945832e+01 3.3371658888206284e+00 0 0 0
164 2 1.2305000000000001e+00 1.9181596668421495e+01 3.3371658888206284e+00 0 0 0
170 2 3.6914999999999996e+00 1.7760737655945832e+01 3.3371658888206284e+00 0 0 0
211 2 3.6914999999999996e+00 1.9181596668421495e+01 3.3371658888206284e+00 0 0 0
72 2 0.0000000000000000e+00 9.9460130873296642e+00 6.2382092150141011e+00 0 0 0
101 2 2.4610000000000003e+00 9.9460130873296642e+00 6.2382092150141011e+00 0 0 0
138 2 4.9220000000000006e+00 9.9460130873296642e+00 6.2382092150141011e+00 0 0 0
95 2 0.0000000000000000e+00 1.2787731112280996e+01 6.2382092150141011e+00 0 0 0
97 2 1.2305000000000001e+00 1.2077301606043163e+01 6.2382092150141011e+00 0 0 0
99 2 1.2305000000000001e+00 1.0656442593567498e+01 6.2382092150141011e+00 0 0 0
132 2 2.4610000000000003e+00 1.2787731112280996e+01 6.2382092150141011e+00 0 0 0
134 2 3.6914999999999996e+00 1.2077301606043163e+01 6.2382092150141011e+00 0 0 0
136 2 3.6914999999999996e+00 1.0656442593567499e+01 6.2382092150141011e+00 0 0 0
392 2 0.0000000000000000e+00 1.1366872099805333e+01 9.1392525412072629e+00 0 0 0
404 2 0.0000000000000000e+00 1.2787731112280996e+01 9.1392525412072629e+00 0 0 0
405 2 1.2305000000000001e+00 1.3498160618518829e+01 9.1392525412072629e+00 0 0 0
406 2 1.2305000000000001e+00 1.0656442593567498e+01 9.1392525412072629e+00 0 0 0
407 2 2.4610000000000003e+00 1.1366872099805333e+01 9.1392525412072629e+00 0 0 0
423 2 2.4610000000000003e+00 1.2787731112280996e+01 9.1392525412072629e+00 0 0 0
424 2 3.6915000000000004e+00 1.3498160618518829e+01 9.1392525412072629e+00 0 0 0
425 2 3.6914999999999996e+00 1.0656442593567499e+01 9.1392525412072629e+00 0 0 0
177 2 4.9220000000000006e+00 1.2787731112280996e+01 6.2382092150141011e+00 0 0 0
426 2 4.9220000000000006e+00 1.1366872099805333e+01 9.1392525412072629e+00 0 0 0
446 2 4.9220000000000006e+00 1.2787731112280996e+01 9.1392525412072629e+00 0 0 0
447 2 6.1524999999999990e+00 1.3498160618518829e+01 9.1392525412072629e+00 0 0 0
93 2 0.0000000000000000e+00 1.4208590124756663e+01 6.2382092150141011e+00 0 0 0
130 2 2.4610000000000003e+00 1.4208590124756663e+01 6.2382092150141011e+00 0 0 0
175 2 4.9220000000000006e+00 1.4208590124756663e+01 6.2382092150141011e+00 0 0 0
124 2 0.0000000000000000e+00 1.7050308149707998e+01 6.2382092150141011e+00 0 0 0
126 2 1.2305000000000001e+00 1.6339878643470165e+01 6.2382092150141011e+00 0 0 0
128 2 1.2305000000000001e+00 1.4919019630994494e+01 6.2382092150141011e+00 0 0 0
169 2 2.4610000000000003e+00 1.7050308149707998e+01 6.2382092150141011e+00 0 0 0
171 2 3.6915000000000004e+00 1.6339878643470165e+01 6.2382092150141011e+00 0 0 0
173 2 3.6915000000000004e+00 1.4919019630994494e+01 6.2382092150141011e+00 0 0 0
403 2 0.0000000000000000e+00 1.5629449137232333e+01 9.1392525412072629e+00 0 0 0
419 2 0.0000000000000000e+00 1.7050308149707998e+01 9.1392525412072629e+00 0 0 0
421 2 1.2305000000000001e+00 1.4919019630994494e+01 9.1392525412072629e+00 0 0 0
422 2 2.4610000000000003e+00 1.5629449137232328e+01 9.1392525412072629e+00 0 0 0
442 2 2.4610000000000003e+00 1.7050308149707998e+01 9.1392525412072629e+00 0 0 0
444 2 3.6915000000000004e+00 1.4919019630994494e+01 9.1392525412072629e+00 0 0 0
216 2 4.9220000000000006e+00 1.7050308149707998e+01 6.2382092150141011e+00 0 0 0
220 2 6.1524999999999990e+00 1.4919019630994494e+01 6.2382092150141011e+00 0 0 0
445 2 4.9220000000000006e+00 1.5629449137232333e+01 9.1392525412072629e+00 0 0 0
466 2 4.9220000000000006e+00 1.7050308149707998e+01 9.1392525412072629e+00 0 0 0
468 2 6.1524999999999990e+00 1.4919019630994494e+01 9.1392525412072629e+00 0 0 0
122 2 0.0000000000000000e+00 1.8471167162183658e+01 6.2382092150141011e+00 0 0 0
165 2 1.2305000000000001e+00 1.9181596668421495e+01 6.2382092150141011e+00 0 0 0
167 2 2.4610000000000003e+00 1.8471167162183658e+01 6.2382092150141011e+00 0 0 0
212 2 3.6914999999999996e+00 1.9181596668421495e+01 6.2382092150141011e+00 0 0 0
420 2 1.2305000000000001e+00 1.7760737655945832e+01 9.1392525412072629e+00 0 0 0
440 2 1.2305000000000001e+00 1.9181596668421495e+01 9.1392525412072629e+00 0 0 0
443 2 3.6914999999999996e+00 1.7760737655945832e+01 9.1392525412072629e+00 0 0 0
464 2 3.6914999999999996e+00 1.9181596668421495e+01 9.1392525412072629e+00 0 0 0
214 2 4.9220000000000006e+00 1.8471167162183658e+01 6.2382092150141011e+00 0 0 0
2681 1 4.2052006507880657e+00 1.0729834744704856e+01 1.3080692693951901e+01 1 1 0
2758 1 1.5671841415128895e+00 1.2272224113846377e+01 1.1443275992062114e+01 1 1 0
717 1 4.5230152827121071e+00 1.2922441137014800e+01 1.1387804560639493e+01 0 0 0
3349 1 4.7458100606016691e+00 1.6251757565240013e+01 1.1683052002527337e+01 1 2 -1
2738 1 4.8837654695773409e+00 1.9057656280299138e+01 1.1777466696642135e+01 0 0 1
1364 1 2.1653397584356759e+00 1.8262804026436285e+01 1.2933729714648640e+01 1 0 -1
1344 1 3.6888736373594222e+00 1.0908856551518257e+01 1.6084226235064989e+01 0 0 0
3293 1 3.3067420679725630e+00 1.1546123323880762e+01 2.5059374140497901e+01 1 0 0
3986 1 2.2855204683390431e+00 1.3189258375506519e+01 1.4217731545416536e+01 1 0 1
2023 1 4.1539311469481763e+00 1.4935146015745573e+01 2.1164925307528840e+01 0 -1 0
1997 1 2.1095332532748605e+00 1.5662164310254074e+01 1.5081084833084581e+01 0 0 0
656 1 5.2206953692349503e+00 1.9178408512791453e+01 1.5345162265807158e+01 -1 0 0
1260 1 5.0770699654895768e-01 1.2428053537893332e+01 1.9384810059559555e+01 1 0 0
2035 1 5.4658314332047375e-01 1.2933090251344302e+01 2.2156784267583916e+01 2 0 0
3933 1 3.1818285126142611e+00 1.1257319172260361e+01 1.9186186227734154e+01 1 0 1
2123 1 4.4797483834227592e+00 1.3749789681431780e+01 1.8963005457315745e+01 0 0 -1
1942 1 2.4800687116640163e+00 1.5481249491726748e+01 1.7615789875926872e+01 0 1 -1
577 1 2.6942965595221791e-01 1.7525000823988240e+01 2.4855327863274539e+01 1 -1 0
1951 1 1.8695702162730750e+00 1.5436790526422023e+01 2.2241019737951447e+01 1 1 0
2618 1 1.0678578993891692e+00 1.0377763914584385e+01 2.2349318221384763e+01 0 1 0
1255 1 1.0514237818363943e+00 1.0249045889102604e+01 1.5219539967478690e+01 0 0 1
3994 1 2.5998654765997746e+00 1.9424760099243592e+01 2.0019900497782210e+01 0 0 -1
2619 1 3.9594534188803054e+00 1.1018445147816044e+01 2.2275479577738764e+01 0 0 -1
2663 1 8.1170060986961134e-01 1.3015765074930364e+01 2.4918881612032457e+01 1 0 1
3352 1 7.5723779199220764e-01 1.8345761717395366e+01 2.1844809494633907e+01 1 1 -1
2069 1 2.1046064110567388e+00 1.5489957802449887e+01 2.4990651326617417e+01 1 1 0
1939 1 4.6587864931442322e+00 1.5635364352374509e+01 2.5161853731379765e+01 1 0 -2
2087 1 3.2851681872311804e+00 1.8036923206097679e+01 1.7672931752299675e+01 1 0 0
676 1 4.8049662015851675e+00 1.6371126923277377e+01 1.4403215717317527e+01 0 0 0
571 1 1.6497291915535959e+00 1.8935690259154470e+01 1.5616241254869429e+01 0 0 0
1409 1 5.8970554351914863e+00 1.2867101720186653e+01 2.5259277160004984e+01 1 0 -1
1238 1 5.5745125978900774e+00 1.6798572378748464e+01 2.2452477568022445e+01 0 0 0
2550 1 4.4446744007027155e+00 1.9500593941154033e+01 2.1960722458815873e+01 1 1 -1
2693 1 5.7617898434302530e+00 1.3018176354787029e+01 2.2540662618139045e+01 0 0 0
2057 1 1.9072448308151024e-02 1.4846311325918373e+01 1.8558864314064870e+01 1 -1 -1
121 2 0.0000000000000000e+00 1.9892026174659328e+01 3.3371658888206284e+00 0 0 0
166 2 2.4610000000000003e+00 1.9892026174659328e+01 3.3371658888206284e+00 0 0 0
213 2 4.9220000000000006e+00 1.9892026174659328e+01 3.3371658888206284e+00 0 0 0
158 2 0.0000000000000000e+00 2.4154603212086325e+01 3.3371658888206284e+00 0 0 0
160 2 0.0000000000000000e+00 2.1312885187134999e+01 3.3371658888206284e+00 0 0 0
162 2 1.2304999999999993e+00 2.2023314693372832e+01 3.3371658888206284e+00 0 0 0
203 2 1.2304999999999993e+00 2.3444173705848499e+01 3.3371658888206284e+00 0 0 0
205 2 2.4610000000000003e+00 2.4154603212086325e+01 3.3371658888206284e+00 0 0 0
207 2 2.4610000000000003e+00 2.1312885187134995e+01 3.3371658888206284e+00 0 0 0
209 2 3.6914999999999996e+00 2.2023314693372832e+01 3.3371658888206284e+00 0 0 0
250 2 3.6915000000000004e+00 2.3444173705848499e+01 3.3371658888206284e+00 0 0 0
252 2 4.9220000000000006e+00 2.4154603212086325e+01 3.3371658888206284e+00 0 0 0
254 2 4.9220000000000006e+00 2.1312885187134995e+01 3.3371658888206284e+00 0 0 0
256 2 6.1524999999999990e+00 2.2023314693372832e+01 3.3371658888206284e+00 0 0 0
774 2 0.0000000000000000e+00 2.5575462224561992e+01 3.3371658888206284e+00 0 0 0
776 2 1.2305000000000001e+00 2.6285891730799833e+01 3.3371658888206284e+00 0 0 0
784 2 1.2305000000000010e+00 2.7706750743275496e+01 3.3371658888206284e+00 0 0 0
788 2 2.4610000000000003e+00 2.5575462224561992e+01 3.3371658888206284e+00 0 0 0
790 2 3.6914999999999991e+00 2.6285891730799833e+01 3.3371658888206284e+00 0 0 0
806 2 3.6914999999999996e+00 2.7706750743275496e+01 3.3371658888206284e+00 0 0 0
810 2 4.9220000000000006e+00 2.5575462224561992e+01 3.3371658888206284e+00 0 0 0
836 2 6.1524999999999990e+00 2.7706750743275496e+01 3.3371658888206284e+00 0 0 0
772 2 0.0000000000000000e+00 2.8417180249513333e+01 3.3371658888206284e+00 0 0 0
786 2 2.4610000000000003e+00 2.8417180249513326e+01 3.3371658888206284e+00 0 0 0
808 2 4.9220000000000006e+00 2.8417180249513336e+01 3.3371658888206284e+00 0 0 0
163 2 1.2305000000000001e+00 2.0602455680897162e+01 6.2382092150141011e+00 0 0 0
210 2 3.6915000000000004e+00 2.0602455680897162e+01 6.2382092150141011e+00 0 0 0
418 2 0.0000000000000000e+00 1.9892026174659328e+01 9.1392525412072629e+00 0 0 0
441 2 2.4610000000000003e+00 1.9892026174659328e+01 9.1392525412072629e+00 0 0 0
465 2 4.9220000000000006e+00 1.9892026174659328e+01 9.1392525412072629e+00 0 0 0
159 2 0.0000000000000000e+00 2.2733744199610655e+01 6.2382092150141011e+00 0 0 0
161 2 0.0000000000000000e+00 2.1312885187134999e+01 6.2382092150141011e+00 0 0 0
204 2 1.2304999999999993e+00 2.3444173705848499e+01 6.2382092150141011e+00 0 0 0
206 2 2.4610000000000003e+00 2.2733744199610655e+01 6.2382092150141011e+00 0 0 0
208 2 2.4610000000000003e+00 2.1312885187134995e+01 6.2382092150141011e+00 0 0 0
251 2 3.6915000000000004e+00 2.3444173705848499e+01 6.2382092150141011e+00 0 0 0
437 2 0.0000000000000000e+00 2.4154603212086325e+01 9.1392525412072629e+00 0 0 0
438 2 0.0000000000000000e+00 2.1312885187134999e+01 9.1392525412072629e+00 0 0 0
439 2 1.2304999999999993e+00 2.2023314693372832e+01 9.1392525412072629e+00 0 0 0
460 2 1.2304999999999993e+00 2.3444173705848499e+01 9.1392525412072629e+00 0 0 0
461 2 2.4610000000000003e+00 2.4154603212086325e+01 9.1392525412072629e+00 0 0 0
462 2 2.4610000000000003e+00 2.1312885187134995e+01 9.1392525412072629e+00 0 0 0
463 2 3.6914999999999996e+00 2.2023314693372832e+01 9.1392525412072629e+00 0 0 0
484 2 3.6915000000000004e+00 2.3444173705848499e+01 9.1392525412072629e+00 0 0 0
253 2 4.9220000000000006e+00 2.2733744199610655e+01 6.2382092150141011e+00 0 0 0
255 2 4.9220000000000006e+00 2.1312885187134995e+01 6.2382092150141011e+00 0 0 0
485 2 4.9220000000000006e+00 2.4154603212086325e+01 9.1392525412072629e+00 0 0 0
486 2 4.9220000000000006e+00 2.1312885187134995e+01 9.1392525412072629e+00 0 0 0
487 2 6.1524999999999990e+00 2.2023314693372832e+01 9.1392525412072629e+00 0 0 0
773 2 0.0000000000000000e+00 2.6996321237037659e+01 6.2382092150141011e+00 0 0 0
775 2 0.0000000000000000e+00 2.5575462224561992e+01 6.2382092150141011e+00 0 0 0
777 2 1.2305000000000001e+00 2.4865032718324155e+01 6.2382092150141011e+00 0 0 0
785 2 1.2305000000000010e+00 2.7706750743275496e+01 6.2382092150141011e+00 0 0 0
787 2 2.4610000000000003e+00 2.6996321237037659e+01 6.2382092150141011e+00 0 0 0
789 2 2.4610000000000003e+00 2.5575462224561992e+01 6.2382092150141011e+00 0 0 0
791 2 3.6914999999999996e+00 2.4865032718324166e+01 6.2382092150141011e+00 0 0 0
807 2 3.6914999999999996e+00 2.7706750743275496e+01 6.2382092150141011e+00 0 0 0
1088 2 0.0000000000000000e+00 2.5575462224561992e+01 9.1392525412072629e+00 0 0 0
1089 2 1.2305000000000001e+00 2.6285891730799833e+01 9.1392525412072629e+00 0 0 0
1093 2 1.2305000000000010e+00 2.7706750743275496e+01 9.1392525412072629e+00 0 0 0
1095 2 2.4610000000000003e+00 2.5575462224561992e+01 9.1392525412072629e+00 0 0 0
1096 2 3.6914999999999991e+00 2.6285891730799833e+01 9.1392525412072629e+00 0 0 0
1104 2 3.6914999999999996e+00 2.7706750743275496e+01 9.1392525412072629e+00 0 0 0
809 2 4.9220000000000006e+00 2.6996321237037659e+01 6.2382092150141011e+00 0 0 0
811 2 4.9220000000000006e+00 2.5575462224561992e+01 6.2382092150141011e+00 0 0 0
813 2 6.1524999999999990e+00 2.4865032718324155e+01 6.2382092150141011e+00 0 0 0
837 2 6.1524999999999990e+00 2.7706750743275496e+01 6.2382092150141011e+00 0 0 0
1106 2 4.9220000000000006e+00 2.5575462224561992e+01 9.1392525412072629e+00 0 0 0
1119 2 6.1524999999999990e+00 2.7706750743275496e+01 9.1392525412072629e+00 0 0 0
783 2 1.2304999999999993e+00 2.9127609755751163e+01 6.2382092150141011e+00 0 0 0
805 2 3.6914999999999991e+00 2.9127609755751152e+01 6.2382092150141011e+00 0 0 0
1087 2 0.0000000000000000e+00 2.8417180249513333e+01 9.1392525412072629e+00 0 0 0
1094 2 2.4610000000000003e+00 2.8417180249513326e+01 9.1392525412072629e+00 0 0 0
835 2 6.1524999999999981e+00 2.9127609755751152e+01 6.2382092150141011e+00 0 0 0
1105 2 4.9220000000000006e+00 2.8417180249513336e+01 9.1392525412072629e+00 0 0 0
1315 1 1.5348265897448452e+00 2.8235260514376822e+01 1.2297790815930774e+01 0 0 -1
689 1 4.1103442052526882e+00 2.1729725109609088e+01 1.1603747962034664e+01 0 0 -1
2640 1 1.3686129730627188e+00 2.1841188401327063e+01 1.2327135050238098e+01 1 0 -1
2566 1 4.6569858367133001e+00 2.6086043022356225e+01 1.1641903247349580e+01 0 0 -1
550 1 2.1080570409966839e+00 2.5632303197812639e+01 1.2697156648205246e+01 0 -1 0
2717 1 5.7379539747434896e+00 2.8234499019219538e+01 1.1984711087357026e+01 1 0 0
3400 1 8.3904979698806822e-02 1.9661217086831538e+01 1.1662593727599170e+01 1 -1 0
2582 1 4.4256648483450256e+00 2.1818905264503524e+01 1.4498763688643416e+01 -1 0 -1
736 1 1.4024840747788991e+00 2.1842941949479318e+01 1.5012629529385963e+01 1 0 1
1382 1 3.8940138507328288e+00 2.8817289931744217e+01 2.4843851805779479e+01 0 0 0
3977 1 4.4728490452112926e+00 2.3122229116964697e+01 1.7535858919468190e+01 0 0 -1
601 1 2.4303450905358095e+00 2.4432596725108489e+01 1.5363554394650542e+01 0 0 0
3299 1 6.0180765518176682e-01 2.7502204218045851e+01 1.8251784808420005e+01 0 0 -1
1318 1 1.2760019680555748e+00 2.5037531520341485e+01 2.2377163805001352e+01 2 0 0
1941 1 4.4163040338781734e+00 2.6330629632828110e+01 1.6502538791617759e+01 0 1 0
3889 1 2.0057752566024227e+00 2.2051828893364814e+01 1.8918544890876689e+01 1 0 1
2592 1 3.4797002820123670e+00 2.4764548575186705e+01 2.0086821938290136e+01 1 -1 0
3967 1 5.7218385751285297e+00 2.4114671213137754e+01 2.1784067901506575e+01 0 -1 -2
3402 1 4.9216882922645873e+00 2.8602472963589875e+01 1.4826003361994783e+01 1 -1 1
1243 1 1.8924868549147393e+00 2.9289303777772179e+01 2.2107956186634880e+01 1 0 0
1988 1 3.3631504355506037e+00 2.7135570308673884e+01 1.8977598610225520e+01 0 0 0
3247 1 5.9188588553088648e+00 2.4008423079282455e+01 1.4570690368478639e+01 0 0 0
3885 1 1.6315693333675925e+00 2.2237074613340965e+01 2.1856071077628677e+01 1 -1 0
2679 1 5.2112111521330640e+00 2.4240189252790721e+01 2.4378474632638657e+01 1 -1 -1
2604 1 2.4438086549352578e+00 2.4130946756301583e+01 2.5065293989079208e+01 0 -1 0
2077 1 2.3649065932245747e+00 2.1445923233568937e+01 2.4729278804229573e+01 1 0 0
2689 1 5.0416142334703222e+00 2.0212625911489983e+01 2.4701642116312073e+01 1 1 -1
592 1 4.5579105475645330e+00 2.8823129354528920e+01 2.1419762649914446e+01 0 -1 -1
1270 1 2.6817780266198865e-01 2.6048644571689600e+01 2.5204679469405910e+01 0 1 0
1991 1 1.0697450516944613e+00 2.9385246874845343e+01 2.4962834905498553e+01 0 0 -1
3893 1 1.8495936419961367e-01 2.5035903250926033e+01 1.6624049565082892e+01 0 0 0
780 2 0.0000000000000000e+00 2.9838039261988989e+01 3.3371658888206284e+00 0 0 0
782 2 1.2304999999999993e+00 3.0548468768226829e+01 3.3371658888206284e+00 0 0 0
802 2 2.4610000000000003e+00 2.9838039261988989e+01 3.3371658888206284e+00 0 0 0
804 2 3.6915000000000004e+00 3.0548468768226829e+01 3.3371658888206284e+00 0 0 0
832 2 4.9220000000000006e+00 2.9838039261988989e+01 3.3371658888206284e+00 0 0 0
778 2 0.0000000000000000e+00 3.2679757286940330e+01 3.3371658888206284e+00 0 0 0
794 2 0.0000000000000000e+00 3.4100616299415996e+01 3.3371658888206284e+00 0 0 0
798 2 1.2304999999999993e+00 3.1969327780702493e+01 3.3371658888206284e+00 0 0 0
800 2 2.4610000000000003e+00 3.2679757286940337e+01 3.3371658888206284e+00 0 0 0
824 2 2.4609999999999985e+00 3.4100616299415996e+01 3.3371658888206284e+00 0 0 0
828 2 3.6914999999999996e+00 3.1969327780702493e+01 3.3371658888206284e+00 0 0 0
830 2 4.9220000000000015e+00 3.2679757286940337e+01 3.3371658888206284e+00 0 0 0
862 2 4.9220000000000006e+00 3.4100616299415996e+01 3.3371658888206284e+00 0 0 0
796 2 1.2305000000000010e+00 3.4811045805653833e+01 3.3371658888206284e+00 0 0 0
826 2 3.6915000000000018e+00 3.4811045805653833e+01 3.3371658888206284e+00 0 0 0
792 2 0.0000000000000000e+00 3.6942334324367337e+01 3.3371658888206284e+00 0 0 0
816 2 0.0000000000000000e+00 3.8363193336842990e+01 3.3371658888206284e+00 0 0 0
820 2 1.2304999999999993e+00 3.6231904818129486e+01 3.3371658888206284e+00 0 0 0
822 2 2.4610000000000021e+00 3.6942334324367337e+01 3.3371658888206284e+00 0 0 0
854 2 2.4610000000000003e+00 3.8363193336842990e+01 3.3371658888206284e+00 0 0 0
858 2 3.6914999999999996e+00 3.6231904818129486e+01 3.3371658888206284e+00 0 0 0
860 2 4.9220000000000006e+00 3.6942334324367316e+01 3.3371658888206284e+00 0 0 0
899 2 4.9220000000000006e+00 3.8363193336842990e+01 3.3371658888206284e+00 0 0 0
818 2 1.2305000000000010e+00 3.9073622843080841e+01 3.3371658888206284e+00 0 0 0
856 2 3.6915000000000018e+00 3.9073622843080820e+01 3.3371658888206284e+00 0 0 0
779 2 0.0000000000000000e+00 3.1258898274464656e+01 6.2382092150141011e+00 0 0 0
781 2 0.0000000000000000e+00 2.9838039261988989e+01 6.2382092150141011e+00 0 0 0
801 2 2.4609999999999985e+00 3.1258898274464656e+01 6.2382092150141011e+00 0 0 0
803 2 2.4610000000000003e+00 2.9838039261988989e+01 6.2382092150141011e+00 0 0 0
1091 2 0.0000000000000000e+00 2.9838039261988989e+01 9.1392525412072629e+00 0 0 0
1092 2 1.2304999999999993e+00 3.0548468768226829e+01 9.1392525412072629e+00 0 0 0
1102 2 2.4610000000000003e+00 2.9838039261988989e+01 9.1392525412072629e+00 0 0 0
1103 2 3.6915000000000004e+00 3.0548468768226829e+01 9.1392525412072629e+00 0 0 0
831 2 4.9219999999999979e+00 3.1258898274464656e+01 6.2382092150141011e+00 0 0 0
833 2 4.9220000000000006e+00 2.9838039261988989e+01 6.2382092150141011e+00 0 0 0
1117 2 4.9220000000000006e+00 2.9838039261988989e+01 9.1392525412072629e+00 0 0 0
795 2 0.0000000000000000e+00 3.4100616299415996e+01 6.2382092150141011e+00 0 0 0
797 2 1.2304999999999993e+00 3.3390186793178160e+01 6.2382092150141011e+00 0 0 0
799 2 1.2304999999999993e+00 3.1969327780702493e+01 6.2382092150141011e+00 0 0 0
825 2 2.4609999999999985e+00 3.4100616299415996e+01 6.2382092150141011e+00 0 0 0
827 2 3.6914999999999978e+00 3.3390186793178160e+01 6.2382092150141011e+00 0 0 0
829 2 3.6914999999999996e+00 3.1969327780702493e+01 6.2382092150141011e+00 0 0 0
1090 2 0.0000000000000000e+00 3.2679757286940330e+01 9.1392525412072629e+00 0 0 0
1098 2 0.0000000000000000e+00 3.4100616299415996e+01 9.1392525412072629e+00 0 0 0