LAMMPS data file via write_data, version 16 Mar 2018, timestep = 8000000

4055 atoms
2 atom types

0.0000000000000000e+00 4.9219999999999999e+01 xlo xhi
0.0000000000000000e+00 4.9019635930410494e+01 ylo yhi
1.2021156516326403e+00 2.6737884348362314e+01 zlo zhi

Masses

1 18.015
2 12.01

Atoms # atomic

53 2 0.0000000000000000e+00 2.8417180249513345e+00 2.8114975608415262e+00 0 0 0
55 2 0.0000000000000000e+00 0.0000000000000000e+00 2.8114975608415262e+00 0 0 0
57 2 1.2305000000000001e+00 7.1042950623783474e-01 2.8114975608415262e+00 0 0 0
64 2 1.2305000000000001e+00 2.1312885187134998e+00 2.8114975608415262e+00 0 0 0
66 2 2.4610000000000003e+00 2.8417180249513345e+00 2.8114975608415262e+00 0 0 0
68 2 2.4610000000000003e+00 0.0000000000000000e+00 2.8114975608415262e+00 0 0 0
70 2 3.6915000000000004e+00 7.1042950623783474e-01 2.8114975608415262e+00 0 0 0
85 2 3.6914999999999996e+00 2.1312885187134998e+00 2.8114975608415262e+00 0 0 0
87 2 4.9220000000000006e+00 2.8417180249513332e+00 2.8114975608415262e+00 0 0 0
89 2 4.9220000000000006e+00 0.0000000000000000e+00 2.8114975608415262e+00 0 0 0
60 2 0.0000000000000000e+00 4.2625770374269996e+00 2.8114975608415262e+00 0 0 0
81 2 2.4610000000000003e+00 4.2625770374269996e+00 2.8114975608415262e+00 0 0 0
110 2 4.9220000000000006e+00 4.2625770374269978e+00 2.8114975608415262e+00 0 0 0
62 2 1.2305000000000001e+00 4.9730065436648339e+00 2.8114975608415262e+00 0 0 0
77 2 1.2305000000000001e+00 6.3938655561404980e+00 2.8114975608415262e+00 0 0 0
83 2 3.6914999999999996e+00 4.9730065436648339e+00 2.8114975608415262e+00 0 0 0
106 2 3.6914999999999996e+00 6.3938655561404980e+00 2.8114975608415262e+00 0 0 0
58 2 0.0000000000000000e+00 7.1042950623783341e+00 2.8114975608415262e+00 0 0 0
73 2 0.0000000000000000e+00 8.5251540748539991e+00 2.8114975608415262e+00 0 0 0
75 2 1.2305000000000001e+00 9.2355835810918343e+00 2.8114975608415262e+00 0 0 0
79 2 2.4610000000000003e+00 7.1042950623783341e+00 2.8114975608415262e+00 0 0 0
102 2 2.4610000000000003e+00 8.5251540748539991e+00 2.8114975608415262e+00 0 0 0
104 2 3.6915000000000004e+00 9.2355835810918343e+00 2.8114975608415262e+00 0 0 0
108 2 4.9220000000000006e+00 7.1042950623783341e+00 2.8114975608415262e+00 0 0 0
139 2 4.9220000000000006e+00 8.5251540748539991e+00 2.8114975608415262e+00 0 0 0
54 2 0.0000000000000000e+00 1.4208590124756650e+00 5.8559632877532195e+00 0 0 0
56 2 0.0000000000000000e+00 0.0000000000000000e+00 5.8559632877532195e+00 0 0 0
65 2 1.2305000000000001e+00 2.1312885187134998e+00 5.8559632877532195e+00 0 0 0
67 2 2.4610000000000003e+00 1.4208590124756650e+00 5.8559632877532195e+00 0 0 0
69 2 2.4610000000000003e+00 0.0000000000000000e+00 5.8559632877532195e+00 0 0 0
86 2 3.6914999999999996e+00 2.1312885187134998e+00 5.8559632877532195e+00 0 0 0
382 2 0.0000000000000000e+00 2.8417180249513345e+00 8.9004290146717278e+00 0 0 0
383 2 0.0000000000000000e+00 0.0000000000000000e+00 8.9004290146717278e+00 0 0 0
384 2 1.2305000000000001e+00 7.1042950623783474e-01 8.9004290146717278e+00 0 0 0
388 2 1.2305000000000001e+00 2.1312885187134998e+00 8.9004290146717278e+00 0 0 0
389 2 2.4610000000000003e+00 2.8417180249513345e+00 8.9004290146717278e+00 0 0 0
390 2 2.4610000000000003e+00 0.0000000000000000e+00 8.9004290146717278e+00 0 0 0
391 2 3.6915000000000004e+00 7.1042950623783474e-01 8.9004290146717278e+00 0 0 0
399 2 3.6914999999999996e+00 2.1312885187134998e+00 8.9004290146717278e+00 0 0 0
88 2 4.9220000000000006e+00 1.4208590124756650e+00 5.8559632877532195e+00 0 0 0
90 2 4.9220000000000006e+00 0.0000000000000000e+00 5.8559632877532195e+00 0 0 0
400 2 4.9220000000000006e+00 2.8417180249513332e+00 8.9004290146717278e+00 0 0 0
401 2 4.9220000000000006e+00 0.0000000000000000e+00 8.9004290146717278e+00 0 0 0
61 2 0.0000000000000000e+00 4.2625770374269996e+00 5.8559632877532195e+00 0 0 0
63 2 1.2305000000000001e+00 3.5521475311891644e+00 5.8559632877532195e+00 0 0 0
82 2 2.4610000000000003e+00 4.2625770374269996e+00 5.8559632877532195e+00 0 0 0
84 2 3.6914999999999996e+00 3.5521475311891644e+00 5.8559632877532195e+00 0 0 0
386 2 0.0000000000000000e+00 4.2625770374269996e+00 8.9004290146717278e+00 0 0 0
397 2 2.4610000000000003e+00 4.2625770374269996e+00 8.9004290146717278e+00 0 0 0
111 2 4.9220000000000006e+00 4.2625770374269978e+00 5.8559632877532195e+00 0 0 0
412 2 4.9220000000000006e+00 4.2625770374269978e+00 8.9004290146717278e+00 0 0 0
59 2 0.0000000000000000e+00 5.6834360499026637e+00 5.8559632877532195e+00 0 0 0
78 2 1.2305000000000001e+00 6.3938655561404980e+00 5.8559632877532195e+00 0 0 0
80 2 2.4610000000000003e+00 5.6834360499026637e+00 5.8559632877532195e+00 0 0 0
107 2 3.6914999999999996e+00 6.3938655561404980e+00 5.8559632877532195e+00 0 0 0
387 2 1.2305000000000001e+00 4.9730065436648339e+00 8.9004290146717278e+00 0 0 0
395 2 1.2305000000000001e+00 6.3938655561404980e+00 8.9004290146717278e+00 0 0 0
398 2 3.6914999999999996e+00 4.9730065436648339e+00 8.9004290146717278e+00 0 0 0
410 2 3.6914999999999996e+00 6.3938655561404980e+00 8.9004290146717278e+00 0 0 0
109 2 4.9220000000000006e+00 5.6834360499026637e+00 5.8559632877532195e+00 0 0 0
74 2 0.0000000000000000e+00 8.5251540748539991e+00 5.8559632877532195e+00 0 0 0
76 2 1.2305000000000001e+00 7.8147245686161639e+00 5.8559632877532195e+00 0 0 0
103 2 2.4610000000000003e+00 8.5251540748539991e+00 5.8559632877532195e+00 0 0 0
105 2 3.6914999999999996e+00 7.8147245686161639e+00 5.8559632877532195e+00 0 0 0
385 2 0.0000000000000000e+00 7.1042950623783341e+00 8.9004290146717278e+00 0 0 0
393 2 0.0000000000000000e+00 8.5251540748539991e+00 8.9004290146717278e+00 0 0 0
394 2 1.2305000000000001e+00 9.2355835810918343e+00 8.9004290146717278e+00 0 0 0
396 2 2.4610000000000003e+00 7.1042950623783341e+00 8.9004290146717278e+00 0 0 0
408 2 2.4610000000000003e+00 8.5251540748539991e+00 8.9004290146717278e+00 0 0 0
409 2 3.6915000000000004e+00 9.2355835810918343e+00 8.9004290146717278e+00 0 0 0
140 2 4.9220000000000006e+00 8.5251540748539991e+00 5.8559632877532195e+00 0 0 0
411 2 4.9220000000000006e+00 7.1042950623783341e+00 8.9004290146717278e+00 0 0 0
427 2 4.9220000000000006e+00 8.5251540748539991e+00 8.9004290146717278e+00 0 0 0
3947 1 5.0163188270763692e+00 3.1704900859773293e+00 1.1056876253456279e+01 1 0 0
576 1 4.5057586842395150e+00 7.9959827114099868e-01 1.1871505104529016e+01 2 2 0
3408 1 5.4226872120784964e-01 3.3990936983365434e+00 1.1456528304071210e+01 0 1 0
2630 1 3.0248290149170485e+00 4.7520936196058816e+00 1.2032476743015440e+01 0 0 0
705 1 3.2070344031510518e+00 7.5108837356027349e+00 1.1406620857799691e+01 0 0 0
15 1 5.4840203206997176e+00 9.0264675668434311e+00 1.1532675880351317e+01 1 0 0
3414 1 7.3301376505668736e-01 9.0621851784142589e+00 1.2046958592158493e+01 0 0 0
1301 1 3.1406189797623424e-01 6.0224144030327975e-01 1.1619805960089622e+01 0 -1 0
2755 1 4.7079931303788767e+00 3.5371747476871582e+00 1.5869236898592616e+01 0 1 1
2678 1 4.6148491604565010e+00 1.0435912508071037e+00 1.4994454905472338e+01 0 2 1
2097 1 3.8803800898925167e-01 6.7116189411076084e+00 2.3013553538685045e+01 1 1 -1
3981 1 3.0879318494071711e-01 1.1412357016479158e+00 1.9088850328531663e+01 0 0 -1
2591 1 8.3505005687599698e-01 9.4838145942457182e+00 2.5921646788737306e+01 0 0 0
638 1 5.2054488036462336e+00 9.2385357817849130e+00 1.4497425745950650e+01 0 0 -1
3398 1 2.5837396732624853e+00 7.5295281765444653e+00 1.5114758417694926e+01 0 0 0
635 1 2.7757905962575768e+00 4.7403977338721131e+00 1.4677778227888217e+01 0 1 0
3923 1 2.7941738569910939e+00 7.9211026603341264e+00 1.7990478199774550e+01 1 2 0
568 1 4.5930296878084107e+00 3.5903212541163665e+00 1.8617323981874279e+01 0 1 0
3345 1 4.8398271746029065e-01 3.8313292093062428e+00 1.8444393966270013e+01 1 0 0
2669 1 4.6259995313799207e-01 8.8080494663160647e-01 2.1867403322440680e+01 1 0 0
1964 1 6.5752812994360421e-01 1.0548468942313260e+00 1.4478164495014672e+01 -1 0 -1
1327 1 4.7345557401401130e+00 8.8686779560329110e-01 2.2142088767895743e+01 0 0 0
2619 1 4.6769630302112839e+00 8.2661740863398026e-01 1.9438748395360754e+01 0 0 -1
1350 1 2.6595454139349402e+00 5.1350608910124835e+00 2.2317771728015593e+01 0 1 -1
2551 1 2.6587834917317676e-01 9.3793379711883684e+00 2.1731462408093464e+01 0 1 0
581 1 2.5909971266310965e+00 5.3194161752093931e+00 1.9392503144103081e+01 1 0 0
3953 1 5.0156539072296003e+00 9.1703424802319322e+00 2.1480317106948988e+01 1 0 0
3935 1 4.9170329526606116e+00 9.2311185498414261e+00 1.8837336048180028e+01 0 1 0
30 1 5.1455678703537640e+00 6.5461848709953916e+00 2.2595621303461705e+01 0 0 0
3383 1 4.5158785828075426e-01 9.2511129672383614e+00 1.8918802839702551e+01 1 1 -1
1263 1 2.5278597973626500e+00 2.3517033569862069e+00 2.2786661558361303e+01 1 1 0
34 1 4.8050437358181908e+00 4.5196897017184301e-01 2.5953946101933340e+01 1 0 -1
9 1 2.1424327752440746e+00 1.9370700199173578e+00 2.5510139082734177e+01 1 1 0
3350 1 3.4553297261186518e-03 2.8858738364048730e-01 2.5903819168554229e+01 0 0 0
3441 1 6.8203083153966626e-01 6.6117456690704293e+00 2.5884862960786506e+01 0 0 0
2059 1 2.7462910333577311e+00 4.8368253388538811e+00 2.5335734896372983e+01 2 0 -1
31 1 4.0108229727400135e-01 3.7306550467573207e+00 1.5784360965113121e+01 1 0 -1
613 1 5.0561715315213034e+00 6.5137849284775964e+00 2.5521001424021279e+01 1 1 0
3331 1 5.0530742987710369e+00 9.1377428876043485e+00 2.5970988527160088e+01 0 0 -1
1368 1 1.6953652705267119e-01 9.0135225350889936e+00 1.4821597601819789e+01 0 0 0
71 2 0.0000000000000000e+00 1.1366872099805333e+01 2.8114975608415262e+00 0 0 0
94 2 0.0000000000000000e+00 1.2787731112280996e+01 2.8114975608415262e+00 0 0 0
96 2 1.2305000000000001e+00 1.3498160618518829e+01 2.8114975608415262e+00 0 0 0
98 2 1.2305000000000001e+00 1.0656442593567498e+01 2.8114975608415262e+00 0 0 0
100 2 2.4610000000000003e+00 1.1366872099805333e+01 2.8114975608415262e+00 0 0 0
131 2 2.4610000000000003e+00 1.2787731112280996e+01 2.8114975608415262e+00 0 0 0
133 2 3.6915000000000004e+00 1.3498160618518829e+01 2.8114975608415262e+00 0 0 0
135 2 3.6914999999999996e+00 1.0656442593567499e+01 2.8114975608415262e+00 0 0 0
137 2 4.9220000000000006e+00 1.1366872099805333e+01 2.8114975608415262e+00 0 0 0
176 2 4.9220000000000006e+00 1.2787731112280996e+01 2.8114975608415262e+00 0 0 0
178 2 6.1524999999999990e+00 1.3498160618518829e+01 2.8114975608415262e+00 0 0 0
92 2 0.0000000000000000e+00 1.5629449137232333e+01 2.8114975608415262e+00 0 0 0
123 2 0.0000000000000000e+00 1.7050308149707998e+01 2.8114975608415262e+00 0 0 0
127 2 1.2305000000000001e+00 1.4919019630994494e+01 2.8114975608415262e+00 0 0 0
129 2 2.4610000000000003e+00 1.5629449137232328e+01 2.8114975608415262e+00 0 0 0
168 2 2.4610000000000003e+00 1.7050308149707998e+01 2.8114975608415262e+00 0 0 0
172 2 3.6915000000000004e+00 1.4919019630994494e+01 2.8114975608415262e+00 0 0 0
174 2 4.9220000000000006e+00 1.5629449137232333e+01 2.8114975608415262e+00 0 0 0
215 2 4.9220000000000006e+00 1.7050308149707998e+01 2.8114975608415262e+00 0 0 0
219 2 6.1524999999999990e+00 1.4919019630994494e+01 2.8114975608415262e+00 0 0 0
125 2 1.2305000000000001e+00 1.7760737655945832e+01 2.8114975608415262e+00 0 0 0
164 2 1.2305000000000001e+00 1.9181596668421495e+01 2.8114975608415262e+00 0 0 0
170 2 3.6914999999999996e+00 1.7760737655945832e+01 2.8114975608415262e+00 0 0 0
211 2 3.6914999999999996e+00 1.9181596668421495e+01 2.8114975608415262e+00 0 0 0
72 2 0.0000000000000000e+00 9.9460130873296642e+00 5.8559632877532195e+00 0 0 0
101 2 2.4610000000000003e+00 9.9460130873296642e+00 5.8559632877532195e+00 0 0 0
138 2 4.9220000000000006e+00 9.9460130873296642e+00 5.8559632877532195e+00 0 0 0
95 2 0.0000000000000000e+00 1.2787731112280996e+01 5.8559632877532195e+00 0 0 0
97 2 1.2305000000000001e+00 1.2077301606043163e+01 5.8559632877532195e+00 0 0 0
99 2 1.2305000000000001e+00 1.0656442593567498e+01 5.8559632877532195e+00 0 0 0
132 2 2.4610000000000003e+00 1.2787731112280996e+01 5.8559632877532195e+00 0 0 0
134 2 3.6914999999999996e+00 1.2077301606043163e+01 5.8559632877532195e+00 0 0 0
136 2 3.6914999999999996e+00 1.0656442593567499e+01 5.8559632877532195e+00 0 0 0
392 2 0.0000000000000000e+00 1.1366872099805333e+01 8.9004290146717278e+00 0 0 0
404 2 0.0000000000000000e+00 1.2787731112280996e+01 8.9004290146717278e+00 0 0 0
405 2 1.2305000000000001e+00 1.3498160618518829e+01 8.9004290146717278e+00 0 0 0
406 2 1.2305000000000001e+00 1.0656442593567498e+01 8.9004290146717278e+00 0 0 0
407 2 2.4610000000000003e+00 1.1366872099805333e+01 8.9004290146717278e+00 0 0 0
423 2 2.4610000000000003e+00 1.2787731112280996e+01 8.9004290146717278e+00 0 0 0
424 2 3.6915000000000004e+00 1.3498160618518829e+01 8.9004290146717278e+00 0 0 0
425 2 3.6914999999999996e+00 1.0656442593567499e+01 8.9004290146717278e+00 0 0 0
177 2 4.9220000000000006e+00 1.2787731112280996e+01 5.8559632877532195e+00 0 0 0
426 2 4.9220000000000006e+00 1.1366872099805333e+01 8.9004290146717278e+00 0 0 0
446 2 4.9220000000000006e+00 1.2787731112280996e+01 8.9004290146717278e+00 0 0 0
447 2 6.1524999999999990e+00 1.3498160618518829e+01 8.9004290146717278e+00 0 0 0
93 2 0.0000000000000000e+00 1.4208590124756663e+01 5.8559632877532195e+00 0 0 0
130 2 2.4610000000000003e+00 1.4208590124756663e+01 5.8559632877532195e+00 0 0 0
175 2 4.9220000000000006e+00 1.4208590124756663e+01 5.8559632877532195e+00 0 0 0
124 2 0.0000000000000000e+00 1.7050308149707998e+01 5.8559632877532195e+00 0 0 0
126 2 1.2305000000000001e+00 1.6339878643470165e+01 5.8559632877532195e+00 0 0 0
128 2 1.2305000000000001e+00 1.4919019630994494e+01 5.8559632877532195e+00 0 0 0
169 2 2.4610000000000003e+00 1.7050308149707998e+01 5.8559632877532195e+00 0 0 0
171 2 3.6915000000000004e+00 1.6339878643470165e+01 5.8559632877532195e+00 0 0 0
173 2 3.6915000000000004e+00 1.4919019630994494e+01 5.8559632877532195e+00 0 0 0
403 2 0.0000000000000000e+00 1.5629449137232333e+01 8.9004290146717278e+00 0 0 0
419 2 0.0000000000000000e+00 1.7050308149707998e+01 8.9004290146717278e+00 0 0 0
421 2 1.2305000000000001e+00 1.4919019630994494e+01 8.9004290146717278e+00 0 0 0
422 2 2.4610000000000003e+00 1.5629449137232328e+01 8.9004290146717278e+00 0 0 0
442 2 2.4610000000000003e+00 1.7050308149707998e+01 8.9004290146717278e+00 0 0 0
444 2 3.6915000000000004e+00 1.4919019630994494e+01 8.9004290146717278e+00 0 0 0
216 2 4.9220000000000006e+00 1.7050308149707998e+01 5.8559632877532195e+00 0 0 0
220 2 6.1524999999999990e+00 1.4919019630994494e+01 5.8559632877532195e+00 0 0 0
445 2 4.9220000000000006e+00 1.5629449137232333e+01 8.9004290146717278e+00 0 0 0
466 2 4.9220000000000006e+00 1.7050308149707998e+01 8.9004290146717278e+00 0 0 0
468 2 6.1524999999999990e+00 1.4919019630994494e+01 8.9004290146717278e+00 0 0 0
122 2 0.0000000000000000e+00 1.8471167162183658e+01 5.8559632877532195e+00 0 0 0
165 2 1.2305000000000001e+00 1.9181596668421495e+01 5.8559632877532195e+00 0 0 0
167 2 2.4610000000000003e+00 1.8471167162183658e+01 5.8559632877532195e+00 0 0 0
212 2 3.6914999999999996e+00 1.9181596668421495e+01 5.8559632877532195e+00 0 0 0
420 2 1.2305000000000001e+00 1.7760737655945832e+01 8.9004290146717278e+00 0 0 0
440 2 1.2305000000000001e+00 1.9181596668421495e+01 8.9004290146717278e+00 0 0 0
443 2 3.6914999999999996e+00 1.7760737655945832e+01 8.9004290146717278e+00 0 0 0
464 2 3.6914999999999996e+00 1.9181596668421495e+01 8.9004290146717278e+00 0 0 0
214 2 4.9220000000000006e+00 1.8471167162183658e+01 5.8559632877532195e+00 0 0 0
1291 1 5.0371812177748625e+00 1.1665356547309612e+01 1.1338468777395530e+01 0 1 0
3960 1 2.5237982432283483e+00 1.2893063876286833e+01 1.2139150686784070e+01 1 0 -1
1235 1 4.4051459071518234e-01 1.1624864699037644e+01 1.1410765005004988e+01 1 0 0
3440 1 2.6131272709827291e+00 1.5611610711333780e+01 1.1162262278804068e+01 2 0 0
618 1 4.9585855007253441e+00 1.7182183826487812e+01 1.1691899493067632e+01 1 -1 0
596 1 2.6498598249724220e-01 1.7098758943703960e+01 1.1715779810603850e+01 1 0 0
2086 1 5.1353965085410787e+00 1.1898513190889291e+01 1.5539769173634244e+01 0 1 0
1961 1 2.7696401959510935e+00 1.3155832251454397e+01 1.4756778556908696e+01 0 0 0
3260 1 4.5103836522506285e-01 1.1824144687248639e+01 1.5564628675386700e+01 1 0 -1
3250 1 5.2242953828701149e+00 1.2056152323667725e+01 1.8325404814411883e+01 2 1 0
3890 1 4.8161193027009791e-01 1.1988706944837132e+01 1.8421770202651096e+01 0 0 -1
2087 1 2.5090146105403215e+00 1.5904905347617889e+01 1.5457392972117885e+01 1 0 0
3999 1 4.8736098271395640e+00 1.7156635615946037e+01 1.4528413861594482e+01 0 1 0
678 1 2.6763083091092392e+00 1.6030997997551392e+01 1.8403854183142030e+01 0 0 -1
542 1 6.8368324516749091e-01 1.7713454825515786e+01 2.5975781051562777e+01 0 0 0
1287 1 2.7493306523890397e+00 1.3208653469436850e+01 1.9079148741750203e+01 0 0 1
2732 1 2.6777054053673655e+00 1.3436471827710738e+01 2.1878812681302968e+01 0 1 0
1993 1 2.6254503758851633e+00 1.0516603494112010e+01 2.2390312618962241e+01 1 0 0
2743 1 5.1997583242039571e+00 1.7573632723624744e+01 1.8807633158049320e+01 1 0 1
1330 1 5.2512436589778186e+00 1.7480839192687931e+01 2.1438673903911436e+01 1 0 -1
2771 1 6.1093977472617933e-01 1.7419611593779038e+01 2.1782817730126709e+01 1 -1 0
3318 1 4.6162902927002936e-01 1.7523766829304847e+01 1.9225769491141747e+01 1 0 -1
1227 1 2.9054841988523319e+00 1.8729535283379981e+01 2.2314748308840166e+01 0 0 0
762 1 2.9674578192825902e+00 1.3382001050549578e+01 2.5521535712546594e+01 0 0 1
2581 1 3.0500888800026851e+00 1.0606451104622874e+01 2.5131478292808680e+01 0 1 0
2084 1 8.5902680843035339e-01 1.4957643137062307e+01 2.5176784060192254e+01 0 1 0
4021 1 4.2294631122115833e-01 1.4893371233795905e+01 2.2558184486646780e+01 1 1 0
1920 1 5.0917055519073893e+00 1.4917872893166281e+01 2.2312201018496701e+01 1 1 -1
2718 1 5.2130030521946633e+00 1.4627141768647412e+01 2.5052912759813552e+01 -1 0 -1
3378 1 5.2704151550073357e+00 1.7249370958883418e+01 2.5852917109166583e+01 1 -1 0
35 1 2.9397572005583803e+00 1.8788429760851475e+01 2.5179641485480474e+01 0 -1 0
3921 1 4.3705526436347886e-01 1.7366673382069393e+01 1.4410065644299108e+01 1 2 -1
121 2 0.0000000000000000e+00 1.9892026174659328e+01 2.8114975608415262e+00 0 0 0
166 2 2.4610000000000003e+00 1.9892026174659328e+01 2.8114975608415262e+00 0 0 0
213 2 4.9220000000000006e+00 1.9892026174659328e+01 2.8114975608415262e+00 0 0 0
158 2 0.0000000000000000e+00 2.4154603212086325e+01 2.8114975608415262e+00 0 0 0
160 2 0.0000000000000000e+00 2.1312885187134999e+01 2.8114975608415262e+00 0 0 0
162 2 1.2304999999999993e+00 2.2023314693372832e+01 2.8114975608415262e+00 0 0 0
203 2 1.2304999999999993e+00 2.3444173705848499e+01 2.8114975608415262e+00 0 0 0
205 2 2.4610000000000003e+00 2.4154603212086325e+01 2.8114975608415262e+00 0 0 0
207 2 2.4610000000000003e+00 2.1312885187134995e+01 2.8114975608415262e+00 0 0 0
209 2 3.6914999999999996e+00 2.2023314693372832e+01 2.8114975608415262e+00 0 0 0
250 2 3.6915000000000004e+00 2.3444173705848499e+01 2.8114975608415262e+00 0 0 0
252 2 4.9220000000000006e+00 2.4154603212086325e+01 2.8114975608415262e+00 0 0 0
254 2 4.9220000000000006e+00 2.1312885187134995e+01 2.8114975608415262e+00 0 0 0
256 2 6.1524999999999990e+00 2.2023314693372832e+01 2.8114975608415262e+00 0 0 0
774 2 0.0000000000000000e+00 2.5575462224561992e+01 2.8114975608415262e+00 0 0 0
776 2 1.2305000000000001e+00 2.6285891730799833e+01 2.8114975608415262e+00 0 0 0
784 2 1.2305000000000010e+00 2.7706750743275496e+01 2.8114975608415262e+00 0 0 0
788 2 2.4610000000000003e+00 2.5575462224561992e+01 2.8114975608415262e+00 0 0 0
790 2 3.6914999999999991e+00 2.6285891730799833e+01 2.8114975608415262e+00 0 0 0
806 2 3.6914999999999996e+00 2.7706750743275496e+01 2.8114975608415262e+00 0 0 0
810 2 4.9220000000000006e+00 2.5575462224561992e+01 2.8114975608415262e+00 0 0 0
836 2 6.1524999999999990e+00 2.7706750743275496e+01 2.8114975608415262e+00 0 0 0
772 2 0.0000000000000000e+00 2.8417180249513333e+01 2.8114975608415262e+00 0 0 0
786 2 2.4610000000000003e+00 2.8417180249513326e+01 2.8114975608415262e+00 0 0 0
808 2 4.9220000000000006e+00 2.8417180249513336e+01 2.8114975608415262e+00 0 0 0
163 2 1.2305000000000001e+00 2.0602455680897162e+01 5.8559632877532195e+00 0 0 0
210 2 3.6915000000000004e+00 2.0602455680897162e+01 5.8559632877532195e+00 0 0 0
418 2 0.0000000000000000e+00 1.9892026174659328e+01 8.9004290146717278e+00 0 0 0
441 2 2.4610000000000003e+00 1.9892026174659328e+01 8.9004290146717278e+00 0 0 0
465 2 4.9220000000000006e+00 1.9892026174659328e+01 8.9004290146717278e+00 0 0 0
159 2 0.0000000000000000e+00 2.2733744199610655e+01 5.8559632877532195e+00 0 0 0
161 2 0.0000000000000000e+00 2.1312885187134999e+01 5.8559632877532195e+00 0 0 0
204 2 1.2304999999999993e+00 2.3444173705848499e+01 5.8559632877532195e+00 0 0 0
206 2 2.4610000000000003e+00 2.2733744199610655e+01 5.8559632877532195e+00 0 0 0
208 2 2.4610000000000003e+00 2.1312885187134995e+01 5.8559632877532195e+00 0 0 0
251 2 3.6915000000000004e+00 2.3444173705848499e+01 5.8559632877532195e+00 0 0 0
437 2 0.0000000000000000e+00 2.4154603212086325e+01 8.9004290146717278e+00 0 0 0
438 2 0.0000000000000000e+00 2.1312885187134999e+01 8.9004290146717278e+00 0 0 0
439 2 1.2304999999999993e+00 2.2023314693372832e+01 8.9004290146717278e+00 0 0 0
460 2 1.2304999999999993e+00 2.3444173705848499e+01 8.9004290146717278e+00 0 0 0
461 2 2.4610000000000003e+00 2.4154603212086325e+01 8.9004290146717278e+00 0 0 0
462 2 2.4610000000000003e+00 2.1312885187134995e+01 8.9004290146717278e+00 0 0 0
463 2 3.6914999999999996e+00 2.2023314693372832e+01 8.9004290146717278e+00 0 0 0
484 2 3.6915000000000004e+00 2.3444173705848499e+01 8.9004290146717278e+00 0 0 0
253 2 4.9220000000000006e+00 2.2733744199610655e+01 5.8559632877532195e+00 0 0 0
255 2 4.9220000000000006e+00 2.1312885187134995e+01 5.8559632877532195e+00 0 0 0
485 2 4.9220000000000006e+00 2.4154603212086325e+01 8.9004290146717278e+00 0 0 0
486 2 4.9220000000000006e+00 2.1312885187134995e+01 8.9004290146717278e+00 0 0 0
487 2 6.1524999999999990e+00 2.2023314693372832e+01 8.9004290146717278e+00 0 0 0
773 2 0.0000000000000000e+00 2.6996321237037659e+01 5.8559632877532195e+00 0 0 0
775 2 0.0000000000000000e+00 2.5575462224561992e+01 5.8559632877532195e+00 0 0 0
777 2 1.2305000000000001e+00 2.4865032718324155e+01 5.8559632877532195e+00 0 0 0
785 2 1.2305000000000010e+00 2.7706750743275496e+01 5.8559632877532195e+00 0 0 0
787 2 2.4610000000000003e+00 2.6996321237037659e+01 5.8559632877532195e+00 0 0 0
789 2 2.4610000000000003e+00 2.5575462224561992e+01 5.8559632877532195e+00 0 0 0
791 2 3.6914999999999996e+00 2.4865032718324166e+01 5.8559632877532195e+00 0 0 0
807 2 3.6914999999999996e+00 2.7706750743275496e+01 5.8559632877532195e+00 0 0 0
1088 2 0.0000000000000000e+00 2.5575462224561992e+01 8.9004290146717278e+00 0 0 0
1089 2 1.2305000000000001e+00 2.6285891730799833e+01 8.9004290146717278e+00 0 0 0
1093 2 1.2305000000000010e+00 2.7706750743275496e+01 8.9004290146717278e+00 0 0 0
1095 2 2.4610000000000003e+00 2.5575462224561992e+01 8.9004290146717278e+00 0 0 0
1096 2 3.6914999999999991e+00 2.6285891730799833e+01 8.9004290146717278e+00 0 0 0
1104 2 3.6914999999999996e+00 2.7706750743275496e+01 8.9004290146717278e+00 0 0 0
809 2 4.9220000000000006e+00 2.6996321237037659e+01 5.8559632877532195e+00 0 0 0
811 2 4.9220000000000006e+00 2.5575462224561992e+01 5.8559632877532195e+00 0 0 0
813 2 6.1524999999999990e+00 2.4865032718324155e+01 5.8559632877532195e+00 0 0 0
837 2 6.1524999999999990e+00 2.7706750743275496e+01 5.8559632877532195e+00 0 0 0
1106 2 4.9220000000000006e+00 2.5575462224561992e+01 8.9004290146717278e+00 0 0 0
1119 2 6.1524999999999990e+00 2.7706750743275496e+01 8.9004290146717278e+00 0 0 0
783 2 1.2304999999999993e+00 2.9127609755751163e+01 5.8559632877532195e+00 0 0 0
805 2 3.6914999999999991e+00 2.9127609755751152e+01 5.8559632877532195e+00 0 0 0
1087 2 0.0000000000000000e+00 2.8417180249513333e+01 8.9004290146717278e+00 0 0 0
1094 2 2.4610000000000003e+00 2.8417180249513326e+01 8.9004290146717278e+00 0 0 0
835 2 6.1524999999999981e+00 2.9127609755751152e+01 5.8559632877532195e+00 0 0 0
1105 2 4.9220000000000006e+00 2.8417180249513336e+01 8.9004290146717278e+00 0 0 0
3941 1 2.3345196738914957e+00 2.1538575860344757e+01 1.1846920061900459e+01 0 0 0
1925 1 2.4419596867524351e+00 2.4221055964457044e+01 1.1236277589799339e+01 -1 0 -2
1280 1 1.8120513769057436e-01 2.8338226959060954e+01 1.1584228393429276e+01 -1 0 -1
1261 1 4.8642074750411837e+00 2.8251640560641174e+01 1.1216008239058894e+01 1 0 0
1979 1 4.9633630728182938e+00 2.5600119812182381e+01 1.1736798336838843e+01 0 -1 0
2760 1 4.9950537287881409e-02 2.5557154606334890e+01 1.1751008673728251e+01 1 0 1
2123 1 3.4210190235554866e-01 1.9866507174851069e+01 1.1160855130489374e+01 0 0 -1
2100 1 4.8042872542412765e+00 2.0080094773546239e+01 1.1418281600985576e+01 1 0 0
3909 1 2.6740243309893343e+00 2.3896285398320309e+01 1.5276208929637324e+01 1 0 0
1357 1 2.7127424901053705e+00 2.1313574531566349e+01 1.4458584207481728e+01 0 -1 0
3945 1 2.7019305395588269e+00 2.4136902674756524e+01 1.7889068301416820e+01 1 0 -1
4045 1 4.7571921137564530e+00 2.5462162522486743e+01 2.6064709386052357e+01 -1 1 0
1228 1 3.3879530936791752e-01 2.0051780080686360e+01 1.5282854545669453e+01 0 -1 0
3402 1 8.1586997071660838e-01 2.5236068033355956e+01 2.6117125030188426e+01 2 -1 1
3451 1 7.8679686762518453e-01 1.9876250822047936e+01 1.7922072447854539e+01 1 0 0
1240 1 4.8291323140083326e+00 2.5482290693372807e+01 1.4329971835022413e+01 1 1 0
3942 1 5.2574598670506285e+00 2.8061471660826921e+01 1.5398610570784426e+01 0 -1 0
3956 1 7.4054008971619523e-01 2.5513880957146448e+01 1.4403399391756230e+01 0 0 0
2644 1 5.8016279268199644e-01 2.2801354112747521e+01 2.2215388379500325e+01 0 0 0
2690 1 5.1580829063079126e+00 2.8314394508643275e+01 1.7895629668070001e+01 1 0 0
545 1 5.1681067356824284e-01 2.7844945393752976e+01 1.7642940691768032e+01 0 1 0
2679 1 3.0670008097887513e+00 2.1556823771662796e+01 1.8690793108647199e+01 1 -1 -1
3888 1 2.7268761217012871e+00 2.1258626901381788e+01 2.1331360937413734e+01 -1 0 0
617 1 4.8478473869270120e+00 2.2511252137999328e+01 2.2384100423221525e+01 1 0 0
3968 1 7.0304031198777572e-01 2.5288123141119101e+01 1.8843073415505451e+01 2 0 0
1260 1 6.3813995509071220e-01 2.5526744424121190e+01 2.1554327567703425e+01 1 0 0
747 1 2.7342399560935626e+00 2.6850166299369675e+01 2.2530664852028650e+01 0 1 1
1949 1 4.7657803401383285e+00 2.5641355028395900e+01 1.8737796969488954e+01 0 1 -1
2773 1 4.7830428758987651e+00 2.5271239240631456e+01 2.1463842700677667e+01 0 0 0
1317 1 6.2697278862717909e-01 2.2789954272440628e+01 2.4982901530226208e+01 1 -1 0
1232 1 6.8022489609487524e-01 2.8052345028339630e+01 1.5082424051975805e+01 2 0 0
2572 1 2.8794067138988555e+00 2.1440270822599455e+01 2.5813635335033830e+01 0 -1 -1
686 1 5.1444724861970252e+00 2.2824171977322241e+01 2.5069822898688230e+01 0 0 0
3315 1 2.7378875408694476e+00 2.6916201529800439e+01 2.5287765909398956e+01 1 0 0
2635 1 5.1141937902690886e+00 2.0006216260092124e+01 1.4737642302836228e+01 0 0 -1
3977 1 5.2150631540399104e+00 2.0188843853955611e+01 1.7743301550043405e+01 0 0 -1
2040 1 2.4949663225812704e+00 2.9134945028753659e+01 1.8793288603324228e+01 0 0 0
780 2 0.0000000000000000e+00 2.9838039261988989e+01 2.8114975608415262e+00 0 0 0
782 2 1.2304999999999993e+00 3.0548468768226829e+01 2.8114975608415262e+00 0 0 0
802 2 2.4610000000000003e+00 2.9838039261988989e+01 2.8114975608415262e+00 0 0 0
804 2 3.6915000000000004e+00 3.0548468768226829e+01 2.8114975608415262e+00 0 0 0
832 2 4.9220000000000006e+00 2.9838039261988989e+01 2.8114975608415262e+00 0 0 0
778 2 0.0000000000000000e+00 3.2679757286940330e+01 2.8114975608415262e+00 0 0 0
794 2 0.0000000000000000e+00 3.4100616299415996e+01 2.8114975608415262e+00 0 0 0
798 2 1.2304999999999993e+00 3.1969327780702493e+01 2.8114975608415262e+00 0 0 0
800 2 2.4610000000000003e+00 3.2679757286940337e+01 2.8114975608415262e+00 0 0 0
824 2 2.4609999999999985e+00 3.4100616299415996e+01 2.8114975608415262e+00 0 0 0
828 2 3.6914999999999996e+00 3.1969327780702493e+01 2.8114975608415262e+00 0 0 0
830 2 4.9220000000000015e+00 3.2679757286940337e+01 2.8114975608415262e+00 0 0 0
862 2 4.9220000000000006e+00 3.4100616299415996e+01 2.8114975608415262e+00 0 0 0
796 2 1.2305000000000010e+00 3.4811045805653833e+01 2.8114975608415262e+00 0 0 0
826 2 3.6915000000000018e+00 3.4811045805653833e+01 2.8114975608415262e+00 0 0 0
792 2 0.0000000000000000e+00 3.6942334324367337e+01 2.8114975608415262e+00 0 0 0
816 2 0.0000000000000000e+00 3.8363193336842990e+01 2.8114975608415262e+00 0 0 0
820 2 1.2304999999999993e+00 3.6231904818129486e+01 2.8114975608415262e+00 0 0 0
822 2 2.4610000000000021e+00 3.6942334324367337e+01 2.8114975608415262e+00 0 0 0
854 2 2.4610000000000003e+00 3.8363193336842990e+01 2.8114975608415262e+00 0 0 0
858 2 3.6914999999999996e+00 3.6231904818129486e+01 2.8114975608415262e+00 0 0 0
860 2 4.9220000000000006e+00 3.6942334324367316e+01 2.8114975608415262e+00 0 0 0
899 2 4.9220000000000006e+00 3.8363193336842990e+01 2.8114975608415262e+00 0 0 0
818 2 1.2305000000000010e+00 3.9073622843080841e+01 2.8114975608415262e+00 0 0 0
856 2 3.6915000000000018e+00 3.9073622843080820e+01 2.8114975608415262e+00 0 0 0
779 2 0.0000000000000000e+00 3.1258898274464656e+01 5.8559632877532195e+00 0 0 0
781 2 0.0000000000000000e+00 2.9838039261988989e+01 5.8559632877532195e+00 0 0 0
801 2 2.4609999999999985e+00 3.1258898274464656e+01 5.8559632877532195e+00 0 0 0
803 2 2.4610000000000003e+00 2.9838039261988989e+01 5.8559632877532195e+00 0 0 0
1091 2 0.0000000000000000e+00 2.9838039261988989e+01 8.9004290146717278e+00 0 0 0
1092 2 1.2304999999999993e+00 3.0548468768226829e+01 8.9004290146717278e+00 0 0 0
1102 2 2.4610000000000003e+00 2.9838039261988989e+01 8.9004290146717278e+00 0 0 0
1103 2 3.6915000000000004e+00 3.0548468768226829e+01 8.9004290146717278e+00 0 0 0
831 2 4.9219999999999979e+00 3.1258898274464656e+01 5.8559632877532195e+00 0 0 0