
# Create simulation box and atoms

read_data data.ML_graphite_m500atm_240K
  orthogonal box = (0 0 1.84677) to (49.22 49.0196 26.0932)
  8 by 5 by 2 MPI processor grid
  reading atoms ...
  4055 atoms
  reading velocities ...
  4055 velocities
group water type 1
1295 atoms in group water
group graphite type 2
2760 atoms in group graphite

# Define potential

pair_style sw
pair_coeff * * MLC_e.sw mW C


# Fix graphite atoms in place

fix 5 graphite setforce 0.0 0.0 0.0
velocity graphite set 0.0 0.0 0.0


# Equilibration of molecular water

# Add velocity/set timestep

velocity	    water create ${TEMP} ${SEED} rot yes dist gaussian
velocity	    water create 240 ${SEED} rot yes dist gaussian
velocity	    water create 240 761 rot yes dist gaussian
timestep	    5.0

# Define output

compute			1 water msd
compute			3 water temp
thermo	    	50
thermo_style	custom step temp press vol etotal ke pe c_1[4] c_3

# Neighbor lists

neigh_modify    delay 0 every 1 check yes

# Set fixes

fix             1 water momentum 10 linear 1 1 1 rescale
fix             2 water nve
fix             3 water temp/csvr ${TEMP} ${TEMP} 500.0 ${SEED}
fix             3 water temp/csvr 240 ${TEMP} 500.0 ${SEED}
fix             3 water temp/csvr 240 240 500.0 ${SEED}
fix             3 water temp/csvr 240 240 500.0 761
fix             4 water press/berendsen z ${PRES} ${PRES} 1000.0 modulus 20000
fix             4 water press/berendsen z -500 ${PRES} 1000.0 modulus 20000
fix             4 water press/berendsen z -500 -500 1000.0 modulus 20000

# Run 0.5 ns equilibration

dump		    1 all atom 2000 ${DIR}/eq.${NAME}-${TEMP}.dump
dump		    1 all atom 2000 run_3/eq.${NAME}-${TEMP}.dump
dump		    1 all atom 2000 run_3/eq.het_freeze_3-${TEMP}.dump
dump		    1 all atom 2000 run_3/eq.het_freeze_3-240.dump

reset_timestep  0

run	            100000
Neighbor list info ...
  update every 1 steps, delay 0 steps, check yes
  max neighbors/atom: 2000, page size: 100000
  master list distance cutoff = 6.67472
  ghost atom cutoff = 6.67472
  binsize = 3.33736, bins = 15 15 8
  1 neighbor lists, perpetual/occasional/extra = 1 0 0
  (1) pair sw, perpetual
      attributes: full, newton on
      pair build: full/bin/atomonly
      stencil: full/bin/3d
      bin: standard
Per MPI rank memory allocation (min/avg/max) = 4.096 | 4.284 | 4.472 Mbytes
Step Temp Press Volume TotEng KinEng PotEng c_1[4] c_3 
       0    76.605821   -1210.2423    58500.543   -12658.119    925.72037   -13583.839            0          240 
      50    75.174332   -1585.2282    58536.998   -12674.567    908.42196   -13582.989   0.48275472    235.51526 
     100    77.909616   -1098.1781    58536.833   -12652.831    941.47568   -13594.306    0.7257467    244.08468 
     150     78.54929   -1458.9505    58533.677   -12630.807    949.20564   -13580.013    0.9828606    246.08873 
     200    76.567307   -1118.7675    58479.413   -12629.962    925.25496   -13555.217    1.1771907    239.87934 
     250    77.508618   -1111.4594    58428.366   -12656.424    936.62994   -13593.054    1.4043143    242.82839 
     300    76.723282   -911.71995    58384.412   -12649.604    927.13979   -13576.744    1.5681224      240.368 
     350    75.048508   -1494.3899    58389.164   -12697.073    906.90147   -13603.975    1.6918042    235.12106 
     400    76.829142   -814.09704    58430.643   -12681.536    928.41902   -13609.955     1.868364    240.69965 
     450    77.736909   -1004.6892    58464.966   -12701.796    939.38867   -13641.185    1.9837538    243.54361 
     500    79.122547   -952.91654    58444.712   -12687.823    956.13299   -13643.956    2.0895639     247.8847 
     550    78.228838    -754.9476    58460.357    -12701.38    945.33323   -13646.713    2.1490984    245.08478 
     600    76.368228   -1026.1407    58436.201   -12713.177    922.84924   -13636.026    2.4108077    239.25564 
     650    75.241699   -476.31769    58496.736   -12703.249    909.23604   -13612.485    2.6519388    235.72631 
     700    76.871613   -885.68258    58505.952   -12720.246    928.93224   -13649.178    2.8124047     240.8327 
     750    74.651345   -1073.0966    58454.349   -12730.065    902.10208   -13632.167    2.9799292    233.87678 
     800    73.960155   -1107.6093    58424.237   -12770.748    893.74959   -13664.498    3.1396415    231.71133 
     850    72.692982   -1189.0522    58463.404   -12741.204    878.43682   -13619.641     3.316543    227.74138 
     900    74.073539   -1112.8996    58482.522   -12741.003    895.11975   -13636.123     3.488873    232.06656 
     950    76.195832   -1251.0663    58480.436   -12725.869    920.76597   -13646.635    3.6258028    238.71553 
    1000    76.402641   -900.78528    58476.685   -12700.866     923.2651   -13624.131    3.6719487    239.36345 
    1050    77.142781   -1297.0551    58454.159   -12700.671     932.2091    -13632.88    3.8481439    241.68225 
    1100     76.10828   -772.49814    58494.185   -12712.512    919.70798    -13632.22    4.0470842    238.44124 
    1150     75.94297   -1140.1876    58467.777   -12715.666    917.71034   -13633.376    4.1759937    237.92334 
    1200    76.036562   -1448.1363    58495.063   -12657.731    918.84132   -13576.572    4.3876573    238.21655 
    1250    75.838618   -804.17489    58478.596   -12656.713    916.44933   -13573.162    4.4995827    237.59641 
    1300    74.367586   -900.85024    58446.837   -12688.754    898.67308   -13587.427     4.588338    232.98779 
    1350    74.472812   -1349.7606    58411.019    -12697.52    899.94464   -13597.465    4.7157765    233.31745 
    1400    74.295518   -936.06278    58351.596   -12718.258    897.80219    -13616.06    4.7798528      232.762 
    1450    76.806369   -829.29155    58355.761   -12698.856    928.14383       -13627    4.9726389     240.6283 
    1500    73.556045    -1048.941     58387.72   -12716.552    888.86625   -13605.418    5.0880905    230.44529 
    1550    75.286617   -904.17841    58383.401   -12713.129    909.77884   -13622.908    5.2845308    235.86704 
    1600    76.383914   -1081.9186    58403.998     -12687.9    923.03879   -13610.938    5.5339617    239.30478 
    1650    76.625232   -933.73152    58373.592   -12697.328    925.95493   -13623.283    5.6584622    240.06081 
    1700    73.608121   -1006.1564    58424.665   -12691.674    889.49555   -13581.169    5.7473804    230.60844 
    1750    75.665276   -1091.4075    58484.402   -12701.725    914.35463    -13616.08    5.9385057    237.05335 
    1800    73.950673   -733.43834    58514.038   -12718.497    893.63501   -13612.132    6.0993473    231.68163 
    1850    76.916467   -564.55038    58585.636   -12691.029    929.47427   -13620.504    6.2695835    240.97323 
    1900    76.402664   -1254.8906    58629.226    -12695.27    923.26537   -13618.535    6.4390503    239.36352 
    1950    76.407173   -960.50467    58606.707   -12715.801    923.31986   -13639.121    6.4125311    239.37765 
    2000    74.571757   -1081.5854     58560.18   -12708.757    901.14032   -13609.898    6.4506853    233.62744 
    2050    77.515618   -1077.0074    58503.611   -12674.042    936.71454   -13610.757    6.5589533    242.85032 
    2100    76.479429   -795.93655    58529.382   -12698.089    924.19301   -13622.282     6.713565    239.60402 
    2150    73.981914   -961.05526    58534.022   -12726.823    894.01253   -13620.835    6.6894426     231.7795 
    2200    75.398072   -786.00844    58522.821   -12733.372    911.12568   -13644.497     6.723909    236.21622 
    2250     77.41865   -840.53341     58540.31   -12733.912    935.54275   -13669.455    6.9095211    242.54653 
    2300    76.610374   -741.12042    58558.757   -12728.029    925.77539   -13653.805    7.0759902    240.01426 
    2350    76.436128    -1047.186    58579.726   -12701.466    923.66976   -13625.136    7.3211285    239.46836 
    2400    75.602754   -640.03848    58625.833   -12711.331     913.5991   -13624.931    7.5270672    236.85747 
    2450    80.771303   -942.32476    58695.534   -12689.191    976.05689   -13665.248    7.5831213    253.05012 
    2500    76.964597   -1144.4308     58717.94   -12709.689    930.05589   -13639.745    7.5625156    241.12402 
    2550    76.054058   -1161.6176    58682.415   -12714.038    919.05274    -13633.09    7.6598974    238.27137 
    2600    73.641223   -1442.1704    58683.941   -12761.777    889.89556   -13651.672    7.8057979    230.71215 
    2650    77.032221   -1184.9553    58701.146   -12757.021    930.87307   -13687.894      7.79997    241.33588 
    2700    75.183849   -726.32288    58704.638   -12732.473    908.53696    -13641.01    7.7722463    235.54507 
    2750     76.24567   -732.85218    58738.919   -12732.994    921.36822   -13654.362    7.8528468    238.87167 
    2800    77.515775   -835.71514    58747.276   -12738.581    936.71644   -13675.298     8.264081    242.85081 
    2850    76.323522   -746.80008    58729.624   -12710.888    922.30901   -13633.197    8.4572646    239.11558 
    2900    77.199531   -634.04272    58745.871   -12716.986    932.89487   -13649.881    8.5878803    241.86004 
    2950    76.241906   -856.67861    58798.983   -12707.399    921.32274   -13628.722    8.6924164    238.85988 
    3000      74.1809   -854.03486    58807.466   -12744.248    896.41713   -13640.665    8.5974215    232.40291 
    3050    74.851448   -1175.0443    58840.118   -12756.914    904.52017   -13661.434     8.731328    234.50369 
    3100    78.386853    -785.8537    58838.042   -12748.043    947.24271   -13695.285    8.7753794    245.57983 
    3150    75.708745   -756.31378    58912.059   -12728.132    914.87992   -13643.012    8.9401307    237.18953 
    3200    79.122878   -836.39019    58942.755   -12718.032      956.137   -13674.169    9.1963979    247.88574 
    3250    77.471453    -856.8234    58900.725   -12726.835    936.18084   -13663.016    9.2830142    242.71196 
    3300    75.789907   -1219.3125    58906.754   -12750.969     915.8607    -13666.83    9.3279883    237.44381 
    3350    75.448693   -1137.5219    58907.637    -12738.27    911.73739   -13650.007    9.4136888    236.37481 
    3400    77.667815   -724.98243    58897.911   -12747.577    938.55372   -13686.131    9.6372961    243.32714 
    3450    75.323929   -1284.2411    58891.171   -12733.495    910.22972   -13643.725    9.8692274    235.98393 
    3500    75.771932   -1306.0828    58881.448   -12730.528    915.64348   -13646.171    9.8761992    237.38749 
    3550    80.714806   -1480.8337    58821.339   -12719.093    975.37418   -13694.468    9.9100951    252.87313 
    3600    75.492373   -1285.7305    58800.166   -12713.714    912.26523   -13625.979    9.9844243    236.51165 
    3650    76.990289   -1591.9544    58757.716   -12695.167    930.36635   -13625.533    9.9563211    241.20451 
    3700    75.579159   -1503.8357    58689.553   -12714.369    913.31397   -13627.683    10.112482    236.78355 
    3750    75.530687   -1141.5621    58624.976   -12718.476    912.72822   -13631.204    10.430816    236.63169 
    3800    73.456827   -1041.0736    58603.065   -12708.201    887.66728   -13595.868    10.532288    230.13445 
    3850    77.431404   -1116.4132     58612.52   -12695.441    935.69687   -13631.138    10.565939    242.58648 
    3900    76.140078   -1260.7997    58613.857   -12695.468    920.09223    -13615.56    10.687515    238.54086 
    3950    78.434387   -1257.5739     58629.78   -12675.669    947.81712   -13623.486    10.638135    245.72875 
    4000    75.811079   -1196.9263    58645.918   -12710.077    916.11654   -13626.193    10.825059    237.51014 
    4050    77.106288   -827.53695    58634.911   -12697.997     931.7681   -13629.765    10.978521    241.56792 
    4100    79.248786   -795.52074     58648.13   -12672.832     957.6585   -13630.491    11.151654     248.2802 
    4150    77.228641   -1494.0331    58670.701   -12668.657    933.24665   -13601.904    11.331062    241.95124 
    4200     78.75501   -797.09172    58700.803   -12654.364    951.69161   -13606.056    11.478494    246.73324 
    4250    76.858264   -794.40338    58792.783   -12654.681    928.77094   -13583.451    11.651333    240.79088 
    4300    78.309544   -917.87861    58873.583   -12667.973    946.30851   -13614.282     11.62261    245.33763 
    4350    76.136403   -1093.8318    58867.396   -12677.986    920.04782   -13598.033     11.78068    238.52935 
    4400    75.539154   -1007.2044    58886.936   -12661.738    912.83054   -13574.568    12.066834    236.65821 
    4450    77.893311   -1102.5284    58875.068    -12639.12    941.27866   -13580.398    12.153944     244.0336 
    4500    78.430356   -1153.4388    58825.422   -12655.418    947.76842   -13603.186    12.312359    245.71612 
    4550    75.720197   -1188.8457    58787.658   -12662.521     915.0183   -13577.539     12.21908    237.22541 
    4600    74.763413    -1105.799    58729.432   -12683.407    903.45633   -13586.864    12.484586    234.22788 
    4650    76.917345   -1002.8006    58742.684   -12659.703    929.48488   -13589.188    12.604454    240.97598 
    4700    75.994475   -691.64494    58718.002   -12661.649    918.33274   -13579.982    12.736237     238.0847 
    4750    73.931903    -1217.942    58807.004   -12672.197    893.40819   -13565.605     12.86266    231.62282 
    4800    74.388443   -1138.6799    58837.038   -12656.613    898.92511   -13555.538    13.084215    233.05313 
    4850    77.680781   -869.11422    58776.324   -12631.447     938.7104   -13570.157    13.079367    243.36776 
    4900    79.393868   -931.69556     58764.12   -12641.603    959.41169   -13601.014    13.239791    248.73473 
    4950    79.375927    -996.1787     58765.39   -12670.161    959.19488   -13629.356    13.390927    248.67852 
    5000    74.884377   -1106.7423    58755.659   -12660.678    904.91808   -13565.597    13.542862    234.60685 
    5050    75.894168   -1018.4654    58754.391   -12681.475    917.12061   -13598.596    13.720767    237.77045 
    5100     75.20634   -920.42191    58746.432   -12683.796    908.80874   -13592.604    13.666996    235.61553 
    5150    76.998881   -1113.6521     58722.69   -12704.775    930.47018   -13635.245    13.882016    241.23142 
    5200    75.988851   -1202.8681    58725.481   -12721.757    918.26477   -13640.021     14.06072    238.06708 
    5250    75.735087   -745.24718    58668.129   -12703.891    915.19823   -13619.089    14.224366    237.27206 
    5300    74.562575   -914.75691    58634.001   -12718.426    901.02937   -13619.456    14.254848    233.59867 
    5350    75.516164   -1297.2581    58563.307   -12735.869    912.55273   -13648.421    14.081569    236.58619 
    5400    76.263367   -1016.0048    58507.147    -12753.56    921.58207   -13675.142    14.192184    238.92712 
    5450    75.342651   -653.79452    58499.352   -12728.223    910.45596   -13638.679    14.408183    236.04259 
    5500    76.303461   -1159.8634    58548.496   -12724.521    922.06658   -13646.588    14.557827    239.05273 
    5550    76.779934   -847.77644    58546.775   -12732.331    927.82438   -13660.156    14.802778    240.54548 
    5600    75.698641    -1063.604    58530.108   -12761.928    914.75782   -13676.686    15.020168    237.15788 
    5650    73.980634   -1386.9864    58523.862   -12780.687    893.99707   -13674.684    15.181031    231.77549 
    5700    75.910837   -1226.5477    58428.618   -12790.889    917.32204   -13708.211    15.523266    237.82267 
    5750    72.119005   -1150.5667    58414.341   -12806.331    871.50076   -13677.832    15.647362    225.94316 
    5800    73.647529   -1348.6994    58379.395   -12782.656    889.97175   -13672.627     15.57059     230.7319 
    5850    72.526852   -1133.0264    58336.303   -12785.641    876.42927   -13662.071    15.622781    227.22091 
    5900    77.576422   -1083.8357    58366.023    -12741.51     937.4493   -13678.959    15.741924    243.04081 
    5950    76.319256   -1089.4453    58421.013   -12734.333    922.25745   -13656.591    15.825919    239.10221 
    6000    76.845497   -1211.8638    58393.354     -12735.7    928.61666   -13664.317    15.818462    240.75088 
    6050    75.423497   -1163.5612    58390.707   -12779.231    911.43291   -13690.664    15.845895    236.29587 
    6100     75.53878   -782.48043    58408.499   -12785.319    912.82602   -13698.145    16.041116    236.65704 
    6150    74.079444   -1124.8806    58467.812   -12768.383    895.19111   -13663.575    16.280493    232.08506 
    6200    74.010604   -1004.3525    58486.667   -12754.049    894.35923   -13648.408    16.258367    231.86939 
    6250    74.146865   -983.08277    58494.593   -12735.105    896.00584   -13631.111    16.331185    232.29628 
    6300    75.197036   -1220.5317    58501.125   -12719.773    908.69632   -13628.469    16.439606    235.58639 
    6350    76.843741   -1146.4866    58517.796   -12716.751    928.59543   -13645.347    16.662849    240.74538 
    6400    76.465606   -1266.0424    58523.815   -12745.431    924.02597   -13669.457     16.95623    239.56072 
    6450    78.522719   -1049.3171    58549.883   -12716.152    948.88455   -13665.037    17.175375    246.00549 
    6500    75.746459   -951.45411    58544.356   -12704.095    915.33566   -13619.431    17.632881    237.30769 
    6550    75.848164    -840.5384    58535.189   -12737.429    916.56468   -13653.994    17.654081    237.62632 
    6600    76.571776    -1546.157    58594.272   -12730.081    925.30896    -13655.39    17.698202    239.89334 
    6650    76.443817   -834.58466    58644.117    -12702.31    923.76268   -13626.072    17.747855    239.49245 
    6700    77.297073   -856.87426    58677.614   -12695.519    934.07359   -13629.592    17.911126    242.16564 
    6750    75.424984    -986.3894    58694.061   -12702.332    911.45089   -13613.783    17.866003    236.30053 
    6800    74.502339    -1196.545    58731.758   -12690.258    900.30146    -13590.56    17.783172    233.40996 
    6850    74.751915   -1130.8435    58739.569   -12686.805    903.31739   -13590.123    17.864028    234.19186 
    6900    76.808432   -855.33732    58816.597   -12696.305    928.16876   -13624.474    17.979912    240.63476 
    6950    75.263052   -952.03492    58798.804   -12669.243    909.49407   -13578.737    18.183902    235.79321 
    7000    75.776646   -936.55263    58789.722   -12679.102    915.70045   -13594.803    18.172584    237.40226 
    7050    77.818439   -1308.2509    58790.988   -12663.602    940.37389   -13603.976    18.388172    243.79904 
    7100    77.994441   -1291.8647     58818.74   -12658.933    942.50073   -13601.434    18.701291    244.35044 
    7150    75.969319   -1195.3052    58801.884    -12646.04    918.02875   -13564.068    18.900061    238.00589 
    7200     77.55538   -1115.7346    58760.396   -12624.553    937.19503   -13561.748    19.123883    242.97489 
    7250    78.672295   -1447.4356    58738.802   -12598.543    950.69206   -13549.235    19.337394     246.4741 
    7300    77.453717   -1001.8168     58733.54   -12622.317    935.96652   -13558.283     19.47459    242.65639 
    7350    79.338637   -1101.6588    58687.704   -12624.535    958.74427   -13583.279    19.499025     248.5617 
    7400    76.854718   -1421.3096    58614.876   -12634.758    928.72808   -13563.486    19.545177    240.77977 
    7450    76.933655   -1225.2227    58576.549   -12670.414    929.68197   -13600.096    19.662623    241.02708 
    7500    78.178725   -1194.8404    58570.014   -12650.971    944.72765   -13595.699    19.859669    244.92778 
    7550    77.433204   -1194.6572    58612.639   -12650.271    935.71862   -13585.989    20.009547    242.59212 
    7600     73.39949   -1056.3087    58622.329   -12687.673     886.9744   -13574.647    20.171904    229.95482 
    7650    78.100493   -783.14887    58632.985   -12674.515    943.78228   -13618.298    20.147091    244.68269 
    7700    79.480259   -1165.5613    58651.397   -12678.364    960.45565   -13638.819    20.227885    249.00539 
    7750    77.254811   -1476.5459     58591.82   -12692.719    933.56289   -13626.282    20.297792    242.03323 
    7800    78.291652   -1241.1036    58517.109   -12705.503    946.09229   -13651.595    20.240561    245.28157 
    7850    76.293117   -1425.7336    58486.049   -12692.632    921.94158   -13614.574    20.294194    239.02032 
    7900    77.375267   -1014.7529    58487.356   -12676.636     935.0185   -13611.655    20.572156    242.41061 
    7950    76.641806   -1110.2222    58420.878   -12669.697    926.15521   -13595.852    20.958974    240.11274 
    8000     75.74244   -749.62658    58383.059   -12697.935     915.2871   -13613.222    21.012511     237.2951 
    8050    75.764006   -1099.5299     58303.99   -12709.048     915.5477   -13624.595    21.201826    237.36266 
    8100    77.369329   -1264.8446    58284.165   -12709.137    934.94675   -13644.083    21.352749    242.39201 
    8150     74.56572   -1023.9678    58235.445   -12709.433    901.06737     -13610.5    21.420426    233.60852 
    8200    72.543992   -1273.5613    58303.359   -12738.724     876.6364    -13615.36    21.773831    227.27461 
    8250    72.862111   -1247.8839    58277.732   -12752.339    880.48061   -13632.819     22.11098    228.27125 
    8300    74.406252   -1205.6394    58315.591   -12771.248    899.14032   -13670.389    22.174619    233.10892 
    8350    75.381443   -777.53406    58336.006   -12712.678    910.92473   -13623.602    22.602756    236.16412 
    8400    75.719049   -1164.2291    58300.749   -12681.314    915.00444   -13596.319    22.781448    237.22181 
    8450    73.968571   -1114.2653    58322.359   -12669.689    893.85129   -13563.541    22.846866     231.7377 
    8500    78.193633   -1211.9252    58316.624   -12663.506     944.9078   -13608.414     22.77866    244.97449 
    8550    78.070699   -856.57753    58319.972   -12682.607    943.42225   -13626.029    22.877303    244.58935 
    8600     77.25513   -1398.0606    58340.281   -12674.643    933.56675    -13608.21    23.027196    242.03423 
    8650    77.285022   -979.31192    58331.005   -12667.695    933.92797   -13601.623    23.147137    242.12788 
    8700    80.527729   -971.96479    58390.873   -12645.021    973.11349   -13618.134    23.368781    252.28703 
    8750    80.244927   -778.41046    58430.478   -12664.683    969.69607   -13634.379    23.288187    251.40103 
    8800    80.351214   -1282.7566    58438.267   -12664.918    970.98046   -13635.899     23.13694    251.73402 
    8850    77.916793   -1037.4509    58432.796   -12653.784    941.56241   -13595.347    22.860947    244.10717 
    8900    78.306813   -956.39227    58458.371   -12654.751     946.2755   -13601.027    23.024462    245.32907 
    8950    78.874213   -1047.1185    58537.664    -12672.51    953.13207   -13625.642    22.953623    247.10669 
    9000    78.990518   -1163.5457    58535.944   -12684.027    954.53753   -13638.564    22.970163    247.47107 
    9050    79.065561   -840.72891    58550.717   -12686.925    955.44437   -13642.369    23.235161    247.70617 
    9100    78.509368   -1378.3806     58524.87   -12706.927    948.72322    -13655.65     23.48234    245.96366 
    9150    74.137016   -1005.8194    58489.209   -12733.236    895.88682   -13629.123    23.584853    232.26543 
    9200    74.196226   -1287.0735    58477.249   -12736.515    896.60233   -13633.117    23.792121    232.45093 
    9250    73.179731   -1068.5732    58484.757   -12754.599    884.31879   -13638.918    23.973389    229.26633 
    9300     76.48406   -1441.4806    58459.658   -12741.503    924.24897   -13665.752    23.870863    239.61853 
    9350    76.152598   -1038.4947    58418.344   -12741.429    920.24352   -13661.672    23.994969    238.58009 
    9400    73.902017   -1384.4997    58422.718   -12736.836    893.04704   -13629.883    24.344086    231.52919 
    9450    75.809608   -1223.7916    58406.015   -12718.506    916.09877   -13634.605    24.329972    237.50553 
    9500    75.154939   -1538.1842    58439.366   -12713.962    908.18761    -13622.15    24.621666     235.4545 
    9550    74.667138    -1509.242    58431.589   -12715.882    902.29292   -13618.175    24.833388    233.92626 
    9600    76.117499    -835.4512    58458.288   -12681.787    919.81938   -13601.606    24.801555    238.47012 
    9650    74.922099   -1099.9604    58491.764   -12694.638    905.37392   -13600.012    24.967546    234.72503 
    9700    74.128079   -728.14655    58467.271   -12670.882    895.77883   -13566.661    25.185717    232.23743 
    9750    76.546241   -1219.0117    58492.578   -12703.636    925.00039   -13628.636     25.39162    239.81334 
    9800    73.021986   -1021.5846    58520.467   -12719.213    882.41257   -13601.626    25.391946    228.77213 
    9850    77.302379   -935.51782    58541.806    -12675.71    934.13771   -13609.848    25.438158    242.18226 
    9900    79.309629   -1304.1908    58554.979   -12662.164    958.39374   -13620.558    25.556476    248.47082 
    9950    76.092356   -1168.3595    58586.333    -12687.64    919.51554   -13607.156    25.438034    238.39135 
   10000    78.252754   -1381.8207    58559.103   -12678.063    945.62224   -13623.686    25.672296    245.15971 
   10050    76.494286   -1219.7512    58508.746   -12677.097    924.37256    -13601.47    25.788303    239.65057 
   10100    78.000265   -861.96601    58551.361   -12678.238    942.57111    -13620.81    26.052557    244.36868 
   10150    74.011538   -1206.7992    58492.356   -12687.065    894.37052   -13581.435     26.51177    231.87231 
   10200    74.350545   -1159.6249    58468.923   -12687.461    898.46715   -13585.928    26.623612     232.9344 
   10250    76.311493   -1033.0312    58462.557   -12671.905    922.16364   -13594.069     26.54942    239.07789 
   10300    77.348042   -1430.9531    58497.358    -12687.58    934.68951   -13622.269    26.661603    242.32532 
   10350    74.971666   -1193.3944    58540.713   -12693.467     905.9729    -13599.44    26.732558    234.88032 
   10400    74.436008    -1066.442    58536.381   -12674.211     899.4999   -13573.711    26.886852    233.20215 
   10450    75.969519    -1226.046    58504.225   -12705.405    918.03116   -13623.436     27.04709    238.00652 
   10500    79.505226   -1085.1217    58479.611   -12657.403    960.75736   -13618.161    27.245392    249.08361 
   10550    74.577697   -1441.9284    58456.851   -12670.119    901.21211   -13571.331    27.242838    233.64605 
   10600    75.851904   -1135.5507    58466.692   -12664.061    916.60988   -13580.671    27.413292    237.63804 
   10650    80.830295     -971.519    58469.598   -12643.443    976.76977   -13620.213    27.561817    253.23494 
   10700     77.97137   -806.24565    58407.982   -12630.779    942.22193   -13573.001    27.764208    244.27816 
   10750     77.77497   -786.16037     58451.19   -12631.559     939.8486   -13571.408    28.216233    243.66285 
   10800    77.573815   -653.17737    58498.868   -12649.896     937.4178   -13587.314    28.433581    243.03265 
   10850    77.539272     -810.674    58592.442   -12627.654    937.00038   -13564.655    28.861461    242.92443 
   10900    77.683268   -876.77178    58647.724   -12625.462    938.74045   -13564.203    29.244302    243.37556 
   10950    77.136715   -1170.7617    58674.865   -12636.928     932.1358   -13569.064    29.291162    241.66325 
   11000    78.542246   -1116.5373    58747.714   -12612.837    949.12051   -13561.958    29.488514    246.06666 
   11050    77.460655   -697.83731    58739.389   -12632.596    936.05035   -13568.646    29.361621    242.67813 
   11100    76.358792    -1189.016    58739.544     -12685.9    922.73522   -13608.635    29.422346    239.22608 
   11150     76.35703    -1275.582    58671.961   -12698.896    922.71392    -13621.61    29.716019    239.22055 
   11200    73.059496   -1175.9878    58625.448   -12717.185    882.86584   -13600.051    29.916872    228.88964 
   11250    75.896204   -971.61988    58592.512   -12709.295    917.14521   -13626.441    29.820741    237.77682 
   11300     77.17625   -956.06636    58549.585   -12646.607    932.61354   -13579.221    29.973629    241.78711 
   11350    75.397423    -901.5253    58541.461   -12689.147    911.11784   -13600.265    30.109415    236.21418 
   11400    77.582132    -995.5313    58559.551   -12672.036    937.51831   -13609.554    30.374381    243.05871 
   11450    75.998219   -964.00533    58533.042   -12656.679    918.37798   -13575.057    30.541484    238.09643 
   11500    76.330003    -805.5789    58496.023   -12660.818    922.38732   -13583.205    30.676971    239.13588 
   11550    77.625804   -1331.9016    58505.355   -12685.462    938.04605   -13623.508    30.773762    243.19553 
   11600    75.302417   -1176.0557    58460.754   -12699.919    909.96976   -13609.889    30.802699    235.91654 
   11650    76.189882   -1079.6074    58424.512   -12700.188    920.69407   -13620.882      30.8162    238.69689 
   11700    75.698415   -1067.3643    58366.151   -12692.103    914.75509   -13606.858    30.929163    237.15717 
   11750    74.119589    -1011.501    58313.177   -12687.054    895.67623    -13582.73    31.129474    232.21083 
   11800    76.401315   -1211.1552    58287.735   -12690.046    923.24907   -13613.295    31.323017     239.3593 
   11850    78.482135   -854.46694    58294.903   -12685.632    948.39412   -13634.026    31.466476    245.87834 
   11900    77.967245   -1166.4313    58298.815   -12684.942    942.17209   -13627.114      31.6799    244.26523 
   11950    76.530373   -1351.4183    58280.863   -12697.148    924.80864   -13621.956    31.932163    239.76363 
   12000    74.000993   -984.08321    58263.535    -12719.53    894.24309   -13613.773    32.066381    231.83928 
   12050    74.482013   -1343.9135    58278.709   -12703.215    900.05584   -13603.271    32.302612    233.34628 
   12100     76.37068   -749.62226    58341.608   -12696.978    922.87887   -13619.857    32.434959    239.26332 
   12150    73.425998   -965.23347    58353.975   -12716.288    887.29473   -13603.582    32.624312    230.03786 
   12200    73.065423   -925.27938    58353.622   -12724.448    882.93747   -13607.385    32.779016    228.90821 
   12250    76.539283     -1164.16    58337.348   -12734.714    924.91631   -13659.631    32.869746    239.79154 
   12300    74.973545    -1112.007    58315.348   -12703.301    905.99561   -13609.297    33.017388    234.88621 
   12350     74.62559   -768.00626    58283.382   -12707.472    901.79085   -13609.262    33.103523    233.79609 
   12400    75.213673   -1262.5472    58316.032   -12696.017    908.89737   -13604.914    33.232057    235.63851 
   12450    74.693504   -1179.6126    58293.705   -12706.689    902.61153   -13609.301    33.549609    234.00886 
   12500    77.078258   -1083.0736    58319.619   -12708.937    931.42939   -13640.367    33.986852    241.48011 
   12550    75.584612   -613.72746    58395.672   -12715.456    913.37986   -13628.836    34.107518    236.80063 
   12600     72.11947   -1169.2155    58446.569   -12744.673    871.50638    -13616.18    34.185919    225.94461 
   12650    74.387455   -950.89825      58447.3   -12729.483    898.91318   -13628.396     34.07112    233.05003 
   12700    77.909928   -963.17102    58549.834   -12727.893    941.47946   -13669.372      34.0862    244.08566 
   12750     77.68324   -1059.2675    58579.671   -12709.732    938.74011   -13648.472    34.083626    243.37547 
   12800    74.784146   -1208.1325    58609.037   -12715.804    903.70687   -13619.511    33.652044    234.29283 
   12850    75.744723   -1444.3107    58625.227     -12690.5    915.31468   -13605.815    33.560574    237.30225 
   12900    77.157014    -1184.843    58674.451   -12694.584    932.38109   -13626.965    33.767406    241.72684 
   12950    75.748163   -1397.6314    58652.604   -12699.067    915.35625   -13614.423    33.963073    237.31302 
   13000    77.544908   -1166.3667    58653.754   -12713.478    937.06849   -13650.546    33.991448    242.94209 
   13050    76.964401   -1326.8953    58620.559   -12730.901    930.05351   -13660.955    33.831764     241.1234 
   13100    75.401591   -1663.3462    58509.272   -12733.123    911.16821   -13644.291    34.073594    236.22724 
   13150    74.909182   -1667.8767    58450.342    -12773.79    905.21783   -13679.008    34.387982    234.68456 
   13200    73.654054   -1324.5005    58377.722   -12760.343    890.05061   -13650.393    34.676519    230.75235 
   13250    73.632519   -1375.5458    58323.132   -12754.718    889.79038   -13644.509    34.642603    230.68488 
   13300     70.35732    -1323.347    58264.294   -12794.096    850.21221   -13644.308    34.571679    220.42394 
   13350    73.666367    -1363.264    58206.748   -12782.504     890.1994   -13672.704     34.72131    230.79092 
   13400    73.322526   -1228.3499    58200.013   -12803.157    886.04435   -13689.201    34.806955    229.71369 
   13450    74.073605   -1048.1242    58224.315   -12745.869    895.12055   -13640.989    34.884792    232.06676 
   13500    75.238278   -469.42437     58290.96   -12728.256     909.1947   -13637.451    35.066763    235.71559 
   13550    75.565017   -825.81915    58372.535   -12705.031    913.14308   -13618.174    35.308902    236.73924 
   13600    77.100194   -612.37402    58437.404    -12690.23    931.69447   -13621.924    35.303498    241.54883 
   13650    74.187623   -863.79868    58444.201   -12720.204    896.49837   -13616.703      35.4582    232.42398 
   13700    73.502164   -1129.8652    58406.912   -12722.385    888.21514   -13610.601    35.527888    230.27649 
   13750    74.714906    -1287.342    58355.952    -12725.59    902.87016    -13628.46     35.97077    234.07591 
   13800    74.554781   -1349.3046    58312.944    -12719.46    900.93518   -13620.396       36.204    233.57425 
   13850     75.27922     -1237.57    58308.354   -12716.557    909.68945   -13626.247    36.102696    235.84386 
   13900    76.211466   -1157.4673    58303.079   -12717.241     920.9549   -13638.196    36.235862    238.76452 
   13950    75.307075   -1195.9369    58248.133    -12729.35    910.02605   -13639.376     36.36657    235.93113 
   14000    79.005771   -1223.5504    58203.779   -12697.361    954.72185   -13652.083    36.581539    247.51885 
   14050    76.172112   -885.31903    58170.688   -12720.585    920.47934   -13641.064    36.598121    238.64122 
   14100    76.259717   -1354.0178    58103.566   -12705.036    921.53797   -13626.574    36.856681    238.91568 
   14150    75.313396   -1009.5913     58121.44   -12716.878    910.10243    -13626.98    37.121661    235.95093 
   14200    76.922497    -716.9071    58108.546   -12748.198    929.54715   -13677.745    37.295158    240.99212 
   14250    72.979622   -899.73474     58149.74   -12733.476    881.90064   -13615.377    37.464345     228.6394 
   14300     77.22202   -1406.1994    58227.906   -12706.154    933.16664   -13639.321    37.528863     241.9305 
   14350    75.129928   -997.58242    58259.432   -12690.249    907.88537   -13598.134    37.581823    235.37614 
   14400    76.308778   -1391.8605     58310.14   -12683.409    922.13083    -13605.54    37.734673    239.06939 
   14450    71.831249   -1289.8398    58329.259    -12714.42    868.02346   -13582.444     37.81198    225.04164 
   14500    75.594066   -1215.9905    58288.018   -12693.487    913.49411   -13606.981    37.804173    236.83025 
   14550    75.843038   -920.46317     58239.51   -12688.032    916.50274   -13604.534     37.96508    237.61026 
   14600    78.673315   -946.74387    58270.384   -12634.337    950.70438   -13585.041    38.193514    246.47729 
   14650    79.032417   -1159.1681    58270.217   -12615.735    955.04384   -13570.779    38.232512    247.60233 
   14700    76.620399   -1110.8184    58270.423   -12672.283    925.89653    -13598.18    38.343268    240.04567 
   14750    75.911383   -1358.6756    58260.971   -12654.079    917.32864   -13571.408    38.599531    237.82438 
   14800     77.14925    -1369.148    58242.255   -12633.668    932.28727   -13565.955    38.768949    241.70252 
   14850    76.074534   -1177.5952     58174.84   -12642.901    919.30018   -13562.201    39.001968    238.33552 
   14900    79.018999   -1089.5177    58110.616   -12655.631     954.8817   -13610.513    39.356393    247.56029 
   14950    77.165773   -1094.3574    58121.315   -12639.012    932.48694   -13571.499     39.45495    241.75429 
   15000    81.305837   -1223.4159    58114.832   -12618.525    982.51632   -13601.041    39.679374    254.72478 
   15050    79.005621   -977.80419    58107.284   -12633.426    954.72004   -13588.146    40.077497    247.51838 
   15100    75.628977   -774.42084    58079.411   -12662.171    913.91599   -13576.087    40.233318    236.93962 
   15150    78.440117   -1317.4295    58102.048   -12645.834    947.88637    -13593.72    40.361799     245.7467 
   15200    76.091793   -967.35795    58095.199   -12651.439    919.50874   -13570.948    40.537184    238.38959 
   15250    77.112126   -921.37577     58069.59   -12649.358    931.83865   -13581.197       40.645    241.58621 
   15300    74.601668   -1060.6607     58061.83   -12645.788    901.50177    -13547.29    41.060977    233.72115 
   15350    77.616573    -1093.409    58075.497   -12660.309     937.9345   -13598.244    41.187335    243.16661 
   15400     75.70852   -1071.5536    58095.791   -12672.265    914.87719   -13587.142    41.025251    237.18882 
   15450    76.964397   -1126.9523    58091.357   -12664.376    930.05347   -13594.429    41.388892    241.12339 
   15500    74.321709   -855.76264    58113.393    -12696.74    898.11868   -13594.859    41.428759    232.84405 
   15550    76.046062   -669.63447    58134.451   -12674.624    918.95612    -13593.58    41.714538    238.24632 
   15600    75.473868   -984.94499    58170.059   -12647.543    912.04162   -13559.584    41.798933    236.45368 
   15650    77.264088   -736.84298    58156.983   -12659.385      933.675    -13593.06    41.744191     242.0623 
   15700    80.044839   -990.56264    58178.676   -12629.803    967.27816   -13597.081      41.6875    250.77417 
   15750    80.016729   -1232.6912    58181.332   -12641.002    966.93848    -13607.94    41.732012    250.68611 
   15800    78.663371   -646.44788     58195.81   -12621.349    950.58422   -13571.933    41.836128    246.44614 
   15850    79.430331   -981.87253    58193.617    -12638.96    959.85232   -13598.812    41.901998    248.84897 
   15900    77.874895   -718.56164     58211.12     -12634.5    941.05612   -13575.556    42.223666    243.97591 
   15950     76.27118   -900.33068    58230.051    -12639.93    921.67649   -13561.607    42.297443    238.95159 
   16000    76.579883   -1353.2184    58234.131    -12633.23    925.40692   -13558.637    42.677233    239.91874 
   16050    77.119482   -1024.7028    58177.969   -12632.666    931.92755   -13564.593    42.649929    241.60926 
   16100    75.275964   -1129.3284    58081.115   -12666.592     909.6501   -13576.242    42.870591    235.83366 
   16150    76.250115   -1485.6237    58039.609   -12652.155    921.42194   -13573.577    42.955376     238.8856 
   16200     75.48525   -854.75007    58016.707   -12663.022    912.17916   -13575.201    43.521117    236.48934 
   16250    77.461562   -965.55223    58068.709   -12650.473    936.06131   -13586.534    43.701663    242.68097 
   16300    73.095526   -769.41124    58056.627   -12650.706    883.30124   -13534.007    44.037518    229.00252 
   16350    78.629507    -951.5376    58031.992   -12627.758      950.175   -13577.933    44.292821    246.34005 
   16400    78.403888   -580.38401    58009.495   -12645.293    947.44858   -13592.741    44.628366     245.6332 
   16450     79.45319   -572.56599    58042.953    -12652.01    960.12855   -13612.139    44.917015    248.92058 
   16500    75.122145    -864.1175    58050.756   -12682.653    907.79133   -13590.444    45.210142    235.35176 
   16550    74.797867   -849.47597    58062.939   -12647.197    903.87268    -13551.07    45.682518    234.33582 
   16600    75.429239   -821.24983    58042.851   -12677.638    911.50231    -13589.14    45.328499    236.31386 
   16650    78.839371   -943.70543     58029.92   -12659.574    952.71103   -13612.285    45.735138    246.99753 
   16700    74.603347   -1264.3813    58019.592    -12697.05    901.52206   -13598.572    45.724767    233.72641 
   16750     76.60357   -850.79506    57966.169   -12676.622    925.69316   -13602.316    45.716151    239.99295 
   16800    77.491628    -880.2347    58002.202   -12627.876    936.42463   -13564.301    45.943421    242.77516 
   16850    76.272691   -996.98675    57948.892   -12642.294    921.69476   -13563.989    46.160981    238.95633 
   16900    78.027034   -754.75198    57996.896   -12618.636    942.89459   -13561.531    46.397932    244.45255 
   16950    75.029011   -916.73231     58018.53   -12621.259    906.66587   -13527.925    46.620934    235.05998 
   17000    76.461913   -1281.6817    58007.314   -12636.095    923.98136   -13560.077    47.033687    239.54915 
   17050    74.319715   -1253.8082    57943.337   -12637.359    898.09459   -13535.454    47.200023    232.83781 
   17100    75.620401   -1143.6964    57924.529   -12642.014    913.81235   -13555.827     47.24071    236.91276 
   17150    76.199822   -1118.0712    57912.758   -12659.164    920.81419   -13579.978    47.376246    238.72804 
   17200    76.950873   -749.40392    57908.469   -12662.011    929.89004   -13591.901    47.643916    241.08102 
   17250    75.792724   -1079.7859    57948.785   -12646.323    915.89474   -13562.218    48.294037    237.45263 
   17300    78.071314   -863.73268    57956.735   -12642.334    943.42968   -13585.764     48.65329    244.59127 
   17350    76.816868   -1154.9787    57974.462   -12635.884     928.2707   -13564.154    48.987032    240.66119 
   17400    76.585949   -930.35378     57955.15    -12638.31    925.48022    -13563.79    49.051916    239.93774 
   17450    76.891067    -963.6638    57967.235   -12638.584    929.16734   -13567.751    49.209419    240.89365 
   17500    76.581744    -1394.552    57937.125   -12631.971    925.42941     -13557.4    49.362218    239.92457 
   17550    78.412283    -1035.044    57900.382   -12626.274    947.55003   -13573.824    49.587623     245.6595 
   17600    76.859912   -1318.7051    57876.584    -12652.88    928.79085   -13581.671    49.798434    240.79604 
   17650    75.950704   -826.25981    57897.562   -12646.503     917.8038   -13564.307    50.108339    237.94757 
   17700    74.741213   -1078.6235     57861.54   -12653.124    903.18807   -13556.312    50.397738    234.15833 
   17750    77.481528   -1072.6107    57906.644   -12666.127    936.30258   -13602.429    50.394295    242.74352 
   17800     74.45133   -1145.3929    57938.941   -12667.308    899.68505   -13566.993    50.667593    233.25015 
   17850    74.081995   -1008.2742    57950.225   -12647.827    895.22194   -13543.049    50.993718    232.09305 
   17900    75.434021    -1331.133    57985.955   -12672.999    911.56009   -13584.559     50.93946    236.32884 
   17950    75.903426   -1255.8703    57990.064   -12677.364    917.23248   -13594.597    51.077968    237.79945 
   18000     77.51102   -1424.7714    57933.968   -12664.549    936.65898   -13601.208    51.227479    242.83592 
   18050    75.632274    -1120.732    57936.517   -12668.841    913.95582   -13582.797    51.344463    236.94995 
   18100    77.545957   -1292.9189    57891.012    -12699.73    937.08116   -13636.811    51.748507    242.94537 
   18150    75.277724   -910.38286    57885.375   -12656.007    909.67136   -13565.679    52.012947    235.83917 
   18200    77.971646   -1220.2946     57928.52   -12640.113    942.22527   -13582.338    52.119689    244.27902 
   18250    75.427159   -1040.6088    57909.162   -12649.557    911.47718   -13561.034    51.991525    236.30734 
   18300    78.677947   -861.88907    57948.228   -12650.751    950.76036   -13601.512    52.181392    246.49181 
   18350    78.019867   -782.88772    57978.409   -12630.571    942.80799   -13573.379    52.890648    244.43009 
   18400    73.999176   -1197.3222     58005.69   -12658.252    894.22114   -13552.473    53.087269    231.83359 
   18450    75.424692   -1410.8923    58010.048   -12679.211    911.44737   -13590.658    52.761845    236.29962 
   18500     73.98231   -921.92271    57966.583   -12649.339    894.01732   -13543.356    52.762591    231.78075 
   18550    78.808564   -1383.8448     57966.44   -12630.016    952.33877   -13582.355    52.984724    246.90102 
   18600    78.380403   -843.32003    57939.424   -12645.346    947.16477   -13592.511    53.294718    245.55962 
   18650    75.959448   -1197.4106     57940.94   -12668.608    917.90946   -13586.517    53.305148    237.97496 
   18700    76.290481   -986.75418    57899.952   -12701.347    921.90973   -13623.257    53.412243    239.01206 
   18750    74.733101   -1008.6175    57912.975   -12693.315    903.09003   -13596.405    53.800953    234.13291 
   18800    76.844314   -630.91535    57971.453   -12677.598    928.60236     -13606.2    53.982386    240.74718 
   18850    74.233048   -889.17018    58006.003   -12712.249    897.04729   -13609.297    54.553281    232.56629 
   18900    75.857327   -1164.2672    58044.002   -12688.356    916.67541   -13605.031    54.731849    237.65503 
   18950     76.43223   -818.91364    58056.446   -12670.727    923.62266    -13594.35    55.046354    239.45615 
   19000    77.326262   -819.52185     58088.16   -12662.846    934.42632   -13597.273     55.22363    242.25708 
   19050    79.775624   -886.17355    58144.891   -12666.667    964.02491   -13630.692    55.328279    249.93074 
   19100    77.399229   -1039.5576    58155.499   -12662.716    935.30807   -13598.024     55.24467    242.48568 
   19150    77.713078    -865.5855    58250.721   -12679.573    939.10069   -13618.673    55.256651    243.46895 
   19200    76.807972   -1061.6813     58326.51   -12703.321    928.16319   -13631.485    55.294754    240.63332 
   19250    74.316455   -806.19634    58349.303   -12706.332     898.0552   -13604.387    55.559688     232.8276 
   19300    75.535223   -928.37676    58383.126   -12697.038    912.78304   -13609.821    55.561065     236.6459 
   19350    77.176422   -963.92457    58399.766   -12701.809    932.61563   -13634.424     55.45972    241.78765 
   19400    76.007226   -1147.1625    58366.757   -12700.215    918.48682   -13618.702    55.585682    238.12465 
   19450    74.961795   -1029.1483    58324.619   -12708.912    905.85361   -13614.766    56.063097    234.84939 
   19500    75.637609    -1141.959    58336.866   -12682.307    914.02029   -13596.327    56.054427    236.96667 
   19550    76.475301    -1413.858    58322.816   -12643.696    924.14313    -13567.84    56.410084    239.59109 
   19600    75.642965   -1063.7031    58322.214   -12656.175    914.08502    -13570.26    56.819271    236.98345 
   19650     78.43697   -922.60551    58299.364    -12683.16    947.84834   -13631.008    57.104105    245.73684 
   19700    75.990129    -805.3501    58319.645   -12656.103    918.28022   -13574.383    57.619833    238.07109 
   19750    77.215209   -908.89879    58291.065   -12672.237    933.08433   -13605.321    57.981594    241.90916 
   19800    77.099935   -1097.8154    58236.911   -12690.073    931.69134   -13621.764    58.017121    241.54802 
   19850    78.090813   -1040.3622    58199.989   -12677.569    943.66531   -13621.234    58.370007    244.65236 
   19900    76.495401   -933.35921    58181.591   -12691.201    924.38602   -13615.587    58.604225    239.65406 
   19950    74.403369   -740.37304     58231.06   -12701.573    899.10548   -13600.678    58.824841    233.09989 
   20000    74.672326    -940.8006    58286.351   -12692.439    902.35561   -13594.795    58.910452    233.94251 
   20050    74.461617   -1027.8291    58323.393    -12698.45    899.80937   -13598.259    58.777679    233.28238 
   20100    75.032444   -877.87977    58383.109    -12684.98    906.70735   -13591.688    58.739867    235.07073 
   20150    76.667194   -738.86286    58413.122   -12661.418    926.46201    -13587.88    58.754191    240.19228 
   20200    77.802774   -956.27799    58380.693   -12662.192    940.18459   -13602.376    58.959534    243.74996 
   20250    79.701298   -1140.7054    58356.853   -12670.641    963.12674   -13633.768    59.057277    249.69788 
   20300    75.843483   -959.66103     58366.27   -12682.144    916.50812   -13598.652    59.143409    237.61165 
   20350    77.021861   -769.81316    58346.262   -12662.034    930.74787   -13592.781    59.423337    241.30342 
   20400    73.967385   -611.91476    58361.293   -12663.104    893.83697   -13556.941    59.786542    231.73399 
   20450    78.941105   -844.41642     58354.72   -12639.389    953.94041    -13593.33    59.752368    247.31626 
   20500    76.591818   -665.98423    58404.874    -12651.79    925.55115   -13577.341    60.096345    239.95613 
   20550    76.482153   -1108.4919    58409.931   -12629.594    924.22594    -13553.82    60.351925    239.61256 
   20600    76.701341   -820.99342    58452.874   -12643.715    926.87465    -13570.59    60.365049    240.29926 
   20650    74.442215   -792.51212    58500.402   -12682.721     899.5749   -13582.295    60.547716    233.22159 
   20700    79.021127   -1262.3058    58568.536   -12649.401    954.90741   -13604.309    60.931572    247.56696 
   20750    79.434637   -1058.8067    58541.211   -12660.583    959.90435   -13620.487    60.656958    248.86246 
   20800    75.866353   -712.50125    58573.883   -12670.337    916.78448   -13587.122    61.229553     237.6833 
   20850    78.841997   -1100.4638    58581.393   -12644.171    952.74277   -13596.914    61.469808    247.00576 
   20900    77.567806   -1011.1501    58624.985   -12672.875    937.34519    -13610.22    61.697807    243.01382 
   20950    76.815003   -650.47062    58605.226    -12682.85    928.24817   -13611.098    61.740902    240.65535 
   21000    76.272544   -1475.5991    58637.196   -12687.704    921.69298   -13609.397    61.959554    238.95587 
   21050    78.109538   -950.23723    58610.102   -12690.928    943.89159    -13634.82    62.082027    244.71103 
   21100    76.420382    -1133.207    58593.247   -12677.661    923.47949   -13601.141     61.85122    239.41903 
   21150    77.649713   -1048.4677    58555.492   -12649.645    938.33497    -13587.98    62.098737    243.27043 
   21200    81.377683    -869.7166    58544.671   -12649.351    983.38452   -13632.735    62.026546    254.94987 
   21250    78.849172    -977.6407    58476.712   -12619.797    952.82948   -13572.626    62.281733    247.02824 
   21300    80.140691    -983.9659    58475.206   -12589.665    968.43645   -13558.101    62.679517    251.07447 
   21350    77.475936   -1186.0584    58513.525    -12624.27    936.23502   -13560.505    62.840421      242.726 
   21400    78.113524   -1102.2284     58514.09   -12658.177    943.93975   -13602.117    62.978888    244.72351 
   21450     78.29761   -1005.3005    58590.606   -12679.923    946.16428   -13626.087    62.887356    245.30024 
   21500    79.219915   -1280.8018    58634.609   -12650.704    957.30961   -13608.014    62.701834    248.18975 
   21550    78.650274    -1286.448     58657.67   -12661.257    950.42595   -13611.683    62.996723    246.40511 
   21600    79.372421   -1168.6002    58647.881   -12667.478    959.15252   -13626.631    63.286655    248.66754 
   21650    76.002539   -1091.9202     58627.16   -12684.451    918.43018   -13602.882    63.422875    238.10996 
   21700    75.436449   -1127.7481    58648.598   -12717.277    911.58944   -13628.866    63.725457    236.33645 
   21750    75.464868   -1164.8876    58668.541   -12700.558    911.93285   -13612.491    64.171647    236.42548 
   21800     77.52919   -1079.9001    58653.494   -12683.293    936.87854   -13620.171    64.724934    242.89284 
   21850     79.33183    -919.5454     58725.12   -12704.099    958.66202   -13662.761    65.320827    248.54037 
   21900    75.663369   -752.25409    58805.881   -12699.244    914.33158   -13613.576    65.212322    237.04737 
   21950    75.105027   -983.48556    58805.231   -12713.428    907.58446   -13621.013    65.387257    235.29813 
   22000    77.181487   -1418.1862    58719.049   -12733.159    932.67683   -13665.836    65.417525    241.80352 
   22050    76.330901   -989.88903    58726.304   -12708.355    922.39817   -13630.754    65.715992    239.13869 
   22100    77.808407   -1329.6572     58710.29   -12697.112    940.25265   -13637.365    65.876958     243.7676 
   22150    77.550732   -1195.1232    58651.661   -12662.857    937.13886   -13599.996    65.678341    242.96033 
   22200    77.756295   -1201.6578    58600.728   -12704.543    939.62293   -13644.166    65.432064    243.60434 
   22250    76.972471    -994.2042    58611.209   -12734.385    930.15104   -13664.536    65.378429    241.14868 
   22300    76.945421   -928.03659    58618.705   -12722.273    929.82416   -13652.097    65.706119    241.06394 
   22350    79.122436   -1004.2175    58667.621   -12704.365    956.13166   -13660.496    66.077644    247.88436 
   22400    79.565175   -948.69039    58684.066   -12703.857     961.4818   -13665.339    65.948676    249.27142 
   22450    77.467674   -1357.4811    58695.041   -12717.265    936.13518     -13653.4    66.480981    242.70012 
   22500    75.165489   -1248.5704    58684.642    -12713.55     908.3151   -13621.865    66.233575    235.48755 
   22550    74.077614   -1091.9405    58690.072   -12712.277    895.16899   -13607.446    66.308748    232.07933 
   22600    79.055409   -1128.4296    58746.513   -12678.809    955.32168   -13634.131    66.722329    247.67436 
   22650    78.351282   -1183.5106    58797.565   -12692.319    946.81287   -13639.132    67.032301    245.46839 
   22700    79.544462   -994.98174    58819.065   -12677.784     961.2315   -13639.016    67.190381    249.20653 
   22750    76.820492   -816.43688    58842.813   -12694.618     928.3145   -13622.932    67.362719    240.67255 
   22800    76.412517    -1031.863    58837.792   -12714.507    923.38444   -13637.891    67.753244    239.39439 
   22850    78.403674   -1116.9313    58874.473   -12692.382    947.44599   -13639.828    67.947953    245.63253 
   22900    78.426703    -1071.467    58878.285   -12691.831    947.72427   -13639.555      68.2245    245.70468 
   22950    77.486178   -1383.0171    58906.346   -12689.691    936.35878    -13626.05    68.263185    242.75809 
   23000     79.14199   -822.81751    58935.166   -12694.064    956.36795   -13650.432     68.14619    247.94562 
   23050    78.236817   -1033.6566    59010.634   -12674.641    945.42966   -13620.071    68.128616    245.10978 
   23100    77.588221   -1106.6856    59023.485   -12694.359    937.59189   -13631.951    68.097408    243.07778 
   23150    76.528307   -1071.5858    59049.563   -12705.398    924.78367   -13630.182    68.445322    239.75715 
   23200    76.224456   -1239.0104    59064.344   -12716.666    921.11187   -13637.777    68.702587    238.80521 
   23250    74.568089   -880.91094    59057.652   -12718.255    901.09599   -13619.351    69.190083    233.61594 
   23300    74.975407   -1063.1211    59099.759   -12745.556    906.01811   -13651.574    69.787616    234.89204 
   23350    77.184591   -953.63513    59090.382   -12741.358    932.71434   -13674.073    69.768109    241.81324 
   23400    75.040693   -1326.8792    59050.783   -12753.507    906.80704   -13660.314    69.992875    235.09658 
   23450     73.07562   -493.91371    59051.901   -12765.143    883.06069   -13648.203    69.868967    228.94016 
   23500    73.764247   -924.54657    59103.262   -12771.995     891.3822   -13663.378    69.707933    231.09757 
   23550    75.905316   -905.97974    59133.416   -12772.666    917.25532   -13689.921    69.830915    237.80537 
   23600    77.125669   -1295.2044     59176.41   -12748.581    932.00232   -13680.583     70.38839    241.62864 
   23650    76.124058   -1073.5529    59152.926   -12702.014    919.89864   -13621.913     70.38593    238.49067 
   23700    76.316248   -1114.9868    59166.209   -12716.054    922.22111   -13638.275     71.00354    239.09279 
   23750    77.165519   -973.18235    59201.322   -12740.117    932.48387     -13672.6    71.034602    241.75349 
   23800    77.855799   -1015.4887    59201.669   -12726.023    940.82535   -13666.849    71.303075    243.91608 
   23850    76.316999   -1023.4293    59209.475   -12736.035    922.23019   -13658.265    71.607718    239.09514 
   23900    79.317329   -892.47322    59225.458     -12760.5    958.48678   -13718.987    71.984649    248.49494 
   23950    76.210357   -992.29486    59230.303   -12787.973    920.94149   -13708.914    71.994125    238.76104 
   24000    76.873322   -712.26323    59239.668   -12798.583     928.9529   -13727.536    72.090955    240.83806 
   24050     72.85716   -1265.2032    59180.954   -12798.076    880.42078   -13678.496    72.099543    228.25574 
   24100    77.183704   -979.60138    59181.565   -12780.149    932.70362   -13712.852    72.137527    241.81046 
   24150    76.581768   -1291.4455    59152.545   -12773.595     925.4297   -13699.025    71.983306    239.92464 
   24200    74.837976   -1212.2161    59138.261   -12776.822    904.35737    -13681.18    71.894221    234.46148 
   24250     78.12765   -1059.0287    59120.342   -12749.613    944.11045   -13693.723     72.30901    244.76777 
   24300    78.253377   -1040.3542    59077.597    -12722.99    945.62977    -13668.62    72.391568    245.16166 
   24350    77.422079   -628.62529     59064.08   -12745.107    935.58419   -13680.691    72.432379    242.55727 
   24400    73.569234   -1094.8021    59072.126   -12776.577    889.02563   -13665.603    72.819069    230.48661 
   24450    73.528181   -824.29065    58994.715   -12803.772    888.52953   -13692.301    72.922778    230.35799 
   24500    74.419747   -1200.4275    58956.873   -12779.799     899.3034   -13679.102    73.155235     233.1512 
   24550    74.977545   -1185.8425    58956.536   -12754.442    906.04394   -13660.486    73.058682    234.89874 
   24600    76.015738   -814.39979     58903.08   -12738.003    918.58968   -13656.592    72.734913    238.15131 
   24650    76.167151   -1116.8405     58877.16   -12738.495    920.41938   -13658.914     73.15354    238.62568 
   24700    78.700216   -1338.0833    58905.674   -12709.585    951.02946   -13660.615    73.162865    246.56157 
   24750    77.281275   -1015.4905     58875.99   -12716.453    933.88269   -13650.336    73.326538    242.11614 
   24800    74.728353   -1092.9015    58917.345   -12745.874    903.03266   -13648.907    73.661972    234.11804 
   24850    73.587788   -1223.4062    58901.537   -12749.476    889.24984   -13638.726    74.178319    230.54474 
   24900    75.111592   -918.36259    58847.357   -12737.268    907.66379   -13644.932    74.752287     235.3187 
   24950    75.717542   -975.54807    58855.761   -12739.911    914.98622   -13654.897    74.811238    237.21709 
   25000    78.675779   -801.35262    58835.932   -12717.858    950.73416   -13668.592    74.551612    246.48501 
   25050    77.577262   -1116.7846    58805.091   -12746.729    937.45945   -13684.189    74.429999    243.04345 
   25100    76.568709   -1483.7769     58762.17   -12756.367     925.2719   -13681.638    74.512203    239.88373 
   25150    76.398502   -1088.8922    58732.484   -12776.803    923.21508   -13700.018     74.63367    239.35049 
   25200    75.468089   -1405.4011    58713.904   -12763.214    911.97178   -13675.185    75.290166    236.43557 
   25250     76.18351   -834.64653    58718.788   -12774.526    920.61707   -13695.143    75.477568    238.67693 
   25300    78.460322   -1260.4826    58729.095     -12746.8    948.13053    -13694.93    75.751272       245.81 
   25350     77.26407   -1077.0732    58725.883   -12744.199    933.67478   -13677.874    75.687006    242.06224 
   25400    74.589415   -1428.1495    58784.823   -12735.891    901.35371   -13637.244    75.722569    233.68276 
   25450     77.96043   -861.76165    58799.635   -12745.686    942.08974   -13687.776    76.020905    244.24388 
   25500    77.742409   -1486.6645    58764.922   -12724.778    939.45512   -13664.233    76.260229    243.56084 
   25550    76.652834   -830.30114    58753.906    -12717.52    926.28848   -13643.809    76.011785    240.14729 
   25600    76.770081   -674.83809    58744.624   -12700.995    927.70532     -13628.7    76.164835    240.51461 
   25650    77.737404   -651.02779    58830.376   -12715.573    939.39465   -13654.967    76.549621    243.54516 
   25700    76.540713   -1037.9625    58876.654   -12738.528    924.93359   -13663.461    76.598461    239.79602 
   25750    78.452061   -592.45524    58912.414   -12754.431     948.0307   -13702.462    76.284528    245.78412 
   25800    77.336045   -807.57637    58983.304   -12725.405    934.54454   -13659.949    76.203501    242.28773 
   25850    74.607508   -1219.7618    58996.611   -12766.602    901.57235   -13668.175    76.120887    233.73944 
   25900    75.372647   -804.88578    58955.234   -12783.453    910.81843   -13694.272    76.304387    236.13656 
   25950    75.765595   -910.57144    58931.929    -12785.55     915.5669   -13701.117    76.310904    237.36764 
   26000      75.2487   -941.02418     58965.35   -12752.657    909.32063   -13661.977    76.842055    235.74824 
   26050    75.340587   -624.82571    58996.248   -12757.985    910.43101   -13668.416    76.805098    236.03612 
   26100    78.030492   -1287.6022     59001.36   -12742.062    942.93638   -13684.999    76.827024    244.46338 
   26150    75.367638   -900.75547      58980.1   -12726.124    910.75791   -13636.882    77.107266    236.12087 
   26200    77.337558   -916.82054    58928.664   -12722.578    934.56282    -13657.14    77.218468    242.29247 
   26250    73.782739   -909.73158     58950.65   -12717.181    891.60567   -13608.787    77.508827    231.15551 
   26300    77.444033   -879.85936    58964.721    -12706.18    935.84949    -13642.03    77.423418    242.62605 
   26350    76.511017   -940.18541    58930.124   -12742.388    924.57474   -13666.963    77.245059    239.70299 
   26400    76.190351   -1294.6706    58885.996    -12734.59    920.69974    -13655.29    77.470601    238.69836 
   26450    74.718333   -1421.7358    58865.779   -12697.472    902.91158   -13600.383    78.222997    234.08665 
   26500    79.009922   -950.21061    58855.323   -12688.165    954.77201   -13642.937    78.336541    247.53186 
   26550    77.867737   -816.30198    58891.529   -12650.946    940.96962   -13591.915     78.32978    243.95348 
   26600    78.193045   -725.23364    58915.469   -12695.187     944.9007   -13640.088     78.67527    244.97265 
   26650    79.314706   -1063.7369    58974.955    -12690.77    958.45508   -13649.225    78.736355    248.48672 
   26700    77.753625   -1005.1427    58945.533   -12688.081    939.59067   -13627.671    79.041321    243.59598 
   26750    77.360177   -657.51872     58984.71   -12704.048    934.83615   -13638.884    79.146832    242.36334 
   26800    78.633586   -749.94211    59008.989   -12704.558    950.22428   -13654.782    79.206897    246.35283 
   26850    77.636147   -847.10032    59012.119   -12722.297    938.17104   -13660.468    79.041869    243.22793 
   26900     77.22749    -702.4278    59017.751   -12712.783    933.23274   -13646.016    78.763191    241.94764 
   26950    77.508263   -1050.2287    58986.462   -12702.798    936.62566   -13639.423    78.875817    242.82728 
   27000    78.908667   -1042.0807    58974.875   -12678.422    953.54843   -13631.971    79.222618    247.21463 
   27050    78.935377    -1191.444    58919.752   -12666.301    953.87119   -13620.173    79.482936    247.29831 
   27100    76.881799   -742.71621    58901.613   -12675.312    929.05534   -13604.367     79.92527    240.86462 
   27150    78.571902   -931.31767     58904.23   -12662.298    949.47888   -13611.777    80.291148    246.15957 
   27200    77.050936   -1233.9132    58894.485   -12695.556    931.09922   -13626.655    80.361792    241.39451 
   27250    78.635732   -1229.1611     58849.84   -12687.974    950.25022   -13638.224     80.45746    246.35955 
   27300    79.192678   -1099.1981    58873.186    -12657.65    956.98047   -13614.631    80.825094    248.10442 
   27350     77.45224   -1077.7053    58882.959   -12666.602    935.94866    -13602.55    81.249002    242.65176 
   27400    78.668186   -1293.8686    58906.888   -12669.106     950.6424   -13619.748    81.418703    246.46123 
   27450    77.415197   -1043.3188    58895.149   -12679.601    935.50103   -13615.102    81.412903    242.53571 
   27500     77.98214    -1336.236    58895.749   -12684.531    942.35208   -13626.883    81.710109     244.3119 
   27550    76.623044   -1215.6515    58874.978   -12679.077    925.92848   -13605.006    81.758177    240.05396 
   27600    77.619221   -696.58985     58926.53   -12647.854     937.9665    -13585.82     82.10164     243.1749 
   27650    77.663798   -997.76281    58910.682   -12666.732    938.50518   -13605.238    82.238252    243.31456 
   27700     82.05036   -671.64333     58936.26   -12665.333    991.51328   -13656.847    82.006708    257.05731 
   27750    77.775467   -1046.4768    58948.684   -12655.561     939.8546   -13595.415    82.046321    243.66441 
   27800    81.390785   -1257.2943    58942.616   -12633.047    983.54285    -13616.59    81.982204    254.99091 
   27850     78.42078   -997.59888    58940.683   -12630.509     947.6527   -13578.162     82.02252    245.68612 
   27900    82.593917   -973.33912     58942.93   -12615.468    998.08174   -13613.549    81.728023    258.76023 
   27950    78.167434   -1283.2552    58956.134   -12661.349    944.59121   -13605.941    81.819069    244.89241 
   28000    78.979702   -935.45858    58943.446   -12657.933    954.40682    -13612.34    81.893054    247.43718 
   28050    76.047187   -692.35558    58976.219   -12661.103    918.96971   -13580.073    82.005218    238.24984 
   28100    78.695618   -1269.5256    59018.625   -12633.697     950.9739   -13584.671    82.298261    246.54717 
   28150    76.118204   -1327.7725    59010.967   -12703.689     919.8279   -13623.517    82.461605    238.47233 
   28200    76.955045   -995.50369    58974.985   -12690.757    929.94046   -13620.697    82.405169    241.09409 
   28250    79.377225   -1132.3965    58919.287   -12647.097    959.21058   -13606.307    82.266813    248.68259 
   28300    79.897373   -897.41987    58962.111   -12618.867    965.49615   -13584.363    82.483998    250.31217 
   28350    75.256105   -847.87669     58960.57   -12647.266    909.41012   -13556.677    82.256179    235.77144 
   28400    73.422341   -736.16161    58934.598   -12646.924    887.25054   -13534.175    82.284336    230.02641 
   28450    79.161766   -1708.0473    58915.292   -12629.773    956.60692    -13586.38    82.343024    248.00757 
   28500     79.50832   -953.38277    58841.353    -12632.89    960.79476   -13593.684    82.180301     249.0933 
   28550    80.197056   -1485.9158    58824.656   -12637.902    969.11758   -13607.019    82.644495    251.25105 
   28600     75.55033   -1197.9288     58795.59   -12674.517    912.96559   -13587.482    82.869003    236.69323 
   28650    77.070721   -952.12473     58798.38   -12681.644    931.33832   -13612.982    83.702281     241.4565 
   28700    78.405114   -1039.5079    58832.545   -12650.424    947.46338   -13597.887     83.94664    245.63704 
   28750    79.025734   -1129.8453    58824.432    -12652.46    954.96309   -13607.423    84.310973     247.5814 
   28800    76.614561   -1137.6551    58845.141   -12661.164    925.82598    -13586.99    84.876023    240.02738 
   28850     79.28517   -1371.6528    58806.978   -12639.218    958.09817   -13597.316    84.806189    248.39419 
   28900    77.748436   -1080.7631    58791.187   -12654.262    939.52796    -13593.79    84.704044    243.57972 
   28950    78.566276   -1052.0932    58791.811   -12694.286     949.4109   -13643.697    84.394061    246.14195 
   29000    77.297818   -1126.0703    58804.348   -12665.583     934.0826   -13599.665    84.529475    242.16797 
   29050    78.279817   -1207.2883    58839.362   -12642.649    945.94928   -13588.598    84.495026     245.2445 
   29100    78.011046   -1098.7418    58866.448   -12705.423    942.70139   -13648.125    84.876363    244.40246 
   29150    76.247285    -957.8666    58849.946   -12710.171    921.38774   -13631.559    85.203614    238.87673 
   29200    79.007107   -1017.9962    58856.181   -12709.742      954.738    -13664.48    85.200079    247.52304 
   29250      78.8546    -1115.162    58799.546   -12710.539    952.89507   -13663.434    85.266489    247.04525 
   29300      76.6899   -1053.6297    58724.766   -12716.542    926.73639   -13643.278     85.49796    240.26341 
   29350    73.911758   -944.98405    58719.736   -12711.196    893.16476    -13604.36    85.760562    231.55971 
   29400    75.805658   -985.36044    58693.929   -12703.505    916.05103   -13619.556     85.97275    237.49315 
   29450    76.038634   -1052.8667    58741.715   -12711.593    918.86635   -13630.459    86.289088    238.22304 
   29500    77.487414   -933.05528    58744.111   -12699.671    936.37371   -13636.045    86.161309    242.76196 
   29550    75.400668   -1092.2972    58742.269   -12696.894    911.15705   -13608.051     86.03728    236.22435 
   29600    79.608458   -953.43672    58762.136   -12671.945    962.00484    -13633.95    85.707911    249.40702 
   29650    77.776718   -1259.6484    58731.569   -12663.713    939.86972   -13603.583    85.916067    243.66833 
   29700    77.404442    -937.8645    58666.685   -12670.104    935.37106   -13605.475      85.8364    242.50201 
   29750    79.071341   -641.70958    58664.126   -12665.524    955.51421   -13621.038    86.033599    247.72428 
   29800    77.990101   -1234.2592    58640.852   -12655.098    942.44829   -13597.546    86.311023    244.33684 
   29850    77.641327   -1482.4015    58585.507   -12656.768    938.23363   -13595.002    86.681444    243.24416 
   29900    81.715066    -1271.777    58591.597   -12640.045    987.46152   -13627.507    86.729044    256.00686 
   29950     80.64817   -1055.7465    58563.139   -12656.437    974.56893   -13631.006     87.04392    252.66436 
   30000    76.437272    -1261.354    58607.666   -12659.375    923.68358   -13583.058    87.126198    239.47195 
   30050    77.523978   -1326.6094    58551.734    -12606.17    936.81556   -13542.986    87.543759    242.87651 
   30100    79.675953   -1396.7096    58518.331    -12597.33    962.82047    -13560.15     87.76138    249.61848 
   30150    81.087858   -1147.7888    58515.049   -12590.044    979.88222   -13569.927    88.210224    254.04187 
   30200    79.367524   -714.47624    58549.799   -12586.072    959.09335   -13545.165    88.042927     248.6522 
   30250    79.194058   -1127.1054    58536.586   -12588.724    956.99715   -13545.721    88.265738    248.10874 
   30300      81.8833   -1185.1958    58540.106   -12607.208     989.4945   -13596.703     88.07196    256.53392 
   30350    79.398332   -1338.7677    58476.191   -12603.966    959.46564   -13563.432    88.036119    248.74872 
   30400    77.815439   -1037.2449    58414.962   -12607.504    940.33763   -13547.842    88.506049    243.78964 
   30450    77.939973   -883.03865    58396.064   -12595.631    941.84253   -13537.474    88.200105    244.17979 
   30500    80.048274   -942.19045    58363.648   -12623.247    967.31967   -13590.566    88.867641    250.78493 
   30550    76.880382   -1429.7517    58331.794   -12628.764    929.03821   -13557.802    89.062623    240.86018 
   30600    78.209802   -1078.3029    58337.077   -12661.519     945.1032   -13606.622    89.086612    245.02514 
   30650    77.613862   -882.30346    58341.336   -12669.629    937.90174   -13607.531    89.200083    243.15811 
   30700     75.36211   -1027.2727    58351.261   -12656.262     910.6911   -13566.953    89.522676    236.10355 
   30750    79.569932   -1054.0027    58310.096   -12664.966    961.53928   -13626.505    89.428208    249.28632 
   30800    77.460774   -1098.3433    58351.709   -12675.004    936.05179   -13611.055    88.901942     242.6785 
   30850    75.066284   -1251.5578    58375.195   -12707.024    907.11628    -13614.14    89.308945    235.17675 
   30900    77.993795   -888.56784    58352.344   -12672.351    942.49293   -13614.844    89.318502    244.34841 
   30950    78.202593   -1002.0041    58375.363   -12697.983    945.01609   -13642.999    89.528344    245.00256 
   31000    78.167358   -786.15136    58364.519   -12688.819     944.5903   -13633.409    89.722927    244.89217 
   31050    78.880052   -638.57884    58400.477     -12663.8    953.20263   -13617.003      89.9086    247.12498 
   31100      76.8834   -984.67113    58419.821   -12666.578    929.07469   -13595.652    90.591157    240.86963 
   31150    78.002677   -1046.8831    58397.146   -12667.698    942.60026   -13610.298    90.516694    244.37624 
   31200    76.486652   -1119.1607    58341.957   -12649.975     924.2803   -13574.255     90.65445    239.62665 
   31250    79.456457    -965.8352    58326.216   -12680.486    960.16803   -13640.654    90.755425    248.93082 
   31300     76.49211   -742.74696    58321.629   -12700.859    924.34626   -13625.205    91.368782    239.64375 
   31350    73.531752   -699.37043    58316.807   -12740.171    888.57268   -13628.744     91.59605    230.36918 
   31400    76.176113   -1109.2888    58314.757    -12733.75    920.52768   -13654.278    91.619379    238.65376 
   31450    76.364756   -949.89179    58291.159   -12715.907    922.80728   -13638.714    91.698276    239.24476 
   31500    77.214007   -1368.7266    58271.892   -12737.884    933.06981   -13670.954    91.672432     241.9054 
   31550    75.934654   -1109.1967    58280.273   -12755.741    917.60984    -13673.35    91.973793    237.89729 
   31600    75.572965   -1071.9484    58272.006   -12766.817    913.23912   -13680.056    91.553581    236.76414 
   31650    76.496519   -1054.2567    58212.168   -12782.867    924.39954   -13707.267    91.960678    239.65757 
   31700    74.792329    -1328.793    58248.525   -12748.801    903.80575   -13652.607    92.214891    234.31847 
   31750    75.153672   -825.17975    58233.529     -12776.2    908.17231   -13684.372    92.095655    235.45053 
   31800    79.547919   -615.20964    58262.174   -12749.364    961.27328   -13710.637    92.202206    249.21736 
   31850    77.478556   -1180.7595    58291.911   -12752.898    936.26668   -13689.165    92.296164    242.73421 
   31900    74.790914   -1370.5878    58308.201   -12756.389    903.78866   -13660.178     92.44161    234.31404 
   31950    78.943027   -870.22881    58365.092   -12761.487    953.96364    -13715.45    92.846975    247.32228 
   32000    79.860679   -1017.6929    58323.132   -12747.494    965.05273   -13712.547    92.977787    250.19721 
   32050    79.092357   -1037.4063    58307.751   -12751.017    955.76817   -13706.785    93.108274    247.79012 
   32100    77.369426   -1050.3662    58311.931    -12720.39    934.94793   -13655.338    92.988832    242.39231 
   32150    77.886114   -929.75567    58325.881   -12757.789    941.19169   -13698.981    93.222762    244.01106 
   32200    76.039226   -1130.0462    58320.987   -12755.184    918.87352   -13674.057    93.389014     238.2249 
   32250    74.640541   -662.75421    58309.098   -12744.085    901.97152   -13646.056     93.85667    233.84293 
   32300    77.478857    -1050.567    58339.069   -12754.084    936.27031   -13690.354    94.004061    242.73515 
   32350    75.740689   -1003.3701    58392.808   -12741.235    915.26593   -13656.501    94.354187    237.28961 
   32400    73.768628   -726.50524    58367.495   -12756.982    891.43514   -13648.417    94.340594     231.1113 
   32450    79.653714   -1092.9083    58411.877   -12709.803    962.55173   -13672.355    94.582464    249.54881 
   32500    77.233452   -688.15739    58424.378   -12743.477    933.30479   -13676.782    94.906477    241.96632 
   32550    76.896214   -1101.2627    58481.758   -12759.823    929.22953   -13689.053    95.220654    240.90978 
   32600    73.909946   -957.37456    58509.623   -12745.965    893.14286   -13639.108    95.497958    231.55403 
   32650    74.155366   -1158.5427    58528.505   -12757.272    896.10857   -13653.381    95.547368    232.32292 
   32700    75.212745    -1133.492    58500.111   -12748.621    908.88615   -13657.507    95.621922     235.6356 
   32750    74.715997    -1066.279    58490.657    -12756.86    902.88335   -13659.744    95.685478    234.07933 
   32800    74.489587   -946.69514     58471.89   -12751.836    900.14736   -13651.983     96.13789       233.37 
   32850    76.987497   -1076.2745    58484.156   -12727.474    930.33261   -13657.806    96.180686    241.19576 
   32900     77.86293    -1362.444    58472.902   -12734.097    940.91153   -13675.009    95.999973    243.93842 
   32950    74.425584   -1046.6473    58508.929   -12773.741    899.37393   -13673.115    95.549409    233.16949 
   33000    77.973518     -977.385    58514.258   -12752.744    942.24789   -13694.992     95.76801    244.28489 
   33050    73.936415   -957.43095    58532.067   -12730.094    893.46272   -13623.556    95.841278    231.63696 
   33100    79.542357   -871.20932      58480.4   -12701.494    961.20607     -13662.7    96.103827    249.19994 
   33150    79.454267   -835.43538    58522.853   -12690.959    960.14157   -13651.101    96.867536    248.92396 
   33200     76.64722   -987.18946    58551.298   -12699.608    926.22063   -13625.828    96.974688     240.1297 
   33250    79.166252   -988.22705    58536.864   -12679.521    956.66114   -13636.182    97.027023    248.02163 
   33300    77.311133   -1117.8349    58560.209   -12654.421     934.2435   -13588.664    97.240127    242.20969 
   33350    76.529298   -713.99817    58517.203   -12676.239    924.79565   -13601.035    97.221014    239.76026 
   33400    78.079991   -1080.6237    58527.934   -12668.962    943.53454   -13612.496    97.885388    244.61846 
   33450    78.995135   -703.79659    58529.927   -12669.863    954.59332   -13624.456    97.884457    247.48553 
   33500    76.845589   -1368.3097    58500.199   -12676.495    928.61777   -13605.113    97.938438    240.75117 
   33550    79.233816   -924.77648    58467.487     -12692.1     957.4776   -13649.578    97.655484     248.2333 
   33600    79.580368   -954.64175    58507.562   -12696.185    961.66539   -13657.851    97.475357    249.31902 
   33650    77.539001   -1156.4355    58503.331   -12703.983     936.9971   -13640.981    97.952634    242.92358 
   33700    76.898739   -1149.5777    58504.832    -12728.64    929.26005     -13657.9     98.05227    240.91769 
   33750    74.865125   -1040.6949    58478.058   -12743.882    904.68544   -13648.567    98.343267    234.54654 
   33800    78.277561   -1175.0077     58494.24   -12734.833    945.92201   -13680.755    98.366134    245.23743 
   33850    77.026482   -1336.6162    58491.154   -12713.649    930.80372   -13644.452     98.59365     241.3179 
   33900     76.57123   -978.65817    58574.349   -12737.574    925.30236   -13662.877    98.695578    239.89163 
   33950    75.416932   -1210.6153    58563.277   -12721.831    911.35359   -13633.184    99.059926     236.2753 
[...]
   92000    76.792335   -722.71494    58566.711    -12692.95    927.97424   -13620.925    239.25977    240.58433 
   92050    78.220018   -884.57914     58540.59   -12695.087    945.22665   -13640.313    239.19674    245.05715 
   92100    77.347803   -934.00259    58528.556   -12711.688    934.68662   -13646.375    239.27523    242.32457 
   92150     77.36389   -1100.1659    58524.015   -12715.467    934.88103   -13650.349      239.408    242.37497 
   92200     76.37267   -1008.6494    58525.149   -12691.946    922.90292   -13614.849    238.71556    239.26956 
   92250    76.143146   -1190.0956    58499.905   -12696.311    920.12931    -13616.44     238.9043    238.55047 
   92300    74.708799    -1049.803     58474.96   -12676.315    902.79636   -13579.111    239.04615    234.05678 
   92350     75.57587   -960.39779    58430.836   -12690.034    913.27422   -13603.309    239.21301    236.77324 
   92400    75.894959   -1305.7286    58421.713   -12711.856    917.13016   -13628.986    238.72386    237.77292 
   92450    74.334769   -1164.3982     58353.43   -12741.528     898.2765   -13639.804    238.24463    232.88497 
   92500    75.647425   -1117.8532    58287.766   -12728.911    914.13891    -13643.05    238.30174    236.99742 
   92550    74.608723   -917.01286    58322.557   -12722.988    901.58703   -13624.575    238.58441    233.74325 
   92600    73.958936    -1220.079     58365.69   -12711.223    893.73486   -13604.958    238.42664    231.70752 
   92650    75.318753   -845.69738     58403.21   -12707.147    910.16717   -13617.314    238.45913    235.96771 
   92700    73.507415   -971.37854    58481.432   -12721.822    888.27859   -13610.101    238.53651    230.29294 
   92750    74.614093   -1037.0031    58515.269   -12725.239    901.65191   -13626.891    238.17921    233.76007 
   92800    75.719037   -1227.6915    58481.683   -12712.713    915.00428   -13627.717    239.22031    237.22177 
   92850    73.283583   -716.61788    58489.743    -12693.98    885.57376   -13579.554    238.86774    229.59169 
   92900    76.694133   -775.23919    58500.754    -12705.73    926.78755   -13632.517     238.9167    240.27667 
   92950    73.231132   -901.45833    58553.535   -12712.157    884.93993   -13597.097    239.76578    229.42736 
   93000     77.94798   -1049.2699    58541.601   -12669.905    941.93929   -13611.844    239.44535    244.20488 
   93050    75.449768   -1123.0062    58460.887   -12714.232    911.75038   -13625.982    239.53419    236.37818 
   93100    76.789155   -1221.5235     58423.13   -12715.214    927.93581   -13643.149    238.92931    240.57437 
   93150    74.773626   -1121.1113    58410.394   -12724.212    903.57974   -13627.791      239.086    234.25987 
   93200    76.925944   -1296.1435    58391.836   -12707.892    929.58879   -13637.481    239.13367    241.00292 
   93250    78.351992   -971.78068    58380.987    -12714.59    946.82144   -13661.412    238.57558    245.47061 
   93300    74.884179   -775.97126    58411.107   -12710.915    904.91569    -13615.83    239.38119    234.60623 
   93350    77.234813   -889.05541    58413.866   -12696.681    933.32124   -13630.002    239.59797    241.97058 
   93400    76.578536   -1220.4246     58434.99   -12685.574    925.39065   -13610.965    239.69823    239.91452 
   93450    75.878739   -872.56663     58409.77   -12694.179    916.93416   -13611.113    239.92276    237.72211 
   93500    79.728799   -1276.3847    58452.365   -12690.297    963.45907   -13653.756    240.72429    249.78404 
   93550    73.983246   -1200.6867    58418.241   -12683.873    894.02863   -13577.901    241.03579    231.78368 
   93600    76.128144   -943.84182    58420.943   -12696.634    919.94802   -13616.582    241.04436    238.50348 
   93650    76.601239   -1140.5095    58355.527   -12688.992      925.665   -13614.657     241.3222    239.98564 
   93700    77.576826   -1323.0384    58382.751   -12691.827    937.45419   -13629.282     240.9749    243.04208 
   93750    75.884415   -1128.9701    58407.093   -12701.549    917.00275   -13618.552    241.74291    237.73989 
   93800    75.584614   -941.54282     58433.46   -12729.941    913.37989   -13643.321    241.94804    236.80064 
   93850    74.066917     -889.334    58417.388   -12756.705    895.03972   -13651.745     242.0622    232.04581 
   93900    75.315258   -1057.6234    58440.017   -12758.639    910.12494   -13668.764    242.17442    235.95677 
   93950    75.307757   -1122.6062     58453.83   -12746.116     910.0343   -13656.151    241.88726    235.93327 
   94000    74.906354   -923.86946     58478.05    -12731.06    905.18366   -13636.243    241.63724     234.6757 
   94050    74.926623   -929.12073    58515.914   -12739.867     905.4286   -13645.295    241.91726     234.7392 
   94100    75.083205   -1117.5339    58529.737   -12748.609    907.32076    -13655.93    241.51912    235.22976 
   94150     74.49714    -1149.567    58515.228   -12735.742    900.23864   -13635.981    241.29045    233.39367 
   94200    77.451662   -1185.6477    58531.978   -12712.918    935.94168    -13648.86    241.89221    242.64995 
   94250     75.55578   -1151.9434    58491.559   -12737.017    913.03145   -13650.048    241.80867     236.7103 
   94300    78.357041   -963.48333    58512.477   -12716.638    946.88247    -13663.52    241.73616    245.48643 
   94350    75.067375   -684.35078    58586.738   -12724.539    907.12947   -13631.668    241.20619    235.18017 
   94400    77.317211   -1211.3772    58601.942   -12761.528    934.31695   -13695.845    242.27445    242.22873 
   94450    75.263762   -1297.6832    58619.235   -12777.767    909.50265    -13687.27    242.14176    235.79543 
   94500    75.129032   -1164.5972    58627.059    -12750.32    907.87454   -13658.194     241.7076    235.37333 
   94550    75.418726   -1289.5082    58634.804   -12756.498    911.37527   -13667.874    241.68256    236.28092 
   94600     79.58257   -921.98036    58658.185   -12719.005      961.692   -13680.697    242.00587    249.32592 
   94650    77.730276   -1035.2002    58659.746   -12724.477     939.3085   -13663.786    242.24722    243.52283 
   94700    75.975165   -954.08629    58657.401   -12749.896    918.09939   -13667.996    243.10561     238.0242 
   94750    77.716972   -1035.9854    58650.934   -12724.449    939.14774   -13663.597    243.35583    243.48115 
   94800    76.386747   -1305.0505    58651.011   -12724.147    923.07303    -13647.22    243.05643    239.31366 
   94850    75.255031   -1423.5552    58624.646   -12747.035    909.39714   -13656.432    243.91544    235.76808 
   94900    77.010274   -1482.7442    58635.785    -12749.87    930.60786   -13680.477    243.96093    241.26712 
   94950     75.62332   -1055.3857    58649.598    -12724.21    913.84762   -13638.057    243.95659     236.9219 
   95000      77.4673   -1218.0198    58655.069   -12748.866    936.13065   -13684.996    244.08445    242.69894 
   95050    78.491737   -1058.9599    58614.747   -12737.041    948.51015   -13685.551    244.81918    245.90842 
   95100    77.133799   -1057.5164    58567.626   -12756.955    932.10055   -13689.056     244.6932    241.65411 
   95150    77.442473   -1040.7588    58552.135   -12736.853    935.83064   -13672.683    245.22238    242.62116 
   95200    78.255508   -829.15455    58588.197   -12723.623    945.65552   -13669.279     244.9571    245.16834 
   95250    75.767418   -855.99958    58620.285   -12698.644    915.58893   -13614.233     245.1759    237.37335 
   95300    79.095764   -899.01821    58604.402   -12710.098    955.80934   -13665.908    244.76582    247.80079 
   95350    75.767256   -1185.2393    58592.971   -12719.854    915.58697   -13635.441    244.92362    237.37284 
   95400    76.288616   -887.99381    58615.759    -12711.43     921.8872   -13633.317    244.71834    239.00622 
   95450    78.690757   -918.74984    58612.032   -12702.958    950.91516   -13653.873    244.40489    246.53194 
   95500     78.96098   -838.81413    58636.299   -12721.055    954.18059   -13675.235    244.84017    247.37853 
   95550    76.023951   -1013.5559    58608.591     -12722.7    918.68893   -13641.389     244.1191    238.17705 
   95600    77.173912   -1094.3829    58572.549   -12710.689    932.58529   -13643.274    244.51434    241.77978 
   95650     76.78088   -1281.9981    58592.051   -12729.225    927.83582    -13657.06    244.40213    240.54845 
   95700    76.759464   -1272.6464     58547.67   -12728.296    927.57702   -13655.873    244.29348    240.48135 
   95750    75.519503   -1223.7168    58571.983   -12739.143    912.59307   -13651.736    245.18234    236.59665 
   95800    78.091282   -1041.9998    58614.224   -12767.234    943.67098   -13710.905    245.86097    244.65383 
   95850    76.437413   -1131.2783    58631.541   -12748.008    923.68529   -13671.694    246.27934    239.47239 
   95900    79.233692   -1066.2783    58651.773   -12724.771    957.47609   -13682.247     246.9453    248.23291 
   95950    76.151274   -1388.1878     58650.95   -12739.701    920.22753   -13659.928    246.52487    238.57594 
   96000     78.74818   -1262.8143    58636.223   -12758.341    951.60907    -13709.95    246.74738    246.71184 
   96050    75.564362    -927.5664     58652.14   -12786.627    913.13517   -13699.762    246.26586    236.73719 
   96100    74.347165   -898.01785    58697.747   -12813.017    898.42631   -13711.443    246.02361    232.92381 
   96150    74.124022   -1377.5546     58695.77    -12816.61    895.72979    -13712.34    245.70051    232.22472 
   96200    76.815342   -1358.5837    58738.247   -12771.632    928.25226   -13699.885    245.67773    240.65641 
   96250     76.61877   -1196.4902    58693.246   -12769.546    925.87684   -13695.423     245.9803    240.04057 
   96300    76.098593   -1184.1581     58693.87    -12774.51    919.59092   -13694.101    246.68641    238.41089 
   96350    74.657045   -1009.3848    58703.699    -12743.61    902.17095   -13645.781    246.45461    233.89464 
   96400    76.426622   -1127.5476    58692.532   -12714.292    923.55488   -13637.847    245.80613    239.43858 
   96450    76.572547   -1443.6212    58671.017   -12694.979    925.31827   -13620.297    245.98114    239.89575 
   96500    79.432244   -1254.5076    58710.096   -12716.445    959.87543    -13676.32    246.56771    248.85496 
   96550    76.291196   -1179.3094    58647.713   -12747.247    921.91837   -13669.165    246.54723     239.0143 
   96600    76.513632   -901.17154    58629.821   -12749.937    924.60634   -13674.544    247.02148    239.71118 
   96650    78.099487   -972.95319    58599.135   -12764.367    943.77012   -13708.137    246.86944    244.67954 
   96700    77.796339   -1262.7085    58568.634   -12709.056    940.10683   -13649.163    246.26548     243.7298 
   96750    76.234816   -1348.6919    58539.895   -12718.039    921.23706   -13639.276    245.95911    238.83767 
   96800     75.91889   -779.71803    58528.835   -12717.278    917.41935   -13634.698    245.96031     237.8479 
   96850    76.715714   -1187.7975    58581.102   -12719.164    927.04834   -13646.212    246.45259    240.34429 
   96900    75.059899   -1172.5872    58544.225   -12751.203    907.03912   -13658.242    246.66881    235.15675 
   96950    76.132572   -1092.7719     58484.76   -12755.959    920.00153    -13675.96    247.43874    238.51735 
   97000     78.22823   -1126.0039    58467.926   -12730.292    945.32589   -13675.618    247.55683    245.08288 
   97050    76.261923   -890.98609    58490.646   -12756.224    921.56463   -13677.788    247.85907    238.92259 
   97100    76.126018   -1099.0031     58462.56   -12747.407    919.92233   -13667.329    247.81003    238.49681 
   97150    76.902384   -847.57482    58517.485   -12737.878    929.30409   -13667.182    247.92985    240.92911 
   97200    75.188751   -1097.8799    58474.178    -12730.51     908.5962   -13639.106    247.56004    235.56043 
   97250    74.523323   -1009.3861    58506.129   -12752.769    900.55503   -13653.324    247.72643     233.4757 
   97300    77.286727   -1270.1687    58519.693    -12732.01    933.94857   -13665.958    248.03615    242.13322 
   97350    75.901333   -1001.1213     58551.11   -12752.512    917.20719   -13669.719    247.25934    237.79289 
   97400    75.515661   -1052.9384    58574.914   -12741.661    912.54665   -13654.208     247.1382    236.58461 
   97450    76.206696   -1130.6226    58616.005   -12733.475    920.89726   -13654.372    247.34005    238.74957 
   97500    78.188717   -1256.2189    58621.411   -12719.748     944.8484   -13664.597    247.22709    244.95909 
   97550    75.491736   -777.40278    58617.729   -12723.943    912.25753   -13636.201     247.0648    236.50966 
   97600    75.624372    -876.4915    58677.284   -12724.779    913.86034    -13638.64    247.74224     236.9252 
   97650    78.828265   -1218.9299    58675.128   -12756.814    952.57684   -13709.391    247.98118    246.96274 
   97700     75.04817    -1214.375    58685.266   -12784.004     906.8974   -13690.901     248.3356       235.12 
   97750    72.791861   -1129.2991     58658.86   -12799.548    879.63169   -13679.179    248.78502    228.05116 
   97800    74.029584    -1194.134    58630.196   -12801.872    894.58859   -13696.461    248.82607    231.92885 
   97850    74.438458   -868.00136    58599.043    -12758.59    899.52951    -13658.12     248.7432    233.20982 
   97900    74.628353   -893.53709    58575.743   -12775.081    901.82424   -13676.905    249.32436    233.80475 
   97950    74.385187   -808.23376    58614.606   -12767.615    898.88578     -13666.5    249.45573    233.04293 
   98000    75.912916   -796.69522    58599.081   -12742.434    917.34716   -13659.781    249.09922    237.82918 
   98050    76.043643    -751.4956    58613.371   -12743.231    918.92689   -13662.158    249.27755    238.23874 
   98100    74.114905   -861.80428    58605.294   -12713.321    895.61963   -13608.941    249.07215    232.19616 
   98150    78.558356   -681.13726     58625.57   -12702.249    949.31519   -13651.564    250.15624    246.11714 
   98200    78.160229   -1120.5966    58631.527   -12681.983    944.50414   -13626.487    250.33803    244.86984 
   98250    77.687623    -733.8858    58640.915    -12671.26    938.79308   -13610.053    250.28025     243.3892 
   98300    76.224712   -1055.7138    58619.547   -12686.907    921.11497   -13608.022    250.41592    238.80602 
   98350    76.920515   -892.20081    58608.817   -12688.918    929.52319   -13618.441     250.8418    240.98591 
   98400    76.603023   -1197.5259    58606.357   -12696.427    925.68656   -13622.113    250.67871    239.99123 
   98450    76.744164   -730.64228    58594.623   -12708.359    927.39212   -13635.751    250.45232    240.43342 
   98500    76.411678   -609.42871    58653.307   -12712.531     923.3743   -13635.906    251.39155    239.39176 
   98550    77.229996   -788.87158    58698.778   -12688.901    933.26302   -13622.164    251.90286    241.95549 
   98600    79.198499   -946.95282    58718.097   -12713.664    957.05081   -13670.715    251.66255    248.12265 
   98650    77.408223   -910.56724    58720.935   -12721.129    935.41675   -13656.546    252.35292    242.51386 
   98700    75.724922    -989.8659     58706.53   -12732.904     915.0754   -13647.979    251.96335    237.24021 
   98750     78.98305   -974.09785    58743.198   -12735.826    954.44729   -13690.273    251.29498    247.44767 
   98800     76.88609   -1174.6358    58728.784   -12748.367    929.10719   -13677.475    251.68963    240.87806 
   98850    78.860136   -880.37527    58747.904   -12739.283    952.96196   -13692.245    251.66484    247.06259 
   98900     77.25905   -1273.5208    58757.675   -12735.317    933.61412   -13668.931    251.79914    242.04651 
   98950    76.921899   -957.99132     58719.82   -12749.915    929.53992   -13679.455    252.18227    240.99025 
   99000    77.873591   -1383.0094    58724.656   -12775.955    941.04035   -13716.995    252.28534    243.97182 
   99050    75.784561   -829.29338    58664.076   -12776.216    915.79609   -13692.012    251.66479    237.42706 
   99100    75.090835     -1296.85    58610.236    -12787.01    907.41297   -13694.423    252.95039    235.25367 
   99150    76.569866   -1191.3081    58564.093   -12818.788    925.28587   -13744.074    252.63652    239.88735 
   99200    74.026082    -1575.495    58553.039   -12821.071    894.54627   -13715.617    253.08715    231.91788 
   99250    73.580328   -753.32833    58583.288   -12815.184    889.15969   -13704.344     252.9782    230.52137 
   99300    73.604519   -1091.5216    58579.649   -12817.432    889.45201   -13706.884    253.05828    230.59715 
   99350    76.605029   -1179.3246    58555.476   -12784.519    925.71079    -13710.23    253.51353    239.99752 
   99400    74.079157   -1301.1538    58545.633   -12814.803    895.18764   -13709.991    253.44699    232.08416 
   99450    75.115896    -899.7579    58517.594   -12786.699    907.71581   -13694.415    252.92062    235.33218 
   99500     75.72148   -1150.0536    58477.199   -12809.955     915.0338   -13724.989    253.25595    237.22943 
   99550     78.44985   -1316.5415    58442.532   -12768.357    948.00399   -13716.361    253.36545     245.7772 
   99600    76.963221   -1036.8375    58427.394   -12762.505    930.03926   -13692.544     253.3253    241.11971 
   99650    75.737107   -1206.2547    58500.672    -12762.98    915.22265   -13678.202    253.57903    237.27839 
   99700    75.233945     -828.934    58532.446    -12766.21    909.14234   -13675.352    253.79411    235.70202 
   99750    73.939682   -789.32564    58601.313   -12773.835     893.5022   -13667.338    253.91479     231.6472 
   99800    75.145552   -1147.7552    58640.032   -12746.895    908.07418   -13654.969    254.01244    235.42509 
   99850    76.797098   -1126.1712    58677.723   -12727.192    928.03179   -13655.224     254.3734    240.59925 
   99900    77.655636   -1445.7621    58696.051   -12707.021    938.40655   -13645.428    254.27114    243.28899 
   99950    78.471616   -1043.5059    58680.969   -12666.835    948.26701   -13615.102    254.32349    245.84539 
  100000    78.987232   -1225.4741    58708.874   -12701.959    954.49782   -13656.457    254.80941    247.46077 
Loop time of 81.5934 on 80 procs for 100000 steps with 4055 atoms

Performance: 529.454 ns/day, 0.045 hours/ns, 1225.589 timesteps/s
99.5% CPU use with 80 MPI tasks x no OpenMP threads

MPI task timing breakdown:
Section |  min time  |  avg time  |  max time  |%varavg| %total
---------------------------------------------------------------
Pair    | 46.288     | 50.601     | 55.755     |  34.9 | 62.02
Neigh   | 0.44696    | 1.0578     | 1.9218     |  59.1 |  1.30
Comm    | 15.112     | 21.214     | 25.513     |  63.5 | 26.00
Output  | 0.12812    | 0.13144    | 0.26122    |   4.0 |  0.16
Modify  | 6.5589     | 7.656      | 8.5578     |  16.6 |  9.38
Other   |            | 0.9329     |            |       |  1.14

Nlocal:    50.6875 ave 87 max 23 min
Histogram: 40 0 0 0 0 0 4 17 10 9
Nghost:    713.25 ave 752 max 673 min
Histogram: 8 10 7 5 8 4 17 6 4 11
Neighs:    0 ave 0 max 0 min
Histogram: 80 0 0 0 0 0 0 0 0 0
FullNghs:  5579.73 ave 11181 max 1166 min
Histogram: 40 0 0 0 0 0 0 10 18 12

Total # of neighbors = 446378
Ave neighs/atom = 110.081
Neighbor list builds = 5502
Dangerous builds = 0

write_data		${DIR}/data.eq-${NAME}-${TEMP}
write_data		run_3/data.eq-${NAME}-${TEMP}
write_data		run_3/data.eq-het_freeze_3-${TEMP}
write_data		run_3/data.eq-het_freeze_3-240
undump          1

reset_timestep  0

unfix           2
unfix           3
unfix           4


################################################
#######         Run Simulation         #########
################################################

log				${DIR}/log.run_${NAME}
log				run_3/log.run_${NAME}
log				run_3/log.run_het_freeze_3
