LAMMPS data file via write_data, version 16 Mar 2018, timestep = 8000000

4545 atoms
2 atom types

0.0000000000000000e+00 4.9219999999999999e+01 xlo xhi
0.0000000000000000e+00 4.9019635930410494e+01 ylo yhi
9.1999992267529862e-01 3.2715339863848662e+01 zlo zhi

Masses

1 18.015
2 12.01

Atoms # atomic

91 2 0.0000000000000000e+00 2.8417180249513345e+00 2.5052607055228702e+00 0 0 0
93 2 0.0000000000000000e+00 0.0000000000000000e+00 2.5052607055228702e+00 0 0 0
95 2 1.2305000000000001e+00 7.1042950623783474e-01 2.5052607055228702e+00 0 0 0
102 2 1.2305000000000001e+00 2.1312885187134998e+00 2.5052607055228702e+00 0 0 0
104 2 2.4610000000000003e+00 2.8417180249513345e+00 2.5052607055228702e+00 0 0 0
106 2 2.4610000000000003e+00 0.0000000000000000e+00 2.5052607055228702e+00 0 0 0
108 2 3.6915000000000004e+00 7.1042950623783474e-01 2.5052607055228702e+00 0 0 0
123 2 3.6914999999999996e+00 2.1312885187134998e+00 2.5052607055228702e+00 0 0 0
125 2 4.9220000000000006e+00 2.8417180249513332e+00 2.5052607055228702e+00 0 0 0
127 2 4.9220000000000006e+00 0.0000000000000000e+00 2.5052607055228702e+00 0 0 0
129 2 6.1524999999999999e+00 7.1042950623783407e-01 2.5052607055228702e+00 0 0 0
152 2 6.1524999999999999e+00 2.1312885187134989e+00 2.5052607055228702e+00 0 0 0
154 2 7.3829999999999991e+00 2.8417180249513345e+00 2.5052607055228702e+00 0 0 0
156 2 7.3829999999999991e+00 0.0000000000000000e+00 2.5052607055228702e+00 0 0 0
158 2 8.6134999999999984e+00 7.1042950623783407e-01 2.5052607055228702e+00 0 0 0
189 2 8.6134999999999984e+00 2.1312885187135002e+00 2.5052607055228702e+00 0 0 0
191 2 9.8440000000000012e+00 2.8417180249513332e+00 2.5052607055228702e+00 0 0 0
193 2 9.8440000000000012e+00 0.0000000000000000e+00 2.5052607055228702e+00 0 0 0
195 2 1.1074500000000002e+01 7.1042950623783330e-01 2.5052607055228702e+00 0 0 0
234 2 1.1074500000000002e+01 2.1312885187135002e+00 2.5052607055228702e+00 0 0 0
98 2 0.0000000000000000e+00 4.2625770374269996e+00 2.5052607055228702e+00 0 0 0
100 2 1.2305000000000001e+00 4.9730065436648339e+00 2.5052607055228702e+00 0 0 0
115 2 1.2305000000000001e+00 6.3938655561404980e+00 2.5052607055228702e+00 0 0 0
119 2 2.4610000000000003e+00 4.2625770374269996e+00 2.5052607055228702e+00 0 0 0
121 2 3.6914999999999996e+00 4.9730065436648339e+00 2.5052607055228702e+00 0 0 0
144 2 3.6914999999999996e+00 6.3938655561404980e+00 2.5052607055228702e+00 0 0 0
96 2 0.0000000000000000e+00 7.1042950623783341e+00 2.5052607055228702e+00 0 0 0
117 2 2.4610000000000003e+00 7.1042950623783341e+00 2.5052607055228702e+00 0 0 0
148 2 4.9220000000000006e+00 4.2625770374269978e+00 2.5052607055228702e+00 0 0 0
150 2 6.1524999999999999e+00 4.9730065436648339e+00 2.5052607055228702e+00 0 0 0
181 2 6.1524999999999999e+00 6.3938655561404980e+00 2.5052607055228702e+00 0 0 0
185 2 7.3829999999999991e+00 4.2625770374269996e+00 2.5052607055228702e+00 0 0 0
146 2 4.9220000000000006e+00 7.1042950623783341e+00 2.5052607055228702e+00 0 0 0
183 2 7.3830000000000009e+00 7.1042950623783341e+00 2.5052607055228702e+00 0 0 0
187 2 8.6135000000000002e+00 4.9730065436648339e+00 2.5052607055228702e+00 0 0 0
226 2 8.6135000000000002e+00 6.3938655561404980e+00 2.5052607055228702e+00 0 0 0
230 2 9.8440000000000012e+00 4.2625770374270004e+00 2.5052607055228702e+00 0 0 0
232 2 1.1074500000000002e+01 4.9730065436648339e+00 2.5052607055228702e+00 0 0 0
273 2 1.1074500000000002e+01 6.3938655561404980e+00 2.5052607055228702e+00 0 0 0
228 2 9.8440000000000012e+00 7.1042950623783341e+00 2.5052607055228702e+00 0 0 0
111 2 0.0000000000000000e+00 8.5251540748539991e+00 2.5052607055228702e+00 0 0 0
113 2 1.2305000000000001e+00 9.2355835810918343e+00 2.5052607055228702e+00 0 0 0
140 2 2.4610000000000003e+00 8.5251540748539991e+00 2.5052607055228702e+00 0 0 0
142 2 3.6915000000000004e+00 9.2355835810918343e+00 2.5052607055228702e+00 0 0 0
109 2 0.0000000000000000e+00 1.1366872099805333e+01 2.5052607055228702e+00 0 0 0
136 2 1.2305000000000001e+00 1.0656442593567498e+01 2.5052607055228702e+00 0 0 0
138 2 2.4610000000000003e+00 1.1366872099805333e+01 2.5052607055228702e+00 0 0 0
173 2 3.6914999999999996e+00 1.0656442593567499e+01 2.5052607055228702e+00 0 0 0
177 2 4.9220000000000006e+00 8.5251540748539991e+00 2.5052607055228702e+00 0 0 0
179 2 6.1524999999999999e+00 9.2355835810918343e+00 2.5052607055228702e+00 0 0 0
222 2 7.3830000000000009e+00 8.5251540748539991e+00 2.5052607055228702e+00 0 0 0
175 2 4.9220000000000006e+00 1.1366872099805333e+01 2.5052607055228702e+00 0 0 0
218 2 6.1524999999999999e+00 1.0656442593567499e+01 2.5052607055228702e+00 0 0 0
220 2 7.3829999999999991e+00 1.1366872099805333e+01 2.5052607055228702e+00 0 0 0
224 2 8.6134999999999984e+00 9.2355835810918343e+00 2.5052607055228702e+00 0 0 0
269 2 9.8440000000000012e+00 8.5251540748539956e+00 2.5052607055228702e+00 0 0 0
271 2 1.1074500000000002e+01 9.2355835810918343e+00 2.5052607055228702e+00 0 0 0
265 2 8.6134999999999984e+00 1.0656442593567498e+01 2.5052607055228702e+00 0 0 0
267 2 9.8440000000000012e+00 1.1366872099805333e+01 2.5052607055228702e+00 0 0 0
312 2 1.1074500000000002e+01 1.0656442593567498e+01 2.5052607055228702e+00 0 0 0
314 2 1.2304999999999998e+01 1.1366872099805333e+01 2.5052607055228702e+00 0 0 0
92 2 0.0000000000000000e+00 1.4208590124756650e+00 5.6757822712221984e+00 0 0 0
94 2 0.0000000000000000e+00 0.0000000000000000e+00 5.6757822712221984e+00 0 0 0
103 2 1.2305000000000001e+00 2.1312885187134998e+00 5.6757822712221984e+00 0 0 0
105 2 2.4610000000000003e+00 1.4208590124756650e+00 5.6757822712221984e+00 0 0 0
107 2 2.4610000000000003e+00 0.0000000000000000e+00 5.6757822712221984e+00 0 0 0
124 2 3.6914999999999996e+00 2.1312885187134998e+00 5.6757822712221984e+00 0 0 0
420 2 0.0000000000000000e+00 2.8417180249513345e+00 8.8463038369125133e+00 0 0 0
421 2 0.0000000000000000e+00 0.0000000000000000e+00 8.8463038369125133e+00 0 0 0
422 2 1.2305000000000001e+00 7.1042950623783474e-01 8.8463038369125133e+00 0 0 0
426 2 1.2305000000000001e+00 2.1312885187134998e+00 8.8463038369125133e+00 0 0 0
427 2 2.4610000000000003e+00 2.8417180249513345e+00 8.8463038369125133e+00 0 0 0
428 2 2.4610000000000003e+00 0.0000000000000000e+00 8.8463038369125133e+00 0 0 0
429 2 3.6915000000000004e+00 7.1042950623783474e-01 8.8463038369125133e+00 0 0 0
437 2 3.6914999999999996e+00 2.1312885187134998e+00 8.8463038369125133e+00 0 0 0
101 2 1.2305000000000001e+00 3.5521475311891644e+00 5.6757822712221984e+00 0 0 0
122 2 3.6914999999999996e+00 3.5521475311891644e+00 5.6757822712221984e+00 0 0 0
126 2 4.9220000000000006e+00 1.4208590124756650e+00 5.6757822712221984e+00 0 0 0
128 2 4.9220000000000006e+00 0.0000000000000000e+00 5.6757822712221984e+00 0 0 0
153 2 6.1524999999999999e+00 2.1312885187134989e+00 5.6757822712221984e+00 0 0 0
155 2 7.3829999999999991e+00 1.4208590124756659e+00 5.6757822712221984e+00 0 0 0
157 2 7.3829999999999991e+00 0.0000000000000000e+00 5.6757822712221984e+00 0 0 0
438 2 4.9220000000000006e+00 2.8417180249513332e+00 8.8463038369125133e+00 0 0 0
439 2 4.9220000000000006e+00 0.0000000000000000e+00 8.8463038369125133e+00 0 0 0
440 2 6.1524999999999999e+00 7.1042950623783407e-01 8.8463038369125133e+00 0 0 0
452 2 6.1524999999999999e+00 2.1312885187134989e+00 8.8463038369125133e+00 0 0 0
453 2 7.3829999999999991e+00 2.8417180249513345e+00 8.8463038369125133e+00 0 0 0
454 2 7.3829999999999991e+00 0.0000000000000000e+00 8.8463038369125133e+00 0 0 0
151 2 6.1524999999999999e+00 3.5521475311891644e+00 5.6757822712221984e+00 0 0 0
190 2 8.6134999999999984e+00 2.1312885187135002e+00 5.6757822712221984e+00 0 0 0
192 2 9.8440000000000012e+00 1.4208590124756659e+00 5.6757822712221984e+00 0 0 0
194 2 9.8440000000000012e+00 0.0000000000000000e+00 5.6757822712221984e+00 0 0 0
235 2 1.1074500000000002e+01 2.1312885187135002e+00 5.6757822712221984e+00 0 0 0
455 2 8.6134999999999984e+00 7.1042950623783407e-01 8.8463038369125133e+00 0 0 0
471 2 8.6134999999999984e+00 2.1312885187135002e+00 8.8463038369125133e+00 0 0 0
472 2 9.8440000000000012e+00 2.8417180249513332e+00 8.8463038369125133e+00 0 0 0
473 2 9.8440000000000012e+00 0.0000000000000000e+00 8.8463038369125133e+00 0 0 0
474 2 1.1074500000000002e+01 7.1042950623783330e-01 8.8463038369125133e+00 0 0 0
494 2 1.1074500000000002e+01 2.1312885187135002e+00 8.8463038369125133e+00 0 0 0
188 2 8.6134999999999984e+00 3.5521475311891657e+00 5.6757822712221984e+00 0 0 0
233 2 1.1074500000000002e+01 3.5521475311891644e+00 5.6757822712221984e+00 0 0 0
97 2 0.0000000000000000e+00 5.6834360499026637e+00 5.6757822712221984e+00 0 0 0
99 2 0.0000000000000000e+00 4.2625770374269996e+00 5.6757822712221984e+00 0 0 0
116 2 1.2305000000000001e+00 6.3938655561404980e+00 5.6757822712221984e+00 0 0 0
118 2 2.4610000000000003e+00 5.6834360499026637e+00 5.6757822712221984e+00 0 0 0
120 2 2.4610000000000003e+00 4.2625770374269996e+00 5.6757822712221984e+00 0 0 0
145 2 3.6914999999999996e+00 6.3938655561404980e+00 5.6757822712221984e+00 0 0 0
424 2 0.0000000000000000e+00 4.2625770374269996e+00 8.8463038369125133e+00 0 0 0
425 2 1.2305000000000001e+00 4.9730065436648339e+00 8.8463038369125133e+00 0 0 0
433 2 1.2305000000000001e+00 6.3938655561404980e+00 8.8463038369125133e+00 0 0 0
435 2 2.4610000000000003e+00 4.2625770374269996e+00 8.8463038369125133e+00 0 0 0
436 2 3.6914999999999996e+00 4.9730065436648339e+00 8.8463038369125133e+00 0 0 0
448 2 3.6914999999999996e+00 6.3938655561404980e+00 8.8463038369125133e+00 0 0 0
114 2 1.2305000000000001e+00 7.8147245686161639e+00 5.6757822712221984e+00 0 0 0
143 2 3.6914999999999996e+00 7.8147245686161639e+00 5.6757822712221984e+00 0 0 0
423 2 0.0000000000000000e+00 7.1042950623783341e+00 8.8463038369125133e+00 0 0 0
434 2 2.4610000000000003e+00 7.1042950623783341e+00 8.8463038369125133e+00 0 0 0
147 2 4.9220000000000006e+00 5.6834360499026637e+00 5.6757822712221984e+00 0 0 0
149 2 4.9220000000000006e+00 4.2625770374269978e+00 5.6757822712221984e+00 0 0 0
182 2 6.1524999999999999e+00 6.3938655561404980e+00 5.6757822712221984e+00 0 0 0
184 2 7.3829999999999991e+00 5.6834360499026637e+00 5.6757822712221984e+00 0 0 0
186 2 7.3829999999999991e+00 4.2625770374269996e+00 5.6757822712221984e+00 0 0 0
450 2 4.9220000000000006e+00 4.2625770374269978e+00 8.8463038369125133e+00 0 0 0
451 2 6.1524999999999999e+00 4.9730065436648339e+00 8.8463038369125133e+00 0 0 0
467 2 6.1524999999999999e+00 6.3938655561404980e+00 8.8463038369125133e+00 0 0 0
469 2 7.3829999999999991e+00 4.2625770374269996e+00 8.8463038369125133e+00 0 0 0
180 2 6.1524999999999999e+00 7.8147245686161639e+00 5.6757822712221984e+00 0 0 0
449 2 4.9220000000000006e+00 7.1042950623783341e+00 8.8463038369125133e+00 0 0 0
468 2 7.3830000000000009e+00 7.1042950623783341e+00 8.8463038369125133e+00 0 0 0
227 2 8.6135000000000002e+00 6.3938655561404980e+00 5.6757822712221984e+00 0 0 0
229 2 9.8440000000000012e+00 5.6834360499026637e+00 5.6757822712221984e+00 0 0 0
231 2 9.8440000000000012e+00 4.2625770374270004e+00 5.6757822712221984e+00 0 0 0
274 2 1.1074500000000002e+01 6.3938655561404980e+00 5.6757822712221984e+00 0 0 0
470 2 8.6135000000000002e+00 4.9730065436648339e+00 8.8463038369125133e+00 0 0 0
490 2 8.6135000000000002e+00 6.3938655561404980e+00 8.8463038369125133e+00 0 0 0
492 2 9.8440000000000012e+00 4.2625770374270004e+00 8.8463038369125133e+00 0 0 0
493 2 1.1074500000000002e+01 4.9730065436648339e+00 8.8463038369125133e+00 0 0 0
514 2 1.1074500000000002e+01 6.3938655561404980e+00 8.8463038369125133e+00 0 0 0
225 2 8.6135000000000002e+00 7.8147245686161639e+00 5.6757822712221984e+00 0 0 0
272 2 1.1074500000000002e+01 7.8147245686161639e+00 5.6757822712221984e+00 0 0 0
491 2 9.8440000000000012e+00 7.1042950623783341e+00 8.8463038369125133e+00 0 0 0
110 2 0.0000000000000000e+00 9.9460130873296642e+00 5.6757822712221984e+00 0 0 0
112 2 0.0000000000000000e+00 8.5251540748539991e+00 5.6757822712221984e+00 0 0 0
139 2 2.4610000000000003e+00 9.9460130873296642e+00 5.6757822712221984e+00 0 0 0
141 2 2.4610000000000003e+00 8.5251540748539991e+00 5.6757822712221984e+00 0 0 0
431 2 0.0000000000000000e+00 8.5251540748539991e+00 8.8463038369125133e+00 0 0 0
432 2 1.2305000000000001e+00 9.2355835810918343e+00 8.8463038369125133e+00 0 0 0
446 2 2.4610000000000003e+00 8.5251540748539991e+00 8.8463038369125133e+00 0 0 0
447 2 3.6915000000000004e+00 9.2355835810918343e+00 8.8463038369125133e+00 0 0 0
135 2 1.2305000000000001e+00 1.2077301606043163e+01 5.6757822712221984e+00 0 0 0
137 2 1.2305000000000001e+00 1.0656442593567498e+01 5.6757822712221984e+00 0 0 0
172 2 3.6914999999999996e+00 1.2077301606043163e+01 5.6757822712221984e+00 0 0 0
174 2 3.6914999999999996e+00 1.0656442593567499e+01 5.6757822712221984e+00 0 0 0
430 2 0.0000000000000000e+00 1.1366872099805333e+01 8.8463038369125133e+00 0 0 0
444 2 1.2305000000000001e+00 1.0656442593567498e+01 8.8463038369125133e+00 0 0 0
445 2 2.4610000000000003e+00 1.1366872099805333e+01 8.8463038369125133e+00 0 0 0
463 2 3.6914999999999996e+00 1.0656442593567499e+01 8.8463038369125133e+00 0 0 0
176 2 4.9220000000000006e+00 9.9460130873296642e+00 5.6757822712221984e+00 0 0 0
178 2 4.9220000000000006e+00 8.5251540748539991e+00 5.6757822712221984e+00 0 0 0
221 2 7.3830000000000009e+00 9.9460130873296642e+00 5.6757822712221984e+00 0 0 0
223 2 7.3830000000000009e+00 8.5251540748539991e+00 5.6757822712221984e+00 0 0 0
465 2 4.9220000000000006e+00 8.5251540748539991e+00 8.8463038369125133e+00 0 0 0
466 2 6.1524999999999999e+00 9.2355835810918343e+00 8.8463038369125133e+00 0 0 0
488 2 7.3830000000000009e+00 8.5251540748539991e+00 8.8463038369125133e+00 0 0 0
217 2 6.1524999999999999e+00 1.2077301606043163e+01 5.6757822712221984e+00 0 0 0
219 2 6.1524999999999999e+00 1.0656442593567499e+01 5.6757822712221984e+00 0 0 0
464 2 4.9220000000000006e+00 1.1366872099805333e+01 8.8463038369125133e+00 0 0 0
486 2 6.1524999999999999e+00 1.0656442593567499e+01 8.8463038369125133e+00 0 0 0
487 2 7.3829999999999991e+00 1.1366872099805333e+01 8.8463038369125133e+00 0 0 0
268 2 9.8440000000000012e+00 9.9460130873296642e+00 5.6757822712221984e+00 0 0 0
270 2 9.8440000000000012e+00 8.5251540748539956e+00 5.6757822712221984e+00 0 0 0
489 2 8.6134999999999984e+00 9.2355835810918343e+00 8.8463038369125133e+00 0 0 0
512 2 9.8440000000000012e+00 8.5251540748539956e+00 8.8463038369125133e+00 0 0 0
513 2 1.1074500000000002e+01 9.2355835810918343e+00 8.8463038369125133e+00 0 0 0
264 2 8.6135000000000002e+00 1.2077301606043163e+01 5.6757822712221984e+00 0 0 0
266 2 8.6134999999999984e+00 1.0656442593567498e+01 5.6757822712221984e+00 0 0 0
311 2 1.1074500000000002e+01 1.2077301606043163e+01 5.6757822712221984e+00 0 0 0
313 2 1.1074500000000002e+01 1.0656442593567498e+01 5.6757822712221984e+00 0 0 0
510 2 8.6134999999999984e+00 1.0656442593567498e+01 8.8463038369125133e+00 0 0 0
511 2 9.8440000000000012e+00 1.1366872099805333e+01 8.8463038369125133e+00 0 0 0
534 2 1.1074500000000002e+01 1.0656442593567498e+01 8.8463038369125133e+00 0 0 0
535 2 1.2304999999999998e+01 1.1366872099805333e+01 8.8463038369125133e+00 0 0 0
3866 1 1.9103767850274753e+00 2.1920308534889954e+00 1.1572463846341249e+01 0 -2 0
1616 1 6.3259965879772864e+00 1.1192830123047118e+01 1.4445364336045232e+01 1 -5 0
1508 1 4.6627040125044292e+00 1.7456745903993756e+00 1.1061344222752322e+01 2 -1 1
3057 1 8.9873957018729715e+00 3.3887430798604514e+00 1.1434154412108459e+01 -4 0 1
4494 1 1.0007684856001415e+01 7.4287011200137076e-01 1.1418475242769611e+01 -2 2 -1
2208 1 2.8938296042244533e+00 7.1267457259070843e+00 1.1372148334031348e+01 0 2 0
674 1 1.2067405202137813e+00 4.8287510867705805e+00 1.1710469708414550e+01 2 3 0
2129 1 6.4156746181747071e+00 3.9303400408101030e+00 1.1392244685870127e+01 -2 1 0
821 1 5.6458247615577326e+00 6.6724461151996310e+00 1.1452757619505151e+01 3 1 0
2997 1 1.0629589052292372e+01 5.4151824192468281e+00 1.1662320693484981e+01 -2 -1 -1
1497 1 1.0057653367041290e+01 8.3265984663559944e+00 1.1560562194607334e+01 -2 -2 0
4484 1 1.8093256578176111e+00 9.7006399468049924e+00 1.1723386395703892e+01 1 0 0
616 1 3.5675967841211356e+00 1.1776445842467691e+01 1.1521158634751796e+01 0 -1 0
681 1 7.5080083362435444e+00 8.6463778339768211e+00 1.1644492519022032e+01 1 -1 -1
2352 1 6.4386627446016602e+00 1.1487511038143618e+01 1.1650235948862017e+01 0 1 0
3797 1 1.1935628343891818e+01 1.0487276956379270e+01 1.1626901281667678e+01 -1 0 1
1504 1 1.9491474892794496e+00 2.1345292087772831e+00 1.4351770957140417e+01 0 1 0
1394 1 1.1742269297996289e+01 1.0454385845629750e+01 1.4693951636475138e+01 -1 2 0
2338 1 4.6532958947590455e+00 1.4312472227444195e+00 1.4963612077093233e+01 -6 1 0
814 1 6.7733398906688027e+00 3.5306379621635258e+00 1.4107488212116682e+01 -1 1 -1
90 1 9.2496129333188968e+00 3.2324823155911560e+00 1.4885998422357524e+01 -4 6 -1
2254 1 7.0445612251359178e+00 8.5336844805067624e+00 1.4122100578435909e+01 -1 0 0
1642 1 1.4655149309480970e+00 4.6873064181595927e+00 1.5246217660823669e+01 0 1 1
3048 1 2.8405769676963972e+00 6.6821754297667519e+00 1.4104901633534315e+01 3 -8 0
1605 1 5.5793987221539094e+00 6.2512697740424530e+00 1.4184281124256742e+01 -3 1 0
577 1 9.8669462748560104e+00 8.2660396291100398e+00 1.4756140616558701e+01 -1 -5 -1
2287 1 1.0906776456982310e+01 5.7392994534532020e+00 1.4577255917204090e+01 0 1 0
676 1 3.5584530111961308e+00 1.1602084770753363e+01 1.4269904113832553e+01 2 3 0
3611 1 1.6942143953869531e+00 9.3919962271916422e+00 1.4794291225528630e+01 3 -3 0
2345 1 9.9919136392191152e+00 4.9777155289934422e-01 1.4103808114630736e+01 4 -1 -1
3689 1 6.8145014153433592e-01 7.1556772715051871e+00 1.8470337227538824e+01 3 3 -1
1456 1 7.2906283480392071e+00 8.5744329846915655e+00 3.1788660592622023e+01 2 3 0
677 1 7.3939803534549373e+00 1.0138709487792263e+00 1.8239061249528508e+01 1 1 -1
2140 1 4.8845692731757229e+00 1.6163964112557787e+00 1.7493674598884148e+01 4 0 0
2283 1 9.1152178550820082e+00 3.1101680933999449e+00 1.7695776701338591e+01 -2 3 -1
3023 1 5.8320841085433539e-01 7.3680640928599797e+00 2.1090670910577998e+01 1 1 0
722 1 4.1653471402032238e+00 4.2107588433596996e+00 1.8346872674483901e+01 1 1 0
2262 1 1.4536909033995440e+00 4.7366883371643178e+00 1.8056977331689740e+01 -4 -2 0
4383 1 1.1787488059764192e+01 3.3023114157272233e+00 2.8691856563442375e+01 1 -5 0
839 1 5.6683163553539888e+00 6.0899445204333222e+00 1.7177055464054106e+01 0 4 0
2395 1 8.3343365953964899e+00 5.6367536399534357e+00 1.8324483928581845e+01 -2 -1 0
4482 1 9.9881031020816682e+00 7.4630814774479655e+00 1.7426084425676571e+01 -1 -5 0
824 1 1.3803546603195038e+00 1.1533199193962037e+01 1.8506248464823567e+01 -1 0 0
2246 1 2.2241761398950612e+00 9.1046849716467690e+00 1.7436401692205120e+01 0 5 0
1501 1 5.0373292783259904e+00 8.4599531180933489e+00 1.8379925048728815e+01 3 2 -1
2136 1 6.7149938706057144e+00 1.0363803409641680e+01 1.7174843800511880e+01 2 4 0
3641 1 9.1588812090456582e+00 9.6966557522676649e+00 1.8431639227483224e+01 2 -2 0
30 1 9.0794067634238296e+00 1.1074686307740292e+01 3.1810701235778058e+01 0 0 0
2279 1 1.1895235431066592e+01 2.5817765885080344e+00 1.8349892054289647e+01 2 2 0
700 1 4.5512173331357522e+00 8.9695056026377067e+00 3.2045550339953124e+01 0 1 0
15 1 7.7454746950751705e+00 1.2753344513391085e+00 2.0820495246595065e+01 -1 1 -1
3696 1 4.9598194513772142e+00 1.8790963415481978e+00 2.1714289585812271e+01 -6 2 -1
2950 1 9.3057605615598522e+00 3.3845361292518490e+00 2.1929071921244145e+01 -2 3 -1
2902 1 1.1845136740428165e+01 9.5041312061466812e+00 2.6033504861393261e+01 1 4 -1
3674 1 8.9376734294519427e+00 3.5289787931713086e+00 2.4492082032409346e+01 1 -1 0
875 1 1.0864477894643958e+01 1.1677995238094701e+01 1.7453523368678336e+01 4 0 0
4416 1 1.5946248123318212e+00 4.8543035623977140e+00 2.1815827236561923e+01 4 -1 -1
2297 1 4.2010937854348134e+00 4.3709588877446954e+00 2.1138773242286639e+01 0 3 -1
3613 1 5.7058359466364186e+00 6.1883969596067532e+00 2.2194365062577663e+01 -1 -2 -1
1573 1 8.1381093505696391e+00 6.0086633398403704e+00 2.0989446089379840e+01 -2 1 0
1442 1 5.6861215689666142e+00 6.6745477761364995e+00 2.4927687409544777e+01 1 5 -1
2893 1 9.9932105698388671e+00 7.7062956985972706e+00 2.1967825685744277e+01 -2 -2 0
2150 1 2.2641722461229077e+00 9.0613130194779608e+00 2.1974273350534006e+01 1 -6 0
3116 1 2.3930684466950689e+00 9.3376959507712094e+00 2.4681104862935747e+01 -1 0 0
3678 1 1.3253767111431811e+00 1.1406058447797125e+01 2.1174856406846658e+01 1 0 0
3106 1 4.8058794013937991e+00 8.6088430910082945e+00 2.1183914691155362e+01 2 2 0
1581 1 6.6405966995023036e+00 1.0531747332676423e+01 2.2338614143411370e+01 -1 3 1
3846 1 9.2074931368939144e+00 1.0281745556678157e+01 2.1073914806772848e+01 0 -1 1
4442 1 9.0604250892582936e+00 1.1152693222380405e+01 2.9111857681600913e+01 1 0 0
2249 1 2.3592422830987894e+00 2.3035967623577971e+00 2.5438369536624375e+01 4 -3 -2
1546 1 2.5119935994402645e+00 2.1527343301996780e+00 2.8261418240395749e+01 2 1 1
694 1 6.3810399142486296e-01 2.7924186869343343e-01 2.4719171913437354e+01 -3 -1 0
3616 1 4.9157598011340076e+00 1.8075481541663148e+00 2.4415226831655886e+01 1 4 0
1607 1 6.4629994347018949e+00 4.0071792297054385e+00 2.4997852829972292e+01 -2 2 0
2120 1 7.0612507680994243e+00 3.9362570831765762e+00 2.7922123793272799e+01 0 5 0
3870 1 1.1116486360527041e+01 1.1954069689100537e+01 2.4516894573215438e+01 1 2 0
1359 1 1.0420270448089473e+01 1.3140217559692264e+00 2.5203657191196235e+01 1 1 0
4334 1 1.0384433652141121e+01 1.0070328840059406e+00 2.7883354433603536e+01 1 1 0
2886 1 1.5077175408684125e+00 5.0072737379881804e+00 2.4684325885416580e+01 3 1 0
2843 1 3.0509370310736723e+00 6.9313236368210411e+00 2.5842169020652427e+01 -3 1 0
637 1 3.2096857208673306e+00 6.6411486197994209e+00 2.8633928534486934e+01 2 -1 0
611 1 7.5168565625227970e+00 8.2287337886563545e+00 2.6071676840471401e+01 3 5 0
3778 1 9.9666757787147748e+00 7.8214815400752853e+00 2.4841343371049671e+01 3 0 -1
4391 1 1.0932313599775624e+01 5.4250909843306427e+00 2.5522554604905043e+01 5 1 0
862 1 1.0886974518748028e+01 5.7884566303845322e+00 2.8135856790752744e+01 1 1 0
4427 1 4.2302134161877110e+00 1.1064966796779371e+01 2.5750163163499373e+01 0 3 -1
4457 1 2.8641954655086782e-01 7.2263474161841552e+00 3.1873492120363604e+01 3 -2 0
3653 1 6.7550772434319324e+00 1.0709851138040223e+01 2.5071932134132119e+01 3 4 -1
3691 1 7.1850947314902553e+00 9.1205648886701738e+00 2.8876947077935085e+01 -4 -1 0
1576 1 4.5247116292202323e+00 8.9599551995457531e+00 2.9170410557846360e+01 1 3 0
1622 1 1.1928912041677199e+01 3.0634596813430783e+00 2.1034490792876579e+01 0 0 1
3758 1 6.4272467212643247e-01 2.4859003493077375e-01 1.7749903534143289e+01 2 3 0
1511 1 2.0824891786095385e+00 2.3937622913350318e+00 3.2034243987010619e+01 4 -2 -1
587 1 4.5232316064374700e+00 4.1249912423974493e+00 2.8935103584792177e+01 -3 -1 -1
1386 1 4.1873799370086928e+00 4.1097900719245635e+00 3.1618125461461947e+01 3 1 0
2138 1 7.8308216675272346e+00 1.4545287975714289e+00 2.8540724872821261e+01 -4 -1 0
2330 1 7.6079599193035232e+00 1.2809992394169081e+00 3.1305969064001815e+01 3 3 0
3646 1 6.6658176450196338e+00 3.8255369842931515e+00 3.2304473021304034e+01 1 0 1
1596 1 1.0191014481315328e+01 1.1261886582335086e+00 3.1649002853615659e+01 -3 -5 0
1531 1 6.8727219517045413e-01 7.2247673781479218e+00 2.9197973755351828e+01 4 -3 0
635 1 3.1030842045001381e+00 6.6298686745938271e+00 3.1744343049784817e+01 -2 -2 0
695 1 1.1670334536710973e+01 1.0274521254576243e+01 2.8674312174904877e+01 -3 -1 -1
806 1 3.8347824326208886e+00 1.1603764944312863e+01 2.8655284268528163e+01 5 -1 1
2889 1 8.3908381450216840e+00 5.9945466673911740e+00 3.1648160319724909e+01 0 4 0
3039 1 8.4275662425336435e+00 6.4174094493482050e+00 2.9076049137180327e+01 4 1 0
728 1 1.1167183836193331e+01 5.9051300254044987e+00 3.1693678456706195e+01 5 -3 0
1510 1 1.1636082000418599e+01 1.0579249911085336e+01 3.1801665678912990e+01 1 1 0
607 1 3.7283588060407711e+00 1.1806002485587568e+01 3.1748682144162007e+01 1 -2 -1
2402 1 6.0747486556208663e-01 4.5852518353566452e-01 2.1916076915107642e+01 3 0 0
3860 1 1.1919889348286308e+01 3.1928990651060078e+00 3.1436906617639032e+01 4 -1 0
4523 1 1.1235268146673178e+01 1.1734076150536414e+01 2.1894931512218232e+01 0 0 0
808 1 1.2550783688721641e+00 1.1996011613132410e+01 2.8647721609669453e+01 1 -1 0
3154 1 1.1146722430908951e+00 1.2203974680692431e+01 3.1615401146710727e+01 3 1 1
132 2 0.0000000000000000e+00 1.2787731112280996e+01 2.5052607055228702e+00 0 0 0
134 2 1.2305000000000001e+00 1.3498160618518829e+01 2.5052607055228702e+00 0 0 0
169 2 2.4610000000000003e+00 1.2787731112280996e+01 2.5052607055228702e+00 0 0 0
171 2 3.6915000000000004e+00 1.3498160618518829e+01 2.5052607055228702e+00 0 0 0
130 2 0.0000000000000000e+00 1.5629449137232333e+01 2.5052607055228702e+00 0 0 0
165 2 1.2305000000000001e+00 1.4919019630994494e+01 2.5052607055228702e+00 0 0 0
167 2 2.4610000000000003e+00 1.5629449137232328e+01 2.5052607055228702e+00 0 0 0
210 2 3.6915000000000004e+00 1.4919019630994494e+01 2.5052607055228702e+00 0 0 0
214 2 4.9220000000000006e+00 1.2787731112280996e+01 2.5052607055228702e+00 0 0 0
216 2 6.1524999999999990e+00 1.3498160618518829e+01 2.5052607055228702e+00 0 0 0
261 2 7.3829999999999991e+00 1.2787731112280996e+01 2.5052607055228702e+00 0 0 0
212 2 4.9220000000000006e+00 1.5629449137232333e+01 2.5052607055228702e+00 0 0 0
257 2 6.1524999999999990e+00 1.4919019630994494e+01 2.5052607055228702e+00 0 0 0
259 2 7.3829999999999991e+00 1.5629449137232333e+01 2.5052607055228702e+00 0 0 0
263 2 8.6135000000000002e+00 1.3498160618518835e+01 2.5052607055228702e+00 0 0 0
308 2 9.8440000000000012e+00 1.2787731112280996e+01 2.5052607055228702e+00 0 0 0
310 2 1.1074500000000002e+01 1.3498160618518829e+01 2.5052607055228702e+00 0 0 0
304 2 8.6135000000000002e+00 1.4919019630994494e+01 2.5052607055228702e+00 0 0 0
306 2 9.8440000000000012e+00 1.5629449137232328e+01 2.5052607055228702e+00 0 0 0
346 2 1.1074500000000002e+01 1.4919019630994494e+01 2.5052607055228702e+00 0 0 0
161 2 0.0000000000000000e+00 1.7050308149707998e+01 2.5052607055228702e+00 0 0 0
206 2 2.4610000000000003e+00 1.7050308149707998e+01 2.5052607055228702e+00 0 0 0
159 2 0.0000000000000000e+00 1.9892026174659328e+01 2.5052607055228702e+00 0 0 0
163 2 1.2305000000000001e+00 1.7760737655945832e+01 2.5052607055228702e+00 0 0 0
202 2 1.2305000000000001e+00 1.9181596668421495e+01 2.5052607055228702e+00 0 0 0
204 2 2.4610000000000003e+00 1.9892026174659328e+01 2.5052607055228702e+00 0 0 0
208 2 3.6914999999999996e+00 1.7760737655945832e+01 2.5052607055228702e+00 0 0 0
249 2 3.6914999999999996e+00 1.9181596668421495e+01 2.5052607055228702e+00 0 0 0
253 2 4.9220000000000006e+00 1.7050308149707998e+01 2.5052607055228702e+00 0 0 0
300 2 7.3830000000000009e+00 1.7050308149707998e+01 2.5052607055228702e+00 0 0 0
251 2 4.9220000000000006e+00 1.9892026174659328e+01 2.5052607055228702e+00 0 0 0
255 2 6.1524999999999999e+00 1.7760737655945832e+01 2.5052607055228702e+00 0 0 0
296 2 6.1524999999999999e+00 1.9181596668421495e+01 2.5052607055228702e+00 0 0 0
298 2 7.3829999999999991e+00 1.9892026174659328e+01 2.5052607055228702e+00 0 0 0
342 2 9.8440000000000012e+00 1.7050308149707998e+01 2.5052607055228702e+00 0 0 0
376 2 1.2304999999999998e+01 1.7050308149707998e+01 2.5052607055228702e+00 0 0 0
302 2 8.6134999999999984e+00 1.7760737655945832e+01 2.5052607055228702e+00 0 0 0
338 2 8.6135000000000002e+00 1.9181596668421495e+01 2.5052607055228702e+00 0 0 0
340 2 9.8440000000000012e+00 1.9892026174659335e+01 2.5052607055228702e+00 0 0 0
344 2 1.1074500000000002e+01 1.7760737655945835e+01 2.5052607055228702e+00 0 0 0
372 2 1.1074500000000002e+01 1.9181596668421495e+01 2.5052607055228702e+00 0 0 0
196 2 0.0000000000000000e+00 2.4154603212086325e+01 2.5052607055228702e+00 0 0 0
198 2 0.0000000000000000e+00 2.1312885187134999e+01 2.5052607055228702e+00 0 0 0
200 2 1.2304999999999993e+00 2.2023314693372832e+01 2.5052607055228702e+00 0 0 0
241 2 1.2304999999999993e+00 2.3444173705848499e+01 2.5052607055228702e+00 0 0 0
243 2 2.4610000000000003e+00 2.4154603212086325e+01 2.5052607055228702e+00 0 0 0
245 2 2.4610000000000003e+00 2.1312885187134995e+01 2.5052607055228702e+00 0 0 0
247 2 3.6914999999999996e+00 2.2023314693372832e+01 2.5052607055228702e+00 0 0 0
288 2 3.6915000000000004e+00 2.3444173705848499e+01 2.5052607055228702e+00 0 0 0
290 2 4.9220000000000006e+00 2.4154603212086325e+01 2.5052607055228702e+00 0 0 0
292 2 4.9220000000000006e+00 2.1312885187134995e+01 2.5052607055228702e+00 0 0 0
294 2 6.1524999999999990e+00 2.2023314693372832e+01 2.5052607055228702e+00 0 0 0
330 2 6.1524999999999999e+00 2.3444173705848499e+01 2.5052607055228702e+00 0 0 0
332 2 7.3830000000000009e+00 2.4154603212086336e+01 2.5052607055228702e+00 0 0 0
334 2 7.3829999999999991e+00 2.1312885187134999e+01 2.5052607055228702e+00 0 0 0
336 2 8.6135000000000002e+00 2.2023314693372832e+01 2.5052607055228702e+00 0 0 0
364 2 8.6134999999999984e+00 2.3444173705848499e+01 2.5052607055228702e+00 0 0 0
366 2 9.8440000000000012e+00 2.4154603212086336e+01 2.5052607055228702e+00 0 0 0
368 2 9.8440000000000012e+00 2.1312885187134999e+01 2.5052607055228702e+00 0 0 0
370 2 1.1074500000000002e+01 2.2023314693372832e+01 2.5052607055228702e+00 0 0 0
390 2 1.1074500000000002e+01 2.3444173705848499e+01 2.5052607055228702e+00 0 0 0
133 2 0.0000000000000000e+00 1.2787731112280996e+01 5.6757822712221984e+00 0 0 0
170 2 2.4610000000000003e+00 1.2787731112280996e+01 5.6757822712221984e+00 0 0 0
442 2 0.0000000000000000e+00 1.2787731112280996e+01 8.8463038369125133e+00 0 0 0
443 2 1.2305000000000001e+00 1.3498160618518829e+01 8.8463038369125133e+00 0 0 0
461 2 2.4610000000000003e+00 1.2787731112280996e+01 8.8463038369125133e+00 0 0 0
462 2 3.6915000000000004e+00 1.3498160618518829e+01 8.8463038369125133e+00 0 0 0
131 2 0.0000000000000000e+00 1.4208590124756663e+01 5.6757822712221984e+00 0 0 0
166 2 1.2305000000000001e+00 1.4919019630994494e+01 5.6757822712221984e+00 0 0 0