LAMMPS data file via write_data, version 16 Mar 2018, timestep = 100000

4545 atoms
2 atom types

0.0000000000000000e+00 4.9219999999999999e+01 xlo xhi
0.0000000000000000e+00 4.9019635930410494e+01 ylo yhi
1.7518637851264867e+00 3.1883476001396232e+01 zlo zhi

Masses

1 18.015
2 12.01

Atoms # atomic

91 2 0.0000000000000000e+00 2.8417180249513345e+00 3.2541739745700511e+00 0 0 0
93 2 0.0000000000000000e+00 0.0000000000000000e+00 3.2541739745700511e+00 0 0 0
95 2 1.2305000000000001e+00 7.1042950623783474e-01 3.2541739745700511e+00 0 0 0
102 2 1.2305000000000001e+00 2.1312885187134998e+00 3.2541739745700511e+00 0 0 0
104 2 2.4610000000000003e+00 2.8417180249513345e+00 3.2541739745700511e+00 0 0 0
106 2 2.4610000000000003e+00 0.0000000000000000e+00 3.2541739745700511e+00 0 0 0
108 2 3.6915000000000004e+00 7.1042950623783474e-01 3.2541739745700511e+00 0 0 0
123 2 3.6914999999999996e+00 2.1312885187134998e+00 3.2541739745700511e+00 0 0 0
125 2 4.9220000000000006e+00 2.8417180249513332e+00 3.2541739745700511e+00 0 0 0
127 2 4.9220000000000006e+00 0.0000000000000000e+00 3.2541739745700511e+00 0 0 0
129 2 6.1524999999999999e+00 7.1042950623783407e-01 3.2541739745700511e+00 0 0 0
152 2 6.1524999999999999e+00 2.1312885187134989e+00 3.2541739745700511e+00 0 0 0
154 2 7.3829999999999991e+00 2.8417180249513345e+00 3.2541739745700511e+00 0 0 0
156 2 7.3829999999999991e+00 0.0000000000000000e+00 3.2541739745700511e+00 0 0 0
158 2 8.6134999999999984e+00 7.1042950623783407e-01 3.2541739745700511e+00 0 0 0
189 2 8.6134999999999984e+00 2.1312885187135002e+00 3.2541739745700511e+00 0 0 0
191 2 9.8440000000000012e+00 2.8417180249513332e+00 3.2541739745700511e+00 0 0 0
193 2 9.8440000000000012e+00 0.0000000000000000e+00 3.2541739745700511e+00 0 0 0
195 2 1.1074500000000002e+01 7.1042950623783330e-01 3.2541739745700511e+00 0 0 0
234 2 1.1074500000000002e+01 2.1312885187135002e+00 3.2541739745700511e+00 0 0 0
98 2 0.0000000000000000e+00 4.2625770374269996e+00 3.2541739745700511e+00 0 0 0
100 2 1.2305000000000001e+00 4.9730065436648339e+00 3.2541739745700511e+00 0 0 0
115 2 1.2305000000000001e+00 6.3938655561404980e+00 3.2541739745700511e+00 0 0 0
119 2 2.4610000000000003e+00 4.2625770374269996e+00 3.2541739745700511e+00 0 0 0
121 2 3.6914999999999996e+00 4.9730065436648339e+00 3.2541739745700511e+00 0 0 0
144 2 3.6914999999999996e+00 6.3938655561404980e+00 3.2541739745700511e+00 0 0 0
96 2 0.0000000000000000e+00 7.1042950623783341e+00 3.2541739745700511e+00 0 0 0
117 2 2.4610000000000003e+00 7.1042950623783341e+00 3.2541739745700511e+00 0 0 0
148 2 4.9220000000000006e+00 4.2625770374269978e+00 3.2541739745700511e+00 0 0 0
150 2 6.1524999999999999e+00 4.9730065436648339e+00 3.2541739745700511e+00 0 0 0
181 2 6.1524999999999999e+00 6.3938655561404980e+00 3.2541739745700511e+00 0 0 0
185 2 7.3829999999999991e+00 4.2625770374269996e+00 3.2541739745700511e+00 0 0 0
146 2 4.9220000000000006e+00 7.1042950623783341e+00 3.2541739745700511e+00 0 0 0
183 2 7.3830000000000009e+00 7.1042950623783341e+00 3.2541739745700511e+00 0 0 0
187 2 8.6135000000000002e+00 4.9730065436648339e+00 3.2541739745700511e+00 0 0 0
226 2 8.6135000000000002e+00 6.3938655561404980e+00 3.2541739745700511e+00 0 0 0
230 2 9.8440000000000012e+00 4.2625770374270004e+00 3.2541739745700511e+00 0 0 0
232 2 1.1074500000000002e+01 4.9730065436648339e+00 3.2541739745700511e+00 0 0 0
273 2 1.1074500000000002e+01 6.3938655561404980e+00 3.2541739745700511e+00 0 0 0
228 2 9.8440000000000012e+00 7.1042950623783341e+00 3.2541739745700511e+00 0 0 0
111 2 0.0000000000000000e+00 8.5251540748539991e+00 3.2541739745700511e+00 0 0 0
113 2 1.2305000000000001e+00 9.2355835810918343e+00 3.2541739745700511e+00 0 0 0
140 2 2.4610000000000003e+00 8.5251540748539991e+00 3.2541739745700511e+00 0 0 0
142 2 3.6915000000000004e+00 9.2355835810918343e+00 3.2541739745700511e+00 0 0 0
109 2 0.0000000000000000e+00 1.1366872099805333e+01 3.2541739745700511e+00 0 0 0
136 2 1.2305000000000001e+00 1.0656442593567498e+01 3.2541739745700511e+00 0 0 0
138 2 2.4610000000000003e+00 1.1366872099805333e+01 3.2541739745700511e+00 0 0 0
173 2 3.6914999999999996e+00 1.0656442593567499e+01 3.2541739745700511e+00 0 0 0
177 2 4.9220000000000006e+00 8.5251540748539991e+00 3.2541739745700511e+00 0 0 0
179 2 6.1524999999999999e+00 9.2355835810918343e+00 3.2541739745700511e+00 0 0 0
222 2 7.3830000000000009e+00 8.5251540748539991e+00 3.2541739745700511e+00 0 0 0
175 2 4.9220000000000006e+00 1.1366872099805333e+01 3.2541739745700511e+00 0 0 0
218 2 6.1524999999999999e+00 1.0656442593567499e+01 3.2541739745700511e+00 0 0 0
220 2 7.3829999999999991e+00 1.1366872099805333e+01 3.2541739745700511e+00 0 0 0
224 2 8.6134999999999984e+00 9.2355835810918343e+00 3.2541739745700511e+00 0 0 0
269 2 9.8440000000000012e+00 8.5251540748539956e+00 3.2541739745700511e+00 0 0 0
271 2 1.1074500000000002e+01 9.2355835810918343e+00 3.2541739745700511e+00 0 0 0
265 2 8.6134999999999984e+00 1.0656442593567498e+01 3.2541739745700511e+00 0 0 0
267 2 9.8440000000000012e+00 1.1366872099805333e+01 3.2541739745700511e+00 0 0 0
312 2 1.1074500000000002e+01 1.0656442593567498e+01 3.2541739745700511e+00 0 0 0
314 2 1.2304999999999998e+01 1.1366872099805333e+01 3.2541739745700511e+00 0 0 0
92 2 0.0000000000000000e+00 1.4208590124756650e+00 6.2587943534567199e+00 0 0 0
94 2 0.0000000000000000e+00 0.0000000000000000e+00 6.2587943534567199e+00 0 0 0
103 2 1.2305000000000001e+00 2.1312885187134998e+00 6.2587943534567199e+00 0 0 0
105 2 2.4610000000000003e+00 1.4208590124756650e+00 6.2587943534567199e+00 0 0 0
107 2 2.4610000000000003e+00 0.0000000000000000e+00 6.2587943534567199e+00 0 0 0
124 2 3.6914999999999996e+00 2.1312885187134998e+00 6.2587943534567199e+00 0 0 0
420 2 0.0000000000000000e+00 2.8417180249513345e+00 9.2634147323442591e+00 0 0 0
421 2 0.0000000000000000e+00 0.0000000000000000e+00 9.2634147323442591e+00 0 0 0
422 2 1.2305000000000001e+00 7.1042950623783474e-01 9.2634147323442591e+00 0 0 0
426 2 1.2305000000000001e+00 2.1312885187134998e+00 9.2634147323442591e+00 0 0 0
427 2 2.4610000000000003e+00 2.8417180249513345e+00 9.2634147323442591e+00 0 0 0
428 2 2.4610000000000003e+00 0.0000000000000000e+00 9.2634147323442591e+00 0 0 0
429 2 3.6915000000000004e+00 7.1042950623783474e-01 9.2634147323442591e+00 0 0 0
437 2 3.6914999999999996e+00 2.1312885187134998e+00 9.2634147323442591e+00 0 0 0
101 2 1.2305000000000001e+00 3.5521475311891644e+00 6.2587943534567199e+00 0 0 0
122 2 3.6914999999999996e+00 3.5521475311891644e+00 6.2587943534567199e+00 0 0 0
126 2 4.9220000000000006e+00 1.4208590124756650e+00 6.2587943534567199e+00 0 0 0
128 2 4.9220000000000006e+00 0.0000000000000000e+00 6.2587943534567199e+00 0 0 0
153 2 6.1524999999999999e+00 2.1312885187134989e+00 6.2587943534567199e+00 0 0 0
155 2 7.3829999999999991e+00 1.4208590124756659e+00 6.2587943534567199e+00 0 0 0
157 2 7.3829999999999991e+00 0.0000000000000000e+00 6.2587943534567199e+00 0 0 0
438 2 4.9220000000000006e+00 2.8417180249513332e+00 9.2634147323442591e+00 0 0 0
439 2 4.9220000000000006e+00 0.0000000000000000e+00 9.2634147323442591e+00 0 0 0
440 2 6.1524999999999999e+00 7.1042950623783407e-01 9.2634147323442591e+00 0 0 0
452 2 6.1524999999999999e+00 2.1312885187134989e+00 9.2634147323442591e+00 0 0 0
453 2 7.3829999999999991e+00 2.8417180249513345e+00 9.2634147323442591e+00 0 0 0
454 2 7.3829999999999991e+00 0.0000000000000000e+00 9.2634147323442591e+00 0 0 0
151 2 6.1524999999999999e+00 3.5521475311891644e+00 6.2587943534567199e+00 0 0 0
190 2 8.6134999999999984e+00 2.1312885187135002e+00 6.2587943534567199e+00 0 0 0
192 2 9.8440000000000012e+00 1.4208590124756659e+00 6.2587943534567199e+00 0 0 0
194 2 9.8440000000000012e+00 0.0000000000000000e+00 6.2587943534567199e+00 0 0 0
235 2 1.1074500000000002e+01 2.1312885187135002e+00 6.2587943534567199e+00 0 0 0
455 2 8.6134999999999984e+00 7.1042950623783407e-01 9.2634147323442591e+00 0 0 0
471 2 8.6134999999999984e+00 2.1312885187135002e+00 9.2634147323442591e+00 0 0 0
472 2 9.8440000000000012e+00 2.8417180249513332e+00 9.2634147323442591e+00 0 0 0
473 2 9.8440000000000012e+00 0.0000000000000000e+00 9.2634147323442591e+00 0 0 0
474 2 1.1074500000000002e+01 7.1042950623783330e-01 9.2634147323442591e+00 0 0 0
494 2 1.1074500000000002e+01 2.1312885187135002e+00 9.2634147323442591e+00 0 0 0
188 2 8.6134999999999984e+00 3.5521475311891657e+00 6.2587943534567199e+00 0 0 0
233 2 1.1074500000000002e+01 3.5521475311891644e+00 6.2587943534567199e+00 0 0 0
97 2 0.0000000000000000e+00 5.6834360499026637e+00 6.2587943534567199e+00 0 0 0
99 2 0.0000000000000000e+00 4.2625770374269996e+00 6.2587943534567199e+00 0 0 0
116 2 1.2305000000000001e+00 6.3938655561404980e+00 6.2587943534567199e+00 0 0 0
118 2 2.4610000000000003e+00 5.6834360499026637e+00 6.2587943534567199e+00 0 0 0
120 2 2.4610000000000003e+00 4.2625770374269996e+00 6.2587943534567199e+00 0 0 0
145 2 3.6914999999999996e+00 6.3938655561404980e+00 6.2587943534567199e+00 0 0 0
424 2 0.0000000000000000e+00 4.2625770374269996e+00 9.2634147323442591e+00 0 0 0
425 2 1.2305000000000001e+00 4.9730065436648339e+00 9.2634147323442591e+00 0 0 0
433 2 1.2305000000000001e+00 6.3938655561404980e+00 9.2634147323442591e+00 0 0 0
435 2 2.4610000000000003e+00 4.2625770374269996e+00 9.2634147323442591e+00 0 0 0
436 2 3.6914999999999996e+00 4.9730065436648339e+00 9.2634147323442591e+00 0 0 0
448 2 3.6914999999999996e+00 6.3938655561404980e+00 9.2634147323442591e+00 0 0 0
114 2 1.2305000000000001e+00 7.8147245686161639e+00 6.2587943534567199e+00 0 0 0
143 2 3.6914999999999996e+00 7.8147245686161639e+00 6.2587943534567199e+00 0 0 0
423 2 0.0000000000000000e+00 7.1042950623783341e+00 9.2634147323442591e+00 0 0 0
434 2 2.4610000000000003e+00 7.1042950623783341e+00 9.2634147323442591e+00 0 0 0
147 2 4.9220000000000006e+00 5.6834360499026637e+00 6.2587943534567199e+00 0 0 0
149 2 4.9220000000000006e+00 4.2625770374269978e+00 6.2587943534567199e+00 0 0 0
182 2 6.1524999999999999e+00 6.3938655561404980e+00 6.2587943534567199e+00 0 0 0
184 2 7.3829999999999991e+00 5.6834360499026637e+00 6.2587943534567199e+00 0 0 0
186 2 7.3829999999999991e+00 4.2625770374269996e+00 6.2587943534567199e+00 0 0 0
450 2 4.9220000000000006e+00 4.2625770374269978e+00 9.2634147323442591e+00 0 0 0
451 2 6.1524999999999999e+00 4.9730065436648339e+00 9.2634147323442591e+00 0 0 0
467 2 6.1524999999999999e+00 6.3938655561404980e+00 9.2634147323442591e+00 0 0 0
469 2 7.3829999999999991e+00 4.2625770374269996e+00 9.2634147323442591e+00 0 0 0
180 2 6.1524999999999999e+00 7.8147245686161639e+00 6.2587943534567199e+00 0 0 0
449 2 4.9220000000000006e+00 7.1042950623783341e+00 9.2634147323442591e+00 0 0 0
468 2 7.3830000000000009e+00 7.1042950623783341e+00 9.2634147323442591e+00 0 0 0
227 2 8.6135000000000002e+00 6.3938655561404980e+00 6.2587943534567199e+00 0 0 0
229 2 9.8440000000000012e+00 5.6834360499026637e+00 6.2587943534567199e+00 0 0 0
231 2 9.8440000000000012e+00 4.2625770374270004e+00 6.2587943534567199e+00 0 0 0
274 2 1.1074500000000002e+01 6.3938655561404980e+00 6.2587943534567199e+00 0 0 0
470 2 8.6135000000000002e+00 4.9730065436648339e+00 9.2634147323442591e+00 0 0 0
490 2 8.6135000000000002e+00 6.3938655561404980e+00 9.2634147323442591e+00 0 0 0
492 2 9.8440000000000012e+00 4.2625770374270004e+00 9.2634147323442591e+00 0 0 0
493 2 1.1074500000000002e+01 4.9730065436648339e+00 9.2634147323442591e+00 0 0 0
514 2 1.1074500000000002e+01 6.3938655561404980e+00 9.2634147323442591e+00 0 0 0
225 2 8.6135000000000002e+00 7.8147245686161639e+00 6.2587943534567199e+00 0 0 0
272 2 1.1074500000000002e+01 7.8147245686161639e+00 6.2587943534567199e+00 0 0 0
491 2 9.8440000000000012e+00 7.1042950623783341e+00 9.2634147323442591e+00 0 0 0
110 2 0.0000000000000000e+00 9.9460130873296642e+00 6.2587943534567199e+00 0 0 0
112 2 0.0000000000000000e+00 8.5251540748539991e+00 6.2587943534567199e+00 0 0 0
139 2 2.4610000000000003e+00 9.9460130873296642e+00 6.2587943534567199e+00 0 0 0
141 2 2.4610000000000003e+00 8.5251540748539991e+00 6.2587943534567199e+00 0 0 0
431 2 0.0000000000000000e+00 8.5251540748539991e+00 9.2634147323442591e+00 0 0 0
432 2 1.2305000000000001e+00 9.2355835810918343e+00 9.2634147323442591e+00 0 0 0
446 2 2.4610000000000003e+00 8.5251540748539991e+00 9.2634147323442591e+00 0 0 0
447 2 3.6915000000000004e+00 9.2355835810918343e+00 9.2634147323442591e+00 0 0 0
135 2 1.2305000000000001e+00 1.2077301606043163e+01 6.2587943534567199e+00 0 0 0
137 2 1.2305000000000001e+00 1.0656442593567498e+01 6.2587943534567199e+00 0 0 0
172 2 3.6914999999999996e+00 1.2077301606043163e+01 6.2587943534567199e+00 0 0 0
174 2 3.6914999999999996e+00 1.0656442593567499e+01 6.2587943534567199e+00 0 0 0
430 2 0.0000000000000000e+00 1.1366872099805333e+01 9.2634147323442591e+00 0 0 0
444 2 1.2305000000000001e+00 1.0656442593567498e+01 9.2634147323442591e+00 0 0 0
445 2 2.4610000000000003e+00 1.1366872099805333e+01 9.2634147323442591e+00 0 0 0
463 2 3.6914999999999996e+00 1.0656442593567499e+01 9.2634147323442591e+00 0 0 0
176 2 4.9220000000000006e+00 9.9460130873296642e+00 6.2587943534567199e+00 0 0 0
178 2 4.9220000000000006e+00 8.5251540748539991e+00 6.2587943534567199e+00 0 0 0
221 2 7.3830000000000009e+00 9.9460130873296642e+00 6.2587943534567199e+00 0 0 0
223 2 7.3830000000000009e+00 8.5251540748539991e+00 6.2587943534567199e+00 0 0 0
465 2 4.9220000000000006e+00 8.5251540748539991e+00 9.2634147323442591e+00 0 0 0
466 2 6.1524999999999999e+00 9.2355835810918343e+00 9.2634147323442591e+00 0 0 0
488 2 7.3830000000000009e+00 8.5251540748539991e+00 9.2634147323442591e+00 0 0 0
217 2 6.1524999999999999e+00 1.2077301606043163e+01 6.2587943534567199e+00 0 0 0
219 2 6.1524999999999999e+00 1.0656442593567499e+01 6.2587943534567199e+00 0 0 0
464 2 4.9220000000000006e+00 1.1366872099805333e+01 9.2634147323442591e+00 0 0 0
486 2 6.1524999999999999e+00 1.0656442593567499e+01 9.2634147323442591e+00 0 0 0
487 2 7.3829999999999991e+00 1.1366872099805333e+01 9.2634147323442591e+00 0 0 0
268 2 9.8440000000000012e+00 9.9460130873296642e+00 6.2587943534567199e+00 0 0 0
270 2 9.8440000000000012e+00 8.5251540748539956e+00 6.2587943534567199e+00 0 0 0
489 2 8.6134999999999984e+00 9.2355835810918343e+00 9.2634147323442591e+00 0 0 0
512 2 9.8440000000000012e+00 8.5251540748539956e+00 9.2634147323442591e+00 0 0 0
513 2 1.1074500000000002e+01 9.2355835810918343e+00 9.2634147323442591e+00 0 0 0
264 2 8.6135000000000002e+00 1.2077301606043163e+01 6.2587943534567199e+00 0 0 0
266 2 8.6134999999999984e+00 1.0656442593567498e+01 6.2587943534567199e+00 0 0 0
311 2 1.1074500000000002e+01 1.2077301606043163e+01 6.2587943534567199e+00 0 0 0
313 2 1.1074500000000002e+01 1.0656442593567498e+01 6.2587943534567199e+00 0 0 0
510 2 8.6134999999999984e+00 1.0656442593567498e+01 9.2634147323442591e+00 0 0 0
511 2 9.8440000000000012e+00 1.1366872099805333e+01 9.2634147323442591e+00 0 0 0
534 2 1.1074500000000002e+01 1.0656442593567498e+01 9.2634147323442591e+00 0 0 0
535 2 1.2304999999999998e+01 1.1366872099805333e+01 9.2634147323442591e+00 0 0 0
3006 1 3.3396330922723547e+00 1.3125666021700317e+00 1.2078083885470720e+01 1 0 0
1535 1 1.0044286482912813e+01 7.2012437342891582e+00 1.1681139703474058e+01 0 0 0
4507 1 5.8693754539328449e+00 3.5733364545130990e+00 1.1866947662316457e+01 1 2 0
2257 1 2.1137554715095548e+00 3.8833346911477400e+00 1.1851401629006563e+01 1 1 0
2180 1 1.4695307541919691e+00 1.1007333112159804e+01 1.5269391236570687e+01 2 0 -1
4383 1 5.4987011990245067e+00 6.3706627509851046e+00 1.1903062089024157e+01 0 -1 0
1646 1 3.2545109072698786e+00 5.8762909963040428e+00 1.3709536000266649e+01 0 0 0
3665 1 8.7726938472475329e+00 3.7887278822823989e+00 1.2335437218242893e+01 1 1 -1
1574 1 8.8357772235786058e-01 8.9027579536489245e+00 1.1941543584444231e+01 0 1 0
1594 1 6.7453216113835630e+00 8.0364886924673140e+00 1.5427260065366918e+01 1 0 0
4500 1 3.7422310136573129e+00 8.9933707091650756e+00 1.1905246773638398e+01 1 1 0
2280 1 7.5548900418277762e+00 7.9029097667325301e+00 1.2615040793902688e+01 0 0 0
1362 1 1.1697877203629302e+01 1.9865032495179515e+00 1.4802521863521305e+01 1 1 0
3038 1 6.3237326581457918e+00 6.9212478524676124e-01 1.1689973100001170e+01 0 1 0
3880 1 8.2049480516881825e+00 1.0698256459918701e+01 1.2124350025918515e+01 -1 0 0
1520 1 2.4684839284601585e+00 9.6937289144049865e-01 1.4923680363580862e+01 1 -2 -1
4340 1 7.7380065828275404e+00 1.1718668000236438e+01 1.4964342399542854e+01 0 1 0
755 1 7.3501712073303951e+00 1.4294903216595969e+00 1.4335641710781065e+01 0 1 1
2245 1 9.4151624030956746e+00 7.1476174680709059e-01 1.1824404682375281e+01 -1 0 -1
3678 1 9.3677187484634281e+00 3.0675340500610857e+00 1.5396630610571139e+01 0 0 0
2128 1 5.2916817031110481e+00 8.3632828151004002e-01 1.6336915453767105e+01 1 0 0
1528 1 4.5370179678731706e+00 3.2780049765666481e+00 1.4606857771878333e+01 1 0 0
4389 1 5.3561205852540148e+00 1.1237294501796338e+01 1.1769234999659249e+01 0 1 0
10 1 5.1787796031504865e+00 1.0246701110491388e+01 1.4511858840876426e+01 1 1 0
3799 1 6.6984040054688547e+00 4.6748616424993097e+00 1.5809815018865127e+01 1 0 0
1429 1 9.4600058336594852e+00 5.8325934517790321e+00 1.4300867970331661e+01 1 1 -1
1351 1 1.1228082302125753e+01 9.6359031247536588e+00 1.2150092135819865e+01 1 -1 0
4487 1 4.1600246173742461e-01 1.1949959792958831e+01 1.1820127227007912e+01 1 0 0
2934 1 1.6269421022319133e+00 8.3607181951472604e+00 1.4635401433149241e+01 1 1 0
2217 1 9.7503827305391635e+00 1.0289075667311232e+01 1.6175493317046943e+01 1 0 0
50 1 1.2086831535665453e+01 2.3759306843918417e+00 1.1976470861505645e+01 2 0 1
1357 1 7.4751070178428122e-02 2.1479271049020836e+00 1.5606936466251492e+01 1 1 -1
4336 1 4.3241749772770166e-01 4.9009218301617610e+00 1.4984294204797107e+01 1 0 0
2317 1 1.1949481235766632e+01 1.0961010912771144e+01 1.4657272938726921e+01 0 0 -1
3781 1 2.8189619631987006e+00 4.7290257155033864e+00 1.6683426808426326e+01 1 1 0
2137 1 9.3970885700847528e+00 7.3504269167370628e+00 1.6746912250254560e+01 0 0 0
2138 1 5.1821435401414835e+00 1.9546350140376095e-01 2.0659021805143993e+01 0 0 0
1550 1 6.2467956736755648e+00 2.7832082416605135e+00 1.7966572014275854e+01 0 0 0
1612 1 7.3708431109722881e+00 1.1992098043745514e+01 2.4475212624034008e+01 0 1 0
1474 1 1.1410188448383906e+01 4.1753457548570312e+00 1.7649201587748571e+01 0 1 0
4526 1 3.2320145141309329e+00 6.6977912141118683e+00 1.9882854520966191e+01 1 1 0
2171 1 2.9040686596849241e-01 7.6773528178569652e+00 2.8357162545787993e+01 0 0 -1
2391 1 8.1890731327328918e+00 5.1249977855711126e+00 2.1826408381373078e+01 0 0 0
4391 1 6.9964630177252571e+00 6.5629318613084813e+00 1.9020670314786663e+01 1 1 0
4479 1 1.0396104960553883e+01 6.8159214123583833e+00 2.1041786278567734e+01 0 0 0
2146 1 4.0503510499054576e+00 9.5410731706741121e+00 1.8665451784669941e+01 1 1 0
1576 1 1.0927625261821470e+01 1.1757246842269995e+01 2.1676337899386482e+01 0 1 0
3788 1 8.7862638777502369e+00 4.5376553677859510e+00 1.8606773650900870e+01 1 0 0
3082 1 4.5010336467769232e+00 1.2152062875335581e+01 2.4323838925798782e+01 0 0 0
614 1 4.2449950570538002e+00 1.0292744100449740e+01 2.1149730410205365e+01 0 0 1
1365 1 6.5968155954546113e+00 8.9819654262889355e+00 3.0986349458115455e+01 0 0 0
3735 1 1.0959011271228352e+01 1.1935915203671447e+01 1.8134470327696278e+01 0 0 0
3094 1 7.9745985946109057e+00 9.2944533957201880e+00 1.9624912579100055e+01 -1 0 0
2278 1 5.0700226668122612e+00 1.1287583072584532e+01 3.0924365817483121e+01 0 0 0
2993 1 8.4334199669964232e+00 6.7420699376784055e-01 2.7883870505309034e+01 1 1 0
2219 1 1.3715189672122570e+00 9.5700454648994782e-01 2.2408562941011809e+01 1 0 -1
3775 1 4.8939833710612008e+00 6.8471580015992863e+00 1.7048153490530215e+01 -1 0 -1
1445 1 5.2187646792829367e+00 2.7714353904706028e+00 2.1912435491494662e+01 1 0 0
3745 1 7.2514780731498591e+00 1.3366556566858301e+00 2.3314828317124196e+01 1 1 -2
4494 1 9.0069505213891041e+00 2.5881816904584074e+00 2.0795297855831805e+01 -1 1 -1
698 1 8.8529961165158149e+00 9.4140563322003878e-01 3.0897350741913947e+01 0 1 -1
1368 1 1.1513589128250862e+01 1.8569302824587437e+00 2.1573103734613248e+01 0 0 0
2170 1 3.9508931797128715e+00 3.7545153642943569e+00 1.9575738524600766e+01 1 1 0
615 1 2.3011397505933320e+00 7.0616692585400846e+00 2.4736686791338158e+01 0 1 0
1518 1 5.4925978323262914e+00 6.2691735151678065e+00 2.1838653512780972e+01 0 1 0
827 1 1.1073486715887448e+01 7.5361587925715554e+00 2.3562526215093939e+01 0 1 0
3034 1 9.2998865082577922e+00 5.4478989812595637e+00 2.4691333146426359e+01 0 0 -1
4458 1 7.0268143292672836e+00 6.8900125969319417e+00 2.5330930180144875e+01 0 1 0
3660 1 8.1111134018558406e+00 1.1887718050492445e+01 2.1657674332118063e+01 0 2 -1
3152 1 2.4345635006026574e+00 1.0596627934706987e+01 2.2936135596737529e+01 1 0 0
3872 1 1.1012350936176791e+01 9.4524947901626213e+00 1.9295841809408635e+01 0 -1 0
2402 1 6.5337829025195848e+00 8.8684895090875937e+00 2.2060804032908081e+01 0 1 0
2390 1 1.1282384520190114e+01 1.0396477867579508e+01 2.4187642042006239e+01 1 0 1
1636 1 2.0599702893525116e+00 1.1370789653987963e+01 1.7949248020083566e+01 1 1 0
1401 1 8.4805426865311357e+00 9.1177817788979230e+00 2.4483544996256391e+01 0 1 -1
2142 1 1.0578766862577778e+00 4.2480268162703565e+00 2.5632931044677719e+01 -1 0 0
1380 1 3.4083108111238030e+00 2.7479849510640357e+00 2.7887711424974732e+01 0 1 0
868 1 1.3079829756984351e+00 9.3442312788382875e-01 2.7137580087533465e+01 1 0 0
3686 1 6.2115451418642591e+00 2.5854578817642424e+00 2.7944177376390478e+01 0 1 0
2954 1 9.7373784986027783e+00 2.6643973409686956e+00 2.4309616696114119e+01 0 1 0
3112 1 3.1451620474599320e+00 3.0656406107718293e+00 2.3835218708261841e+01 -1 0 0
2883 1 6.4072870003418707e+00 1.0473162240225596e+01 1.7591683291825525e+01 1 0 -1
864 1 6.5957115750647455e-01 9.8048751544255364e+00 2.5422946620485462e+01 1 -1 1
1527 1 4.5333404492043234e+00 5.5999077599411509e+00 2.4250932259122720e+01 0 1 0
662 1 2.1213574743716546e+00 5.3587348836113131e+00 2.8167951297784825e+01 0 1 0
3673 1 7.4128742723728269e+00 5.0471150761216652e+00 2.8264766338700468e+01 1 1 0
3136 1 1.0049593052602098e+01 5.0015540617937218e+00 2.7519957206545556e+01 1 1 0
3801 1 1.0167702652786771e+01 1.0722708107138160e+01 3.0074500901178105e+01 1 1 -1
1569 1 3.2523293045943573e+00 1.0636500122279099e+01 2.6724211653695221e+01 0 0 0
3101 1 3.3639495270666089e+00 7.8281318833852724e+00 2.7710901051680956e+01 0 2 0
4401 1 6.2416255922482691e+00 7.5885407914339309e+00 2.7940439239063906e+01 1 0 -1
3071 1 1.2003060583178186e+01 7.7109333137808733e-01 2.4482606052925433e+01 1 0 0
1371 1 3.2960248845484150e+00 6.5849322337053817e-01 2.4918013985601782e+01 0 0 1
2345 1 8.9446585740393392e+00 1.0052928395611245e+01 2.7632211763288502e+01 0 1 -1
62 1 1.0408540370652716e+01 1.2078921628503695e+01 2.6478461816117452e+01 0 1 0
3155 1 2.2055154337710277e+00 1.1179156588686546e+01 3.0737387657826432e+01 1 0 -1
3687 1 2.7738477898207581e+00 4.5731501631752174e+00 3.0734078740823506e+01 0 0 0
3013 1 6.1504668075369224e+00 6.5892055990981568e-01 2.5599668726873347e+01 1 1 -1
3891 1 3.3214104221159668e+00 1.9006416036164673e+00 3.0658325289588824e+01 0 0 0
3618 1 6.0619561484622215e+00 1.9026117056046290e+00 3.0871972504097307e+01 1 0 -1
4421 1 1.1171951932728030e+01 2.5598275933411676e+00 3.0475726020353406e+01 1 0 -1
675 1 1.0688636980736815e+01 2.2695699157687845e+00 2.7530638501977243e+01 0 1 -1
2893 1 1.0227757437664827e+01 4.9531135852896355e+00 3.0643237360683543e+01 1 2 0
3726 1 8.8747416923727329e-01 5.1676931367942709e+00 1.8865692668991009e+01 1 0 0
2986 1 2.4861463383039388e+00 1.5415339977296161e+00 1.9806697436810161e+01 1 0 -1
1418 1 6.8992018873280765e+00 4.5771640166309444e+00 3.0960067591672818e+01 0 1 1
2121 1 4.9727555069080722e+00 6.3914589060575766e+00 3.0824670829089698e+01 1 0 1
1546 1 9.2750415880209829e+00 8.0281145903634865e+00 3.0420891123655522e+01 0 1 1
2118 1 2.7058168402497720e+00 8.3378902144652240e+00 3.0392892233649199e+01 0 0 0
1377 1 1.3099322282821104e+00 7.8764221767009133e+00 2.1989943620964794e+01 -1 1 0
3135 1 6.0429620630328627e+00 1.0571317466744055e+01 2.8110841857582315e+01 0 1 0
1579 1 7.7107299768783903e+00 7.8610869426346930e-01 1.8962014425775671e+01 0 0 0
2132 1 1.2028371083217616e+01 7.7860373924510977e+00 1.6897007117892819e+01 1 0 0
2207 1 1.2302581128639350e+01 9.6954225621976207e+00 2.8059750999254938e+01 0 0 0
603 1 3.1419742781972587e-01 5.0892269096187395e+00 2.2716097905993671e+01 1 0 -1
132 2 0.0000000000000000e+00 1.2787731112280996e+01 3.2541739745700511e+00 0 0 0
134 2 1.2305000000000001e+00 1.3498160618518829e+01 3.2541739745700511e+00 0 0 0
169 2 2.4610000000000003e+00 1.2787731112280996e+01 3.2541739745700511e+00 0 0 0
171 2 3.6915000000000004e+00 1.3498160618518829e+01 3.2541739745700511e+00 0 0 0
130 2 0.0000000000000000e+00 1.5629449137232333e+01 3.2541739745700511e+00 0 0 0
165 2 1.2305000000000001e+00 1.4919019630994494e+01 3.2541739745700511e+00 0 0 0
167 2 2.4610000000000003e+00 1.5629449137232328e+01 3.2541739745700511e+00 0 0 0
210 2 3.6915000000000004e+00 1.4919019630994494e+01 3.2541739745700511e+00 0 0 0
214 2 4.9220000000000006e+00 1.2787731112280996e+01 3.2541739745700511e+00 0 0 0
216 2 6.1524999999999990e+00 1.3498160618518829e+01 3.2541739745700511e+00 0 0 0
261 2 7.3829999999999991e+00 1.2787731112280996e+01 3.2541739745700511e+00 0 0 0
212 2 4.9220000000000006e+00 1.5629449137232333e+01 3.2541739745700511e+00 0 0 0
257 2 6.1524999999999990e+00 1.4919019630994494e+01 3.2541739745700511e+00 0 0 0
259 2 7.3829999999999991e+00 1.5629449137232333e+01 3.2541739745700511e+00 0 0 0
263 2 8.6135000000000002e+00 1.3498160618518835e+01 3.2541739745700511e+00 0 0 0
308 2 9.8440000000000012e+00 1.2787731112280996e+01 3.2541739745700511e+00 0 0 0
310 2 1.1074500000000002e+01 1.3498160618518829e+01 3.2541739745700511e+00 0 0 0
304 2 8.6135000000000002e+00 1.4919019630994494e+01 3.2541739745700511e+00 0 0 0
306 2 9.8440000000000012e+00 1.5629449137232328e+01 3.2541739745700511e+00 0 0 0
346 2 1.1074500000000002e+01 1.4919019630994494e+01 3.2541739745700511e+00 0 0 0
161 2 0.0000000000000000e+00 1.7050308149707998e+01 3.2541739745700511e+00 0 0 0
206 2 2.4610000000000003e+00 1.7050308149707998e+01 3.2541739745700511e+00 0 0 0
159 2 0.0000000000000000e+00 1.9892026174659328e+01 3.2541739745700511e+00 0 0 0
163 2 1.2305000000000001e+00 1.7760737655945832e+01 3.2541739745700511e+00 0 0 0
202 2 1.2305000000000001e+00 1.9181596668421495e+01 3.2541739745700511e+00 0 0 0
204 2 2.4610000000000003e+00 1.9892026174659328e+01 3.2541739745700511e+00 0 0 0
208 2 3.6914999999999996e+00 1.7760737655945832e+01 3.2541739745700511e+00 0 0 0
249 2 3.6914999999999996e+00 1.9181596668421495e+01 3.2541739745700511e+00 0 0 0
253 2 4.9220000000000006e+00 1.7050308149707998e+01 3.2541739745700511e+00 0 0 0
300 2 7.3830000000000009e+00 1.7050308149707998e+01 3.2541739745700511e+00 0 0 0
251 2 4.9220000000000006e+00 1.9892026174659328e+01 3.2541739745700511e+00 0 0 0
255 2 6.1524999999999999e+00 1.7760737655945832e+01 3.2541739745700511e+00 0 0 0
296 2 6.1524999999999999e+00 1.9181596668421495e+01 3.2541739745700511e+00 0 0 0
298 2 7.3829999999999991e+00 1.9892026174659328e+01 3.2541739745700511e+00 0 0 0
342 2 9.8440000000000012e+00 1.7050308149707998e+01 3.2541739745700511e+00 0 0 0
376 2 1.2304999999999998e+01 1.7050308149707998e+01 3.2541739745700511e+00 0 0 0
302 2 8.6134999999999984e+00 1.7760737655945832e+01 3.2541739745700511e+00 0 0 0
338 2 8.6135000000000002e+00 1.9181596668421495e+01 3.2541739745700511e+00 0 0 0
340 2 9.8440000000000012e+00 1.9892026174659335e+01 3.2541739745700511e+00 0 0 0
344 2 1.1074500000000002e+01 1.7760737655945835e+01 3.2541739745700511e+00 0 0 0
372 2 1.1074500000000002e+01 1.9181596668421495e+01 3.2541739745700511e+00 0 0 0
196 2 0.0000000000000000e+00 2.4154603212086325e+01 3.2541739745700511e+00 0 0 0
198 2 0.0000000000000000e+00 2.1312885187134999e+01 3.2541739745700511e+00 0 0 0
200 2 1.2304999999999993e+00 2.2023314693372832e+01 3.2541739745700511e+00 0 0 0
241 2 1.2304999999999993e+00 2.3444173705848499e+01 3.2541739745700511e+00 0 0 0
243 2 2.4610000000000003e+00 2.4154603212086325e+01 3.2541739745700511e+00 0 0 0
245 2 2.4610000000000003e+00 2.1312885187134995e+01 3.2541739745700511e+00 0 0 0
247 2 3.6914999999999996e+00 2.2023314693372832e+01 3.2541739745700511e+00 0 0 0
288 2 3.6915000000000004e+00 2.3444173705848499e+01 3.2541739745700511e+00 0 0 0
290 2 4.9220000000000006e+00 2.4154603212086325e+01 3.2541739745700511e+00 0 0 0
292 2 4.9220000000000006e+00 2.1312885187134995e+01 3.2541739745700511e+00 0 0 0
294 2 6.1524999999999990e+00 2.2023314693372832e+01 3.2541739745700511e+00 0 0 0
330 2 6.1524999999999999e+00 2.3444173705848499e+01 3.2541739745700511e+00 0 0 0
332 2 7.3830000000000009e+00 2.4154603212086336e+01 3.2541739745700511e+00 0 0 0
334 2 7.3829999999999991e+00 2.1312885187134999e+01 3.2541739745700511e+00 0 0 0
336 2 8.6135000000000002e+00 2.2023314693372832e+01 3.2541739745700511e+00 0 0 0
364 2 8.6134999999999984e+00 2.3444173705848499e+01 3.2541739745700511e+00 0 0 0
366 2 9.8440000000000012e+00 2.4154603212086336e+01 3.2541739745700511e+00 0 0 0
368 2 9.8440000000000012e+00 2.1312885187134999e+01 3.2541739745700511e+00 0 0 0
370 2 1.1074500000000002e+01 2.2023314693372832e+01 3.2541739745700511e+00 0 0 0
390 2 1.1074500000000002e+01 2.3444173705848499e+01 3.2541739745700511e+00 0 0 0
133 2 0.0000000000000000e+00 1.2787731112280996e+01 6.2587943534567199e+00 0 0 0
170 2 2.4610000000000003e+00 1.2787731112280996e+01 6.2587943534567199e+00 0 0 0
442 2 0.0000000000000000e+00 1.2787731112280996e+01 9.2634147323442591e+00 0 0 0
443 2 1.2305000000000001e+00 1.3498160618518829e+01 9.2634147323442591e+00 0 0 0
461 2 2.4610000000000003e+00 1.2787731112280996e+01 9.2634147323442591e+00 0 0 0
462 2 3.6915000000000004e+00 1.3498160618518829e+01 9.2634147323442591e+00 0 0 0
131 2 0.0000000000000000e+00 1.4208590124756663e+01 6.2587943534567199e+00 0 0 0