
# Create simulation box and atoms

read_data data.ML_graphite_1atm_240K
  orthogonal box = (0 0 1.76685) to (49.22 49.0196 31.8685)
  4 by 4 by 2 MPI processor grid
  reading atoms ...
  4545 atoms
  reading velocities ...
  4545 velocities
group water type 1
1785 atoms in group water
group graphite type 2
2760 atoms in group graphite

# Define potential

pair_style sw
pair_coeff * * MLC_e.sw mW C


# Fix graphite atoms in place

fix 5 graphite setforce 0.0 0.0 0.0
velocity graphite set 0.0 0.0 0.0


# Equilibration of molecular water

# Add velocity/set timestep

velocity	    water create ${TEMP} ${SEED} rot yes dist gaussian
velocity	    water create 240 ${SEED} rot yes dist gaussian
velocity	    water create 240 11120 rot yes dist gaussian
timestep	    5.0

# Define output

compute			1 water msd
compute			3 water temp
thermo	    	50
thermo_style	custom step temp press vol etotal ke pe c_1[4] c_3

# Neighbor lists

neigh_modify    delay 0 every 1 check yes

# Set fixes

fix             1 water momentum 10 linear 1 1 1 rescale
fix             2 water nve
fix             3 water temp/csvr ${TEMP} ${TEMP} 500.0 ${SEED}
fix             3 water temp/csvr 240 ${TEMP} 500.0 ${SEED}
fix             3 water temp/csvr 240 240 500.0 ${SEED}
fix             3 water temp/csvr 240 240 500.0 11120
fix             4 water press/berendsen z ${PRES} ${PRES} 1000.0 modulus 20000
fix             4 water press/berendsen z 1 ${PRES} 1000.0 modulus 20000
fix             4 water press/berendsen z 1 1 1000.0 modulus 20000

# Run 0.5 ns equilibration

dump		    1 all atom 2000 ${DIR}/eq.${NAME}-${TEMP}.dump
dump		    1 all atom 2000 run_6/eq.${NAME}-${TEMP}.dump
dump		    1 all atom 2000 run_6/eq.het_freeze_6-${TEMP}.dump
dump		    1 all atom 2000 run_6/eq.het_freeze_6-240.dump

reset_timestep  0

run	            100000
Neighbor list info ...
  update every 1 steps, delay 0 steps, check yes
  max neighbors/atom: 2000, page size: 100000
  master list distance cutoff = 6.67472
  ghost atom cutoff = 6.67472
  binsize = 3.33736, bins = 15 15 10
  1 neighbor lists, perpetual/occasional/extra = 1 0 0
  (1) pair sw, perpetual
      attributes: full, newton on
      pair build: full/bin/atomonly
      stencil: full/bin/3d
      bin: standard
Per MPI rank memory allocation (min/avg/max) = 4.115 | 4.302 | 4.489 Mbytes
Step Temp Press Volume TotEng KinEng PotEng c_1[4] c_3 
       0    94.225352   -657.89738    72627.636   -17236.286    1276.2636    -18512.55            0          240 
      50    93.804227   -563.07404    72695.528   -17220.469    1270.5596   -18491.028    0.5222738    238.92736 
     100    93.184412    -481.8549    72699.885   -17243.328    1262.1643   -18505.492   0.88422412    237.34864 
     150    90.264834   -655.41258    72702.392   -17281.754    1222.6192   -18504.373    1.1548516    229.91222 
     200    93.717565   -496.58976    72673.026   -17267.889    1269.3858   -18537.275    1.4058526    238.70662 
     250    93.315942   -448.02239    72674.637   -17249.706    1263.9459   -18513.652    1.7007443    237.68366 
     300    91.237077   -540.55613    72694.321   -17249.207     1235.788   -18484.995    1.9536251    232.38861 
     350    93.361283   -378.36916    72731.331   -17230.956      1264.56   -18495.516    2.1449275    237.79914 
     400    95.932551   -682.77145    72781.036   -17211.554    1299.3873   -18510.942    2.3902888    244.34838 
     450    95.882694   -667.18482    72728.697   -17247.284     1298.712   -18545.996    2.6551209    244.22139 
     500    91.832172   -408.67238    72713.833   -17251.494    1243.8485   -18495.342    2.7945964    233.90437 
     550    93.323772   -745.65656    72803.277   -17240.733    1264.0519   -18504.785    2.9634358     237.7036 
     600    94.623006    -114.4483    72885.858   -17248.355    1281.6498   -18530.005    3.2135139    241.01286 
     650    95.262083    -640.7748    72930.319   -17236.404    1290.3059    -18526.71    3.4036167    242.64064 
     700    94.177293   -371.82627    72997.745   -17241.072    1275.6127   -18516.685    3.5929539    239.87759 
     750    93.932837   -613.56797    73027.659   -17246.936    1272.3016   -18519.238    3.8667452    239.25494 
     800    96.107267   -83.719035     73028.77   -17197.129    1301.7538   -18498.883    4.1383615     244.7934 
     850    95.808075   -724.53608    73028.809   -17224.591    1297.7013   -18522.292    4.3069421    244.03133 
     900    92.936544    -612.0245     72983.38   -17218.581     1258.807   -18477.388    4.4535572     236.7173 
     950    95.648896   -524.49103     72950.12   -17188.371    1295.5453   -18483.916    4.6549508    243.62589 
    1000    95.523009    -669.3393    72964.771   -17203.181    1293.8401   -18497.021    4.8033846    243.30524 
    1050    95.693849   -59.557146    72970.819   -17210.831    1296.1541   -18506.985    4.9893872    243.74039 
    1100    96.167581   -381.38436    72941.318   -17235.986    1302.5707   -18538.557    5.1769923    244.94702 
    1150    93.511428   -97.010138    73017.374   -17226.169    1266.5937   -18492.762    5.3999374    238.18157 
    1200    96.057229    -428.0302    73068.745   -17196.391     1301.076   -18497.468    5.6480027    244.66595 
    1250    92.687477   -320.80724    73078.726   -17214.064    1255.4334   -18469.498    5.8850613     236.0829 
    1300    95.194822   -332.40312    73052.799    -17201.04    1289.3949   -18490.435    6.1015518    242.46932 
    1350    97.620752   -597.74473    73013.083   -17175.511    1322.2536   -18497.764    6.4989056    248.64837 
    1400    93.118069   -454.00631    72992.626   -17202.387    1261.2657   -18463.652    6.7291966    237.17965 
    1450    93.451076   -514.54047    72974.777   -17211.417    1265.7762   -18477.193    6.9738536    238.02785 
    1500     92.48378   -520.35686    72922.063   -17231.875    1252.6744   -18484.549    7.2155287    235.56407 
    1550    97.416712   -502.33384    72937.587   -17213.103      1319.49   -18532.593    7.4124021    248.12867 
    1600    92.154059    -731.0424    72923.368   -17229.047    1248.2084   -18477.255    7.7368942    234.72424 
    1650    94.571451   -376.80289    72920.087   -17227.764    1280.9515   -18508.715    7.9772633    240.88154 
    1700     94.07382   -453.17513    72896.158   -17244.975    1274.2112   -18519.186    8.1292203    239.61403 
    1750    94.187629   -299.94071      72909.3   -17241.063    1275.7527   -18516.816    8.2600485    239.90391 
    1800     95.77944   -127.09334    72950.279   -17226.852    1297.3134   -18524.166    8.3773556     243.9584 
    1850    96.408094   -678.61435    72914.277   -17194.293    1305.8284   -18500.122    8.6837133    245.55963 
    1900    97.039041   -381.96112    72877.711   -17180.904    1314.3745   -18495.279    8.8449651     247.1667 
    1950    98.331049   -349.96277    72890.761   -17187.268    1331.8745   -18519.143    9.0222824    250.45756 
    2000    96.396384   -463.39977    72953.737    -17179.32    1305.6698    -18484.99    9.3024265     245.5298 
    2050    96.016231    -367.5258    72886.565     -17174.7    1300.5207   -18475.221    9.6678759    244.56152 
    2100    95.199132   -158.65696    72867.735   -17163.237    1289.4533    -18452.69    10.015343     242.4803 
    2150    97.608035   -299.57322    72860.915   -17187.704    1322.0814   -18509.785    10.293485    248.61598 
    2200    94.615035   -667.40625    72888.675   -17210.527    1281.5418   -18492.069    10.479476    240.99256 
    2250    94.484103   -742.76613      72849.6   -17244.941    1279.7684    -18524.71    10.541347    240.65906 
    2300    92.619868   -408.79675    72774.663   -17259.594    1254.5177   -18514.111    10.630191    235.91069 
    2350    94.678094   -532.11037     72713.65   -17241.212    1282.3959   -18523.608    10.924991    241.15317 
    2400    92.616563   -348.02535    72648.295   -17242.043    1254.4729   -18496.516    11.021789    235.90228 
    2450    95.684081   -671.46443    72585.948   -17207.881    1296.0218   -18503.903    11.278659    243.71551 
    2500    96.617101   -684.95317    72439.867   -17218.949    1308.6594   -18527.608    11.555367    246.09199 
    2550    94.375676   -84.233356    72502.175   -17220.154    1278.2997   -18498.454    11.926346    240.38289 
    2600    95.828538   -617.47361    72492.716   -17195.636    1297.9785   -18493.614    12.082617    244.08345 
    2650    96.725304   -199.75013    72444.992   -17199.935     1310.125    -18510.06    12.393641    246.36759 
    2700    96.152832   -271.29764     72465.73   -17194.045     1302.371   -18496.416    12.498587    244.90946 
    2750    91.716137   -55.391448    72462.064    -17196.96    1242.2768   -18439.237    12.685525    233.60881 
    2800    94.808207   -627.01212    72471.803    -17170.04    1284.1583   -18454.199    12.885542    241.48458 
    2850    94.881605   -806.38603    72519.843   -17188.539    1285.1524   -18473.692     13.15162    241.67153 
    2900    100.13584   -594.53752    72442.564   -17150.432    1356.3201   -18506.752     13.45379    255.05453 
    2950    95.842925   -234.04906    72408.713   -17174.055    1298.1733   -18472.228    13.769546     244.1201 
    3000    96.970432   -447.15113    72422.138   -17196.809    1313.4452   -18510.254    14.063982    246.99195 
    3050      98.7357    -402.4989    72366.603    -17150.77    1337.3554   -18488.125    14.389071    251.48824 
    3100    97.711351   -468.16164     72410.89    -17166.91    1323.4808    -18490.39    14.607143    248.87914 
    3150     95.74192   -169.81555    72387.371   -17158.417    1296.8052   -18455.222    14.878174    243.86283 
    3200    96.499338    -474.0306    72454.816   -17203.579    1307.0643   -18510.643     15.16874    245.79204 
    3250    91.742318   -211.27248    72430.976   -17213.249    1242.6314    -18455.88    15.344247     233.6755 
    3300    95.923416   -373.17483    72469.285   -17222.217    1299.2636    -18521.48     15.42174    244.32511 
    3350    93.949491   -226.36306    72461.914   -17254.464    1272.5271   -18526.991     15.67438    239.29736 
    3400    93.680989   -78.751987     72455.71   -17287.906    1268.8903   -18556.796    15.915283    238.61346 
    3450    92.738824   -398.96142    72473.072   -17303.431    1256.1289    -18559.56     16.18678    236.21369 
    3500    90.762273   -793.45255    72380.858   -17279.518    1229.3569   -18508.875    16.674019    231.17924 
    3550    95.901893   -392.53382    72393.575   -17266.549     1298.972   -18565.522    16.959931    244.27029 
    3600    89.913655   -660.85585    72388.348   -17282.747    1217.8626   -18500.609    17.224682    229.01774 
    3650    95.065631   -642.58517    72470.766   -17241.176     1287.645   -18528.821    17.451599    242.14026 
    3700    95.929037   -433.24882    72491.572   -17242.949    1299.3397   -18542.289    17.708182    244.33943 
    3750    93.910989   -680.78185    72520.433   -17232.329    1272.0056   -18504.335      17.9592    239.19929 
    3800    94.439037   -394.22322    72573.171   -17222.868    1279.1579   -18502.026    18.138325    240.54427 
    3850    96.126801   -584.95504    72629.497   -17209.286    1302.0184   -18511.305    18.364631    244.84315 
    3900    93.764505    -694.2404    72542.366   -17203.322    1270.0215   -18473.344    18.629861    238.82618 
    3950    94.127952   -661.38727    72549.848   -17226.753    1274.9444   -18501.698    18.992842    239.75191 
    4000    95.156506   -230.27184    72616.378   -17199.734    1288.8759    -18488.61    19.246612    242.37173 
    4050    95.856065   -305.00781    72642.972    -17166.93    1298.3513   -18465.281    19.352561    244.15356 
    4100    97.276258   -530.87903    72694.013   -17155.958    1317.5875   -18473.546    19.601718    247.77092 
    4150    96.853948   -710.96509    72752.448   -17145.342    1311.8674   -18457.209    19.811977    246.69526 
    4200    95.437516    -358.2351    72709.317   -17160.358    1292.6822    -18453.04       20.113    243.08749 
    4250    96.716836   -190.08366     72724.38   -17148.425    1310.0103   -18458.435    20.392944    246.34602 
    4300    95.558468   -64.654829     72750.34   -17152.704    1294.3204   -18447.024    20.759751    243.39556 
    4350    94.846558   -694.00764    72780.003   -17195.548    1284.6777   -18480.226    21.133694    241.58226 
    4400    97.521707   -370.83799    72821.166   -17194.864    1320.9121   -18515.776    21.465405     248.3961 
    4450    94.931353    -531.2387    72817.979   -17198.374    1285.8263     -18484.2    21.820236    241.79824 
    4500    94.384037   -465.20699    72855.861   -17218.104     1278.413   -18496.517    22.033097    240.40418 
    4550    95.210416   -400.81108    72885.779   -17185.799    1289.6061   -18475.405    22.230872    242.50904 
    4600    94.195636   -646.21513    72939.765   -17214.883    1275.8611   -18490.744    22.333642    239.92431 
    4650    92.996054   -473.33736    72930.585   -17244.167     1259.613    -18503.78    22.555659    236.86887 
    4700    93.041681   -91.985083    73000.401   -17255.385     1260.231   -18515.616    22.515889    236.98509 
    4750    96.992036   -418.55693    73020.249   -17201.843    1313.7378   -18515.581    22.617996    247.04698 
    4800    92.609757   -722.94145    73018.794   -17216.284    1254.3807   -18470.665    22.876109    235.88494 
    4850     98.90693   -607.64753    72958.194   -17168.142    1339.6747   -18507.817    23.040352    251.92438 
    4900    95.279975   -862.73942    72939.595   -17166.099    1290.5483   -18456.647    23.193504    242.68621 
    4950    95.775733   -455.32059    72908.551   -17184.612    1297.2632   -18481.876    23.449291    243.94895 
    5000    95.136332   -710.01568    72887.612   -17230.741    1288.6027   -18519.343    23.674723    242.32034 
    5050    90.796265   -575.16525    72842.383   -17227.524    1229.8173   -18457.342     23.91774    231.26582 
    5100    92.263124   -625.78371    72798.183   -17226.479    1249.6856   -18476.164     23.98091    235.00204 
    5150    92.806764   -724.55741    72734.175   -17227.379    1257.0491   -18484.428    24.291592    236.38673 
    5200    93.957687   -611.18168    72728.643   -17184.679    1272.6382   -18457.318    24.619443    239.31823 
    5250    95.874116   -632.28215    72704.504   -17168.939    1298.5958   -18467.535    24.937659    244.19954 
    5300    95.159095   -477.93378     72690.77   -17180.003     1288.911   -18468.914    25.215813    242.37832 
    5350    95.838347   -651.81639    72629.977   -17165.013    1298.1113   -18463.124    25.476775    244.10844 
    5400    97.599536   -209.18457    72621.427   -17170.378    1321.9663   -18492.344     25.70331    248.59433 
    5450    92.292825   -533.55418    72573.282   -17184.161    1250.0879   -18434.249    25.960331    235.07769 
    5500    97.728828   -274.02969    72553.579   -17168.499    1323.7175   -18492.216    26.111957    248.92365 
    5550    94.352896   -483.34944    72573.235    -17186.72    1277.9912   -18464.711    26.327649    240.32487 
    5600      94.4777   -427.50376    72626.214   -17196.939    1279.6816    -18476.62    26.465459    240.64275 
    5650    94.304678   -100.73465    72679.764   -17198.493    1277.3381   -18475.831    26.691513    240.20205 
    5700    93.661502   -537.51745    72715.375   -17205.217    1268.6264   -18473.844    26.929607    238.56383 
    5750    96.488025   -715.77436    72708.321   -17199.269    1306.9111    -18506.18    27.453528    245.76322 
    5800    92.813194   -504.56766    72720.958   -17230.172    1257.1362   -18487.308    27.773854    236.40311 
    5850    95.245738   -318.53464    72720.183   -17199.719    1290.0846   -18489.804    28.124058    242.59901 
    5900    94.731261   -270.13877    72688.113   -17180.439    1283.1161   -18463.555     28.42495    241.28859 
    5950    96.372376   -518.13436     72701.05   -17196.641    1305.3446   -18501.986    28.606811    245.46865 
    6000    95.815948   -596.35367    72682.199   -17185.029    1297.8079   -18482.837    28.566734    244.05138 
    6050    95.733573   -661.08951    72696.565   -17160.601    1296.6922   -18457.293    28.884027    243.84157 
    6100    95.881588   -820.09454    72676.989     -17161.8     1298.697   -18460.497    28.812835    244.21857 
    6150     96.25139   -825.55371    72651.854   -17160.995    1303.7059   -18464.701    28.909174    245.16049 
    6200    95.190713   -783.36074    72677.212   -17138.178    1289.3393   -18427.517    28.971512    242.45886 
    6250    95.077883    -824.2904    72634.825   -17204.747     1287.811   -18492.558     29.04033    242.17147 
    6300    95.014109   -542.38879    72681.742   -17204.222    1286.9472    -18491.17    29.338678    242.00903 
    6350    93.588786   -417.60718    72690.255   -17224.009    1267.6415    -18491.65    29.696827    238.37861 
    6400    96.926236   -187.04247    72624.763   -17186.246    1312.8466   -18499.092    30.094248    246.87938 
    6450    95.670085   -393.89804    72655.426   -17200.928    1295.8323   -18496.761    30.395089    243.67986 
    6500    97.147237   -718.05787     72687.86    -17199.25      1315.84    -18515.09    30.604687    247.44229 
    6550    94.745422    -429.4673    72739.515    -17222.36    1283.3079   -18505.668     30.88694    241.32466 
    6600    96.197313   -425.49833    72759.964   -17231.743    1302.9735   -18534.716    31.268618    245.02275 
    6650    93.576384   -325.72552    72741.897   -17257.761    1267.4735   -18525.235    31.470241    238.34702 
    6700    90.546164   -30.864973    72794.109    -17254.39    1226.4298   -18480.819    31.813576     230.6288 
    6750    91.810062    -493.3243    72745.996    -17222.05     1243.549   -18465.599    32.157053    233.84805 
    6800    94.072542   -480.65817    72704.069   -17207.738    1274.1938   -18481.932     32.13911    239.61078 
    6850    94.807704   -561.06416    72740.842   -17209.282    1284.1515   -18493.433    32.437955     241.4833 
    6900    93.071121   -470.51965    72766.772   -17237.302    1260.6298   -18497.932    32.743502    237.06007 
    6950    95.592789   -720.24101    72758.709   -17245.663    1294.7853   -18540.448    32.719582    243.48298 
    7000     94.02692   -466.07944    72716.348   -17227.362    1273.5759   -18500.938    32.918081    239.49458 
    7050    94.283475    -411.6333    72675.817   -17241.066    1277.0509   -18518.117    33.081216    240.14804 
    7100    93.031651   -402.18663    72739.315    -17228.56    1260.0952   -18488.656    33.231267    236.95954 
    7150    94.586183   -449.78674    72764.891    -17249.08     1281.151   -18530.232    33.068825    240.91907 
    7200     93.26764   -894.03903     72701.51   -17297.245    1263.2916   -18560.537     33.32556    237.56063 
    7250    95.758088    -802.9813    72696.649   -17268.763    1297.0242   -18565.787    33.557562    243.90401 
    7300    94.952618   -256.61713    72710.092   -17283.577    1286.1143   -18569.691    33.678872    241.85241 
    7350    94.035499    -455.1474    72673.985   -17269.976    1273.6921   -18543.668    33.936672    239.51643 
    7400    92.961605   -511.42368    72662.255   -17281.797    1259.1464   -18540.943    34.337498    236.78113 
    7450    92.930438   -511.11946     72664.55   -17267.479    1258.7243   -18526.203    34.635931    236.70174 
    7500    98.123188   -209.84618    72612.075   -17247.064     1329.059   -18576.123    34.813466    249.92812 
    7550    93.622202    75.226767    72647.329   -17252.267    1268.0941   -18520.361    35.325214    238.46372 
    7600    94.993665   -148.99034    72775.608   -17219.921    1286.6703   -18506.591    35.648966    241.95696 
    7650    92.486626   -231.12588     72880.03   -17242.606    1252.7129   -18495.319    36.025135    235.57132 
    7700    96.245851    -344.7366    72927.816     -17237.9    1303.6309   -18541.531    36.237651    245.14638 
    7750    93.711053   -166.11795    72977.691   -17289.784    1269.2976   -18559.081    36.121359    238.69004 
    7800    91.069597   -266.06306    73037.051   -17268.738    1233.5196   -18502.258    36.155491    231.96202 
    7850    96.005983   -714.36931    73013.938   -17219.796    1300.3819   -18520.178    36.251166    244.53542 
    7900    95.704458    -485.3464    72901.988   -17203.284    1296.2978   -18499.582    36.297679    243.76741 
    7950    94.823147   -587.04875    72868.126   -17201.005    1284.3606   -18485.366    36.539799    241.52263 
    8000    94.412409   -49.472456    72875.991   -17189.466    1278.7973   -18468.264    36.861873    240.47645 
    8050    92.531064   -460.19419    72828.101   -17211.551    1253.3148   -18464.866    37.235609     235.6845 
    8100    95.791826   -612.52796    72756.962   -17180.149    1297.4812    -18477.63    37.402424    243.98994 
    8150    95.446322   -755.30432    72790.228   -17189.441    1292.8014   -18482.242    37.651464    243.10992 
    8200    95.323834    -520.3109    72804.535   -17217.913    1291.1424   -18509.055    38.054249    242.79793 
    8250    93.646951   -41.173473     72831.99   -17180.435    1268.4293   -18448.864    38.326967    238.52676 
    8300    97.687633   -440.00687    72843.533   -17196.065    1323.1595   -18519.225    38.355401    248.81872 
    8350    96.025676   -138.65823    72897.193   -17201.899    1300.6487   -18502.548    38.522917    244.58558 
    8400     95.52635   -189.70817    72962.797   -17193.297    1293.8854   -18487.182    38.722027    243.31375 
    8450    95.900536    55.516195     73005.82   -17205.022    1298.9537   -18503.975    38.586612    244.26684 
    8500    95.487697   -302.97646    73096.842   -17218.849    1293.3618   -18512.211    38.827799     243.2153 
    8550     93.53439   -434.99145    73089.684   -17224.154    1266.9047   -18491.059    39.178621    238.24006 
    8600    93.602885   -629.79163    73116.037   -17248.873    1267.8324   -18516.705    39.443586    238.41452 
    8650    96.733651   -101.96797     73086.13   -17205.517     1310.238   -18515.755    39.602063    246.38885 
    8700     92.89177   -420.09461     73130.09     -17225.4    1258.2005     -18483.6    39.812946    236.60325 
    8750    91.158845   -484.14025    73118.534    -17259.96    1234.7284   -18494.689    39.984927    232.18935 
    8800    96.736929    -210.9269    73124.609   -17230.982    1310.2824   -18541.264    40.260574     246.3972 
    8850    94.282314   -843.66955    73100.256    -17215.41    1277.0352   -18492.445    40.526117    240.14509 
    8900    93.213826   -334.87432    73096.582   -17263.493    1262.5627   -18526.055    40.821192    237.42356 
    8950     92.11044   -734.71755    73034.504   -17259.019    1247.6176   -18506.637    40.818672    234.61314 
    9000    94.752353   -361.22763    73001.097   -17242.274    1283.4018   -18525.676    41.020404    241.34232 
    9050    93.426038   -370.50293    72973.182   -17257.709    1265.4371   -18523.146    40.993753    237.96408 
    9100    91.810752   -247.89992    73030.275   -17253.745    1243.5584   -18497.303    41.041146    233.84981 
    9150    95.254706    -359.5558     73051.08   -17247.427     1290.206   -18537.633    41.014947    242.62185 
    9200    94.009502   -607.50189     73046.76   -17231.816      1273.34   -18505.156     41.38417    239.45021 
    9250    96.487029   -57.314305    73092.202   -17183.861    1306.8976   -18490.759    41.838572    245.76068 
    9300    94.840172   -481.36426    73134.519   -17200.569    1284.5912    -18485.16    42.161158      241.566 
    9350    96.116866   -384.79975    73119.605   -17228.231    1301.8838   -18530.115    42.554093    244.81785 
    9400    93.962173   -378.38499    73135.067   -17200.603    1272.6989   -18473.302    43.020981    239.32966 
    9450    94.744381   -368.62575    73110.774   -17230.143    1283.2938   -18513.437    43.086161    241.32201 
    9500    94.217868      -404.19    73060.929   -17244.836    1276.1623   -18520.998    43.222121    239.98094 
    9550    95.403911   -473.81228     73005.74   -17230.294     1292.227   -18522.521    43.505187    243.00189 
    9600    95.637176   -322.52837    73064.094     -17266.6    1295.3865   -18561.986    43.905919    243.59604 
    9650    94.582407   -300.69028    73081.919   -17226.289    1281.0999   -18507.389    44.007932    240.90945 
    9700    96.135755   -449.55364    73068.315   -17228.536    1302.1397   -18530.676    44.385134    244.86596 
    9750    97.725418   -191.83318    73118.384   -17224.993    1323.6713   -18548.665     44.80721    248.91497 
    9800    96.781171   -617.03532    73144.228   -17259.219    1310.8817     -18570.1    45.151657    246.50989 
    9850      93.8985   -769.44901     73146.78   -17235.273    1271.8365   -18507.109     45.52949    239.16748 
    9900    93.209304   -414.74749    73109.315    -17260.22    1262.5015   -18522.721    45.468538    237.41204 
    9950    95.875442   -537.34802    73047.731   -17267.772    1298.6138   -18566.386     45.72262    244.20292 
   10000    95.991098   -798.38964    73040.302   -17225.538    1300.1803   -18525.719    46.046006    244.49751 
   10050    96.837879    -846.2467    73001.671   -17219.658    1311.6498   -18531.307    46.060875    246.65433 
   10100     96.23001   -264.62715     72966.99   -17232.707    1303.4163   -18536.123    46.326831    245.10603 
   10150    98.009827    -642.0651    72982.371    -17222.33    1327.5236   -18549.854    46.484747    249.63938 
   10200    98.067213   -191.22202    73059.762   -17213.013    1328.3009   -18541.314    46.859346    249.78555 
   10250    95.174316   -554.37498    73121.602   -17190.863    1289.1172   -18479.981    47.051864    242.41709 
   10300    97.688949   -396.57407    73152.404   -17192.817    1323.1774   -18515.995    47.179894    248.82208 
   10350    94.740974   -557.83461    73180.313   -17148.978    1283.2476   -18432.226    47.569067    241.31333 
   10400    97.204258    -400.3923     73214.49   -17200.169    1316.6123   -18516.782    47.663593    247.58753 
   10450    92.454755   -683.65594    73193.428   -17232.043    1252.2812   -18484.324    47.721399    235.49014 
   10500    95.305597   -563.22639      73168.9   -17234.608    1290.8953   -18525.504    47.859558    242.75148 
   10550    95.760545   -356.63791    73172.332   -17220.386    1297.0575   -18517.444    48.014685    243.91027 
   10600    96.323776   -577.75979    73232.576   -17229.976    1304.6864   -18534.662    48.282454    245.34486 
   10650     97.42772   -309.18722    73267.015   -17194.849    1319.6391   -18514.488    48.553216     248.1567 
   10700    95.551646   -733.09807    73242.785   -17201.873     1294.228   -18496.101    48.578911    243.37818 
   10750    95.201475   -1066.1711    73161.237   -17218.454     1289.485   -18507.939     48.89884    242.48627 
   10800    96.039902   -913.85895    73089.309   -17255.345    1300.8413   -18556.186    49.164169    244.62181 
   10850    95.248623   -529.83818    73050.882   -17242.099    1290.1236   -18532.222    49.565012    242.60636 
   10900    93.776401   -393.85967    73013.425   -17266.891    1270.1827   -18537.074    49.848421    238.85648 
   10950    94.170403      -599.98    73004.174   -17231.103    1275.5194   -18506.623    50.341314    239.86004 
   11000    96.683564   -218.17909    73010.125    -17261.85    1309.5596    -18571.41    50.807725    246.26128 
   11050    93.360713   -766.01493    73056.783   -17303.427    1264.5523   -18567.979    50.900109    237.79769 
   11100     91.55593   -419.32796    73083.014   -17351.046    1240.1068   -18591.153     51.01964    233.20075 
   11150     90.08078   -213.79721    73119.903   -17332.395    1220.1262   -18552.522    51.413537    229.44342 
   11200    93.703691   -319.37633    73169.842   -17284.426    1269.1978   -18553.624    51.134132    238.67128 
   11250    91.625158   -593.55255    73173.329   -17305.986    1241.0445    -18547.03    51.179014    233.37708 
   11300    94.849244   -607.59804    73177.648   -17311.936    1284.7141    -18596.65     51.47958     241.5891 
   11350    95.086282   -831.27917    73139.643    -17319.17    1287.9248   -18607.095    51.791653    242.19286 
   11400    92.621554   -294.21373    73110.283   -17295.781    1254.5405   -18550.321    51.844915    235.91499 
   11450    94.775173   -1046.8365    73054.808   -17287.204    1283.7108   -18570.915    51.886691    241.40044 
   11500    90.703475   -782.96987    72989.648   -17343.922    1228.5605   -18572.483    52.400561    231.02948 
   11550    91.650225   -487.40706    72917.267   -17363.137     1241.384   -18604.521    52.992592    233.44093 
   11600    89.792202   -208.26917    72935.655   -17351.384    1216.2175   -18567.602    52.912513    228.70839 
   11650    89.536999   -694.32748     72954.03   -17381.643    1212.7608   -18594.403    52.713879    228.05837 
   11700     88.86007   -515.91023    72931.334   -17381.769    1203.5919   -18585.361    52.811922    226.33417 
   11750    93.153364   -742.53377    72870.897   -17346.036    1261.7438   -18607.779    52.843485    237.26955 
   11800    92.595702   -646.32214    72852.996   -17308.199    1254.1903   -18562.389    52.859051    235.84914 
   11850    91.524051   -522.55733    72824.477   -17298.042     1239.675   -18537.717     52.82761    233.11955 
   11900    94.617742   -403.26408    72767.708   -17308.822    1281.5785     -18590.4    52.893651    240.99945 
   11950    92.307828   -996.31186    72753.691   -17349.529    1250.2911    -18599.82    53.096179     235.1159 
   12000      93.3696   -706.14946    72761.219   -17324.367    1264.6726    -18589.04    53.136288    237.82033 
   12050    94.898869   -442.98441    72784.653   -17298.526    1285.3863   -18583.913     53.18183    241.71551 
   12100    94.723541   -441.14331    72769.218   -17335.713    1283.0115   -18618.724    53.353571    241.26893 
   12150    92.929773    -150.8649    72797.105   -17313.999    1258.7153   -18572.715    53.443251    236.70005 
   12200    94.201837   -715.99825    72755.812   -17322.863    1275.9451   -18598.808    53.680766    239.94011 
   12250    91.887935    -659.4587    72707.696   -17323.314    1244.6038   -18567.918    53.945456     234.0464 
   12300    92.837241   -1076.6804    72674.652   -17317.922    1257.4619   -18575.384    54.067014    236.46436 
   12350    96.292744   -265.36327    72689.859   -17265.112     1304.266   -18569.378    54.238995    245.26582 
   12400    94.727906   -291.55504    72680.452   -17266.637    1283.0706   -18549.708    54.798371    241.28005 
   12450    94.870549   -296.69789    72756.231   -17265.147    1285.0027    -18550.15    54.988917    241.64337 
   12500    91.745568   -132.82877    72809.808   -17288.089    1242.6754   -18530.765    55.221093    233.68378 
   12550    93.872636     -560.226    72897.896   -17294.466    1271.4862   -18565.953    55.040921     239.1016 
   12600    95.330191   -352.92117    72972.303   -17289.123    1291.2285   -18580.351    54.770549    242.81412 
   12650    98.499486   -580.06296    73082.569   -17229.561    1334.1559   -18563.717    55.153418    250.88658 
   12700    96.202925   -304.37885    73154.561   -17222.114    1303.0495   -18525.163     55.41778    245.03705 
   12750    97.633916   -312.60661    73215.826   -17153.265    1322.4319   -18475.696    55.564043     248.6819 
   12800    93.372411   -746.59979    73240.948   -17181.367    1264.7107   -18446.077    55.852485    237.82749 
   12850    96.313723   -756.42558    73236.236   -17199.363    1304.5502   -18503.913    56.179071    245.31926 
   12900    97.535391   -643.28122    73173.548   -17230.288    1321.0974   -18551.386    56.351812    248.43095 
   12950    93.201604   -853.93763    73128.221   -17300.692    1262.3972   -18563.089    56.382728    237.39243 
   13000    92.372367   -865.80855    73106.504   -17293.956    1251.1653   -18545.121    56.878251    235.28029 
   13050    92.877793   -570.06877    73074.505   -17279.925    1258.0112   -18537.936     56.95243    236.56765 
   13100    94.401039   -548.55725    73041.774   -17279.428    1278.6433   -18558.071    57.065501    240.44749 
   13150    92.079723   -442.70285     73112.06    -17262.97    1247.2015   -18510.171    57.205222     234.5349 
   13200    93.768942    -587.2119    73099.812   -17272.484    1270.0816   -18542.566    57.122204    238.83748 
   13250    97.734589   -555.44997    73097.936   -17285.053    1323.7955   -18608.849      56.9752    248.93833 
   13300    96.352661   -361.27084    73118.751    -17251.55    1305.0776   -18556.628    57.124699    245.41844 
   13350    97.104928   -234.65652    73117.013   -17249.459    1315.2669   -18564.726    57.489609    247.33453 
   13400    94.722367   -791.10349     73166.36   -17266.615    1282.9956   -18549.611    57.719348    241.26594 
   13450    96.432735   -772.12765    73154.769   -17278.039    1306.1622   -18584.202    57.947335    245.62239 
   13500    94.374282   -264.02439    73127.568   -17251.785    1278.2809   -18530.065     58.33198    240.37934 
   13550    93.225516   -363.39709    73146.402   -17254.434    1262.7211   -18517.155    58.527701    237.45333 
   13600    94.715148   -482.19301    73191.815   -17264.374    1282.8978   -18547.272    58.478633    241.24755 
   13650    95.896884   -575.64585    73253.942   -17241.981    1298.9042   -18540.885    58.588117    244.25753 
   13700     95.08734   -430.68243    73236.017   -17266.313    1287.9391   -18554.252    58.862884    242.19556 
   13750    95.243098   -613.19521    73258.209   -17230.186    1290.0488   -18520.235    59.201983    242.59228 
   13800    93.439242   -593.08206    73203.342   -17257.325    1265.6159   -18522.941    59.458064    237.99771 
   13850     96.67929   -356.79727    73160.038   -17274.525    1309.5017   -18584.027    59.533851    246.25039 
   13900    94.470934    -489.8268    73228.422   -17253.036      1279.59   -18532.626    60.146756    240.62552 
   13950    91.268336   -262.19623    73207.791   -17278.755    1236.2114   -18514.966     60.36797    232.46823 
   14000    95.641658   -468.86911    73233.513   -17272.723    1295.4472   -18568.171    60.496115    243.60745 
   14050     94.43709   -497.52254    73291.894   -17298.028    1279.1316   -18577.159     60.32432    240.53931 
   14100    94.024391   -275.01684     73270.54   -17250.181    1273.5417   -18523.723    60.714702    239.48814 
   14150    95.562445   -395.18744    73271.509   -17261.133    1294.3743   -18555.507    60.869762    243.40569 
   14200    96.171826   -757.49932    73252.543    -17264.35    1302.6282   -18566.979    60.885563    244.95784 
   14250    95.031635   -662.49013    73255.859   -17260.553    1287.1846   -18547.737    61.026722    242.05367 
   14300    92.808411   -459.55031    73264.502     -17275.5    1257.0714   -18532.571    61.264981    236.39093 
   14350    95.315585   -305.72998    73277.208   -17276.585    1291.0306   -18567.616    61.404372    242.77692 
   14400     95.23545    -125.1498    73267.173   -17236.976    1289.9452   -18526.921     61.61471     242.5728 
   14450     94.76369   -387.06399    73232.905   -17231.449    1283.5553   -18515.005    61.977459    241.37119 
   14500    96.292388   -703.45225    73170.838   -17249.689    1304.2612    -18553.95    62.235287    245.26492 
   14550    95.253946    13.679155    73141.408   -17221.164    1290.1957   -18511.359    62.579607    242.61992 
   14600    94.120441   -534.45038    73142.383   -17210.132    1274.8426   -18484.974    62.759953    239.73278 
   14650    94.844531   -462.72711    73035.008   -17205.133    1284.6503   -18489.783    62.628847     241.5771 
   14700    94.393231   -677.15766    73000.363   -17251.922    1278.5375   -18530.459    62.753093     240.4276 
   14750    95.234311   -422.62221    72971.677   -17253.257    1289.9298   -18543.187    62.732176     242.5699 
   14800    94.534622   -540.80196    72954.949   -17253.187    1280.4526   -18533.639     63.00262    240.78774 
   14850    94.126485   -488.02087    72932.332   -17263.048    1274.9245   -18537.973    63.507294    239.74818 
   14900    94.539225   -399.70692    72912.654   -17261.049     1280.515   -18541.564    63.728977    240.79946 
   14950     94.01821   -665.00329    72807.778   -17267.165    1273.4579   -18540.623    63.769576    239.47239 
   15000    94.154762   -541.26135    72836.116   -17244.678    1275.3075   -18519.985    64.484066     239.8202 
   15050    92.728753   -678.02598    72842.478   -17268.849    1255.9925   -18524.842    64.399918    236.18804 
   15100      92.8095   -593.63449    72826.148   -17263.527    1257.0862   -18520.613    64.828511     236.3937 
   15150    93.822489   -229.06551    72801.986   -17235.122    1270.8069   -18505.928    64.788946    238.97387 
   15200     92.06969   -527.56652    72825.172   -17246.349    1247.0656   -18493.414    65.058309    234.50934 
   15250    93.768541   -36.907135    72810.279   -17257.115    1270.0762   -18527.192    65.109706    238.83646 
   15300    92.005109   -334.06676    72833.798   -17285.154    1246.1909   -18531.345    65.109343    234.34485 
   15350    90.903163   -655.82833    72831.895   -17288.755    1231.2652    -18520.02      65.3851     231.5381 
   15400    90.574921   -173.09916    72875.587   -17323.518    1226.8193   -18550.337    65.689012    230.70204 
   15450    90.539854   -374.28695     72897.17   -17307.655    1226.3443   -18533.999    65.735552    230.61272 
   15500    92.151799   -287.10994    72876.806    -17302.45    1248.1778   -18550.628    66.005359    234.71848 
   15550     92.23684   -574.14018    72856.939   -17327.439    1249.3296   -18576.769    66.725008    234.93509 
   15600    93.782652   -706.52066    72820.238   -17282.306    1270.2673   -18552.573    67.022956    238.87241 
   15650    92.972416   -369.88825    72895.512   -17280.616    1259.2929   -18539.909    67.184925    236.80867 
   15700    90.385518   -627.55701    72888.218   -17274.565    1224.2538   -18498.819    67.363035    230.21962 
   15750    92.520856   -369.80885    72942.249   -17263.645    1253.1766   -18516.822    67.787545     235.6585 
   15800    92.629344   -262.81477     72980.46   -17280.532     1254.646   -18535.178    67.598616    235.93483 
   15850    91.582994     -575.381    73021.571   -17270.606    1240.4734   -18511.079    67.569406    233.26969 
   15900    96.183317   -366.20505    72989.203   -17238.725    1302.7839   -18541.509    67.786051     244.9871 
   15950    92.980586   -347.73904    72994.786   -17254.228    1259.4035   -18513.631    68.138629    236.82947 
   16000    96.162788   -85.013091    73039.183   -17236.301    1302.5058   -18538.807    68.296266    244.93481 
   16050    94.357265   -520.47981     73050.97   -17230.932    1278.0504   -18508.983    68.621166    240.33599 
   16100    92.435222   -364.59068    73094.065   -17258.391    1252.0167   -18510.408     68.59933    235.44038 
   16150    91.904264   -649.53801    73054.209    -17284.77     1244.825   -18529.595    68.552255    234.08799 
   16200    92.711587   -705.98945    73038.242   -17272.689      1255.76   -18528.449    68.556006    236.14431 
   16250    93.636369   -538.36745     72961.69   -17234.252     1268.286   -18502.538    68.652223    238.49981 
   16300    97.841718   -209.47997     72974.41   -17250.369    1325.2466   -18575.615    68.936445    249.21119 
   16350     95.67512   -219.79145    73021.498   -17201.962    1295.9005   -18497.863    69.139568    243.69268 
   16400    94.959626   -505.16963    72998.519   -17255.236    1286.2092   -18541.445    69.098954    241.87026 
   16450     93.63982    -606.1909    72918.831   -17254.804    1268.3327   -18523.137    69.154029     238.5086 
   16500    94.807589    -702.8963    72867.355   -17272.691    1284.1499   -18556.841     69.23031    241.48301 
   16550    94.390614   -438.28845    72826.634   -17287.327    1278.5021   -18565.829    69.131949    240.42094 
   16600     96.73836    -508.4333    72837.914    -17260.42    1310.3018   -18570.722      69.7333    246.40085 
   16650    95.295355   -845.25626    72826.163   -17252.561    1290.7566   -18543.317    69.940241    242.72539 
   16700    94.049659    -507.9422    72829.108   -17257.371    1273.8839   -18531.255     70.15686    239.55249 
   16750    97.868214   -542.55215    72833.596   -17240.856    1325.6055   -18566.461    70.350692    249.27868 
   16800    93.655889   -67.429491    72892.604   -17245.666    1268.5504   -18514.217    70.691921    238.54953 
   16850    94.087084   -252.15395    72960.233   -17250.914    1274.3908   -18525.305    70.693864    239.64782 
   16900    95.789671   -312.10018    72933.433   -17226.347     1297.452   -18523.799    70.703325    243.98445 
   16950    93.973056   -592.07302    72941.843   -17244.826    1272.8463   -18517.673    70.899058    239.35738 
   17000      95.8925   -827.73407    72914.807   -17266.248    1298.8448   -18565.093    70.904454    244.24637 
   17050    89.170299    -806.1859    72933.832   -17332.757    1207.7939   -18540.551     71.14669    227.12435 
   17100    95.018903   -512.95115    72941.757   -17265.809    1287.0121   -18552.821    71.129226    242.02124 
   17150    93.282093   -477.07739    73017.116    -17284.24    1263.4874   -18547.728    71.531653    237.59744 
   17200    93.543843   -380.78896    73043.083   -17291.417    1267.0327    -18558.45    71.933312    238.26414 
   17250    94.131951    -551.6443    73046.202   -17295.403    1274.9985   -18570.402    72.070129     239.7621 
   17300    95.370285   -362.81718    73050.041   -17316.795    1291.7715   -18608.566     72.35562    242.91624 
   17350    95.715903   -448.74812     73117.16   -17270.581    1296.4528   -18567.034    72.544393    243.79656 
   17400    94.855646   -386.51906    73109.523   -17285.096    1284.8008   -18569.897    72.541957    241.60541 
   17450    93.243144   -532.72954    73102.014   -17250.086    1262.9598   -18513.046    72.559747    237.49823 
   17500    94.304231   -566.29448     73047.65   -17250.743     1277.332   -18528.075    72.903111    240.20091 
   17550    94.742947   -472.18831    72995.585   -17271.738    1283.2743   -18555.013    73.122584    241.31836 
   17600    94.070339   -728.52819    72955.059   -17274.897     1274.164   -18549.061    73.669875    239.60517 
   17650    95.791425   -354.48613    72923.916   -17270.991    1297.4758   -18568.467    74.008632    243.98892 
   17700     93.82998   -531.01632    72961.432   -17296.008    1270.9084   -18566.916    74.389525    238.99295 
   17750    96.029886   -235.90738    72954.376   -17273.547    1300.7057   -18574.253    74.440308     244.5963 
   17800    94.308093    -443.1214    72935.157   -17248.176    1277.3843   -18525.561    74.484754    240.21075 
   17850    92.495552     19.26546    72918.806   -17257.652    1252.8338   -18510.486    74.656179    235.59405 
   17900    96.854168   -741.50945     72906.35   -17241.239    1311.8704   -18553.109    75.149258    246.69582 
   17950    95.577777   -245.48167    72840.601   -17245.485     1294.582   -18540.067    75.672897    243.44474 
   18000    93.177487   -628.16063     72798.22   -17236.518    1262.0705   -18498.588    75.922602      237.331 
   18050    96.238925   -376.16893    72781.307   -17245.666    1303.5371   -18549.203    76.030857    245.12874 
   18100    93.919057   -402.24179    72802.004   -17261.366    1272.1149   -18533.481    76.045535    239.21984 
   18150    93.626871    -450.0102    72723.114   -17287.976    1268.1573   -18556.133    76.147142    238.47562 
   18200    94.055265   -367.77699    72751.604   -17260.515    1273.9598   -18534.475    76.088475    239.56677 
   18250    92.850115   -507.19028    72760.648   -17268.477    1257.6363   -18526.114    76.483583    236.49716 
   18300    92.813289   -596.65468    72720.527   -17276.227    1257.1375   -18533.364    76.631013    236.40336 
   18350    93.461612   -495.48667    72755.024   -17314.604    1265.9189   -18580.523    76.613338    238.05469 
   18400     92.79007   -629.96652      72698.3   -17295.238     1256.823   -18552.061    76.859136    236.34422 
   18450    94.057455   -291.80375    72660.892   -17294.332    1273.9895   -18568.321    77.165928    239.57235 
   18500    93.662277   -688.23331    72652.262   -17307.101    1268.6369   -18575.738    77.159733     238.5658 
   18550    95.657542    -579.8587    72630.812    -17284.15    1295.6624   -18579.812    77.104782    243.64791 
   18600    94.429881   -257.05616    72637.978   -17310.824    1279.0339   -18589.858    76.872679    240.52095 
   18650    93.375093   -496.73889    72586.417   -17263.622     1264.747   -18528.369    76.696743    237.83432 
   18700     96.14283   -115.82175    72598.947   -17256.444    1302.2355    -18558.68    76.999814    244.88398 
   18750    93.761615   -158.86839    72665.845   -17257.667    1269.9824    -18527.65    77.329243    238.81882 
   18800    94.946531   -307.76128     72762.91   -17245.962    1286.0319   -18531.994    77.772545     241.8369 
   18850    94.558734   -731.16306    72733.727    -17222.09    1280.7792   -18502.869    78.155073    240.84915 
   18900     95.25221   -317.78026    72712.145   -17203.367    1290.1722   -18493.539    78.745916     242.6155 
   18950     94.57894   -714.49018     72715.71   -17212.112    1281.0529   -18493.165    78.980801    240.90062 
   19000     95.92007   -729.35443    72735.205   -17209.245    1299.2183   -18508.463    79.053947    244.31659 
   19050    96.165467   -829.96576    72753.239   -17203.461    1302.5421   -18506.003    79.208024    244.94164 
   19100    91.195445   -594.35023    72719.091   -17255.793    1235.2241   -18491.017    79.234476    232.28257 
   19150    91.971599   -528.94676    72708.799   -17224.939     1245.737   -18470.676    79.530859     234.2595 
   19200    94.282042   -496.92318    72728.305   -17217.739    1277.0315   -18494.771     79.62708     240.1444 
   19250    95.900646   -285.41183    72692.867   -17223.012    1298.9552   -18521.967    79.866109    244.26712 
   19300    96.756104   -224.71857    72763.851    -17236.45    1310.5422   -18546.992    80.186347    246.44604 
   19350    94.597804   -273.93219    72858.631   -17225.144    1281.3084   -18506.452    80.492308    240.94867 
   19400    95.683898   -448.65704    72943.482   -17241.421    1296.0193    -18537.44     80.39063    243.71504 
   19450     94.95332   -336.00819    72992.347   -17237.995    1286.1238   -18524.119    80.778247     241.8542 
   19500     95.17229   -154.54636    72952.572   -17271.898    1289.0897   -18560.988    80.834908    242.41193 
   19550    94.297125  -0.42459131    72984.236   -17238.308    1277.2358   -18515.544    81.128311    240.18281 
   19600     95.82031   -319.66706    73007.329   -17254.644     1297.867   -18552.511    81.573837    244.06249 
   19650    92.565341   -356.10063    72990.207   -17268.256    1253.7791   -18522.035     82.27916    235.77181 
   19700    94.711146   -464.67952    73013.575   -17288.462    1282.8436   -18571.306     82.93043    241.23736 
   19750    96.020018   -451.20446    72961.831   -17267.504     1300.572   -18568.076    83.344119    244.57117 
   19800    95.047428   -446.19566    72939.578   -17253.585    1287.3985   -18540.983    83.811065     242.0939 
   19850     96.32287   -297.86871    72885.045   -17271.172    1304.6741   -18575.846    84.021645    245.34256 
   19900    90.862764   -192.24979    72871.972   -17249.619     1230.718   -18480.337    83.947337     231.4352 
   19950    94.458615   -517.70494    72915.283   -17227.963    1279.4231   -18507.386    84.004748    240.59414 
   20000    96.459276   -536.53532    72883.205   -17201.676    1306.5217   -18508.197    84.262605    245.68999 
   20050    97.007662   -335.71268    72919.665   -17190.896    1313.9495   -18504.845    84.429784    247.08678 
   20100    96.050587   -508.39233    72931.713   -17209.458    1300.9861   -18510.444    84.468794    244.64903 
   20150    94.326195   -642.92324    72914.904   -17239.501    1277.6295   -18517.131    85.222542    240.25686 
   20200    90.185918   -490.28464    72887.405   -17292.234    1221.5503   -18513.784    85.235874    229.71122 
   20250    94.509778   -288.75902    72813.796   -17241.888    1280.1161   -18522.004    85.394288    240.72446 
   20300    93.753334   -699.64574    72801.013   -17259.582    1269.8702   -18529.452    86.067236    238.79773 
   20350    95.218076   -729.33962    72730.889   -17272.901    1289.7099   -18562.611    86.295061    242.52855 
   20400    93.906709   -344.41311     72714.13   -17286.773    1271.9477    -18558.72    86.672291    239.18839 
   20450    94.534221   -562.91387    72723.972   -17279.535    1280.4472   -18559.983     86.81577    240.78672 
   20500    92.390928   -356.57226    72699.414   -17269.585    1251.4167   -18521.002    86.801045    235.32757 
   20550     93.43391   -612.27472    72619.337   -17260.258    1265.5437   -18525.801      86.8804    237.98413 
   20600    97.036929   -297.00847    72575.527   -17243.971    1314.3459   -18558.317    87.023465    247.16133 
   20650    94.669043   -257.19475    72554.239   -17234.924    1282.2733   -18517.197    87.335715    241.13012 
   20700    93.903047   -613.51159    72536.293   -17265.473    1271.8981   -18537.371    87.473462    239.17906 
   20750    94.956175   -475.55901    72525.426   -17273.894    1286.1625   -18560.056    87.181946    241.86147 
   20800    92.792033   -744.72088    72517.982   -17234.424    1256.8496   -18491.274    87.248925    236.34921 
   20850    94.782149   -667.24425    72506.418   -17217.871    1283.8053   -18501.676    87.720523    241.41821 
   20900    92.224207   -496.31455    72449.218   -17258.651    1249.1585   -18507.809    88.196464    234.90291 
   20950    94.018045    -114.7541    72462.892   -17275.655    1273.4557    -18549.11    88.672302    239.47197 
   21000    89.146166   -428.15943    72443.906   -17294.548    1207.4671   -18502.015    88.786666    227.06288 
   21050    91.200354   -575.99426    72455.702   -17282.972    1235.2906   -18518.263    89.059111    232.29507 
   21100    92.171557   -301.33993    72464.602   -17314.727    1248.4454   -18563.173    89.118875    234.76881 
   21150    92.303022   -638.47849    72457.669   -17271.297    1250.2261   -18521.523    89.150526    235.10366 
   21200    94.336142   -367.54773    72493.565   -17240.985    1277.7643   -18518.749    89.524139    240.28219 
   21250     92.98474   -257.69419    72556.908   -17251.518    1259.4598   -18510.978    89.794325    236.84005 
   21300    93.675777     161.9816    72666.485   -17259.076    1268.8198   -18527.896    89.999381    238.60019 
   21350     94.00609   -192.68292    72725.885   -17264.632    1273.2938   -18537.926    90.460533    239.44152 
   21400    96.255518     -364.002    72736.346    -17247.11    1303.7618   -18550.872    90.882915    245.17101 
   21450    91.815225   -381.34382    72739.841   -17243.532    1243.6189   -18487.151    90.929898     233.8612 
   21500    91.601995   -295.03801    72696.172   -17298.414    1240.7308   -18539.145    91.476535    233.31808 
   21550    94.509869   -599.29601    72739.674   -17275.236    1280.1174   -18555.353    91.693281    240.72469 
   21600    92.600896   -519.21403    72719.988   -17295.885    1254.2607   -18550.146    91.712408    235.86237 
   21650    88.214961   -151.48424    72701.273   -17304.756    1194.8541    -18499.61     91.73734    224.69102 
   21700    94.383781   -393.15406    72746.812   -17273.308    1278.4095   -18551.718    92.213642    240.40353 
   21750     92.62407   -366.95372    72807.968   -17272.888    1254.5746   -18527.463    92.421642     235.9214 
   21800    94.683896   -133.99618    72873.646   -17267.822    1282.4745   -18550.296    92.538619    241.16795 
   21850     93.73437   -494.35273    72898.687    -17247.82    1269.6134   -18517.434    92.610866    238.74943 
   21900    90.005119   -539.68084    72853.266   -17313.762    1219.1014   -18532.864    92.350473    229.25071 
   21950    91.990506   -939.43817    72813.691   -17360.529    1245.9931   -18606.522    92.352433    234.30766 
   22000    96.883043   -145.72109    72819.962   -17286.921    1312.2615   -18599.183    92.402452    246.76937 
   22050    94.265501   -717.45089    72836.878   -17294.631    1276.8074   -18571.438     92.39754    240.10226 
   22100    92.409725   -328.80847    72843.714   -17302.872    1251.6713   -18554.543    92.346625    235.37544 
   22150    92.093534   -10.138718    72876.813   -17257.917    1247.3886   -18505.306    92.740146    234.57008 
   22200    92.691237   -262.50802    72901.261   -17282.525    1255.4843   -18538.009    92.560748    236.09248 
   22250    92.745712   -34.940161    72925.291   -17264.719    1256.2222   -18520.942    92.681871    236.23123 
   22300    92.064468   -306.44916    73025.694   -17283.908    1246.9949   -18530.903    93.077824    234.49604 
   22350    88.945292   -159.13944      73109.5   -17300.958    1204.7463   -18505.705    93.483187    226.55124 
   22400    95.819165   -433.42473    73182.278   -17314.071    1297.8515   -18611.922    93.703858    244.05958 
   22450    91.783333   -657.99444     73201.18   -17333.736     1243.187   -18576.922     94.06768    233.77997 
   22500    92.318231   -527.44536    73223.384   -17334.711    1250.4321   -18585.143    94.194553     235.1424 
   22550    91.604144   -531.45694    73255.352   -17334.129    1240.7599   -18574.888    94.536662    233.32356 
   22600    94.414185    -263.6963     73255.09   -17280.626    1278.8213   -18559.447    94.914441    240.48097 
   22650    96.089042   -174.09436    73246.246   -17243.701    1301.5069   -18545.208    95.356201    244.74698 
   22700    95.640096   -342.20933    73227.469   -17224.466     1295.426   -18519.892    95.606344    243.60347 
   22750    94.594591   -512.15139    73289.112   -17233.573    1281.2649   -18514.838    95.765965    240.94048 
   22800    95.952318   -476.24397    73280.582   -17218.571     1299.655   -18518.226    96.348605    244.39873 
   22850    93.034745   -673.00862    73329.516   -17246.479    1260.1371   -18506.617    96.709884    236.96742 
   22900    94.507142   -205.62256    73263.295   -17222.893    1280.0804   -18502.974    97.041842    240.71774 
   22950    94.118602    -678.8388    73239.825   -17234.384    1274.8177   -18509.201    97.470465     239.7281 
   23000    95.125503   -363.51635    73260.554   -17180.142     1288.456   -18468.598    97.571866    242.29276 
   23050    95.932201   -346.98965     73310.65   -17161.836    1299.3826   -18461.218    97.792715    244.34749 
   23100    97.741631   -392.16995    73339.939   -17138.466    1323.8909   -18462.357    98.184658    248.95626 
   23150    96.953335   -224.72002    73344.588   -17134.059    1313.2136   -18447.273    98.807606    246.94841 
   23200    97.238881   -387.39103     73283.02   -17136.153    1317.0813   -18453.234    99.345597    247.67572 
   23250    97.671037   -616.28543     73252.48    -17125.47    1322.9347   -18448.405    99.567105    248.77645 
   23300    98.116645   -453.22745    73239.953   -17171.403    1328.9704   -18500.373    99.502209    249.91145 
   23350    95.947849   -644.05532    73337.343   -17210.405    1299.5945       -18510    99.673184    244.38735 
   23400    96.820919   -702.55868    73335.207   -17207.565    1311.4201   -18518.985    99.977478    246.61113 
   23450    94.146327   -570.98799    73292.252   -17193.839    1275.1932   -18469.032    99.616646    239.79872 
   23500    96.426881   -820.61689    73279.413   -17211.699    1306.0829   -18517.782    100.16499    245.60748 
   23550    97.323458   -617.28807    73306.011   -17201.123    1318.2269   -18519.349    100.72076    247.89114 
   23600    95.430816    -426.2115    73243.186   -17230.505    1292.5914   -18523.097    101.10798    243.07042 
   23650    94.937142   -545.47452    73274.481   -17247.468    1285.9047   -18533.372    101.57963    241.81299 
   23700    94.945933   -657.80127    73301.147   -17269.992    1286.0238   -18556.016    101.78494    241.83538 
   23750     94.07938   -547.18056    73242.573   -17271.046    1274.2865   -18545.332    101.64567     239.6282 
   23800    94.793498     -576.448    73173.999   -17268.378    1283.9591   -18552.337    101.58589    241.44712 
   23850    94.751691   -701.64145    73180.895     -17284.8    1283.3928   -18568.192    102.04861    241.34063 
   23900    94.109886   -211.57596    73180.772   -17282.841    1274.6997   -18557.541    102.25918     239.7059 
   23950     94.76817   -608.43063    73141.622   -17280.551     1283.616   -18564.167    102.55988     241.3826 
   24000    93.732025   -296.47898    73152.098   -17277.756    1269.5816   -18547.337    102.87571    238.74345 
   24050    96.554809    -751.1486    73191.411   -17241.072    1307.8157   -18548.888    102.89322    245.93332 
   24100    94.101516   -582.05383    73173.649   -17276.386    1274.5863   -18550.972    102.72645    239.68458 
   24150    93.688623   -743.27317    73160.176   -17284.852    1268.9937   -18553.846    103.02498     238.6329 
   24200    94.835845   -537.35763    73083.957   -17262.638    1284.5326   -18547.171    103.30694    241.55498 
   24250    98.260186   -280.47811    72999.882   -17242.253    1330.9147   -18573.168    103.07689    250.27707 
   24300    95.629534   -312.26822    72938.564   -17229.612     1295.283   -18524.895    103.34526    243.57657 
   24350    92.612737    -541.0686    72965.985    -17233.04    1254.4211   -18487.461    103.55795    235.89253 
   24400    91.412062   -511.01134    72981.731   -17215.661    1238.1582   -18453.819    103.50711    232.83431 
   24450    94.778843   -825.27471    72937.884     -17242.7    1283.7606   -18526.461    103.70848    241.40979 
   24500    95.876059   -112.43306     72973.57   -17265.016    1298.6221   -18563.638    103.66821    244.20449 
   24550     94.59514   -592.64002    72944.386   -17287.329    1281.2723   -18568.601    103.67773    240.94188 
   24600    94.133025   -270.17564    72962.362   -17295.955    1275.0131   -18570.968    103.60568    239.76483 
   24650    94.891712   -618.27885    73038.339   -17274.847    1285.2893   -18560.136    103.50107    241.69728 
   24700    94.181782   -261.49309    73036.831   -17287.602    1275.6735   -18563.276    104.15411    239.88902 
   24750     93.97581    -194.8985      73133.3   -17269.298    1272.8836   -18542.182     104.0767    239.36439 
   24800    95.782529    -203.7302    73165.544   -17266.271    1297.3553   -18563.626    104.65042    243.96626 
   24850     92.13968   -603.27669    73193.935   -17314.351    1248.0136   -18562.364    105.03062    234.68762 
   24900    90.663752   -283.80863    73235.275   -17321.326    1228.0225   -18549.348    104.98307     230.9283 
   24950     92.32594   -780.94827    73185.906   -17288.631    1250.5365   -18539.168    104.71809    235.16203 
   25000    94.294912   -475.58151    73156.593   -17278.838    1277.2058   -18556.044    104.78962    240.17718 
   25050    92.609993   -243.88211     73184.17   -17291.902    1254.3839   -18546.286    105.35768    235.88554 
   25100    96.573849   -257.98635    73173.398   -17270.482    1308.0735   -18578.556    105.57335    245.98182 
   25150    90.822208   -661.99213     73181.62   -17295.768    1230.1687   -18525.937    105.89787     231.3319 
   25200    93.644835    -243.5927     73174.53   -17316.184    1268.4006   -18584.584    106.01962    238.52137 
   25250     94.11289   -267.00808    73201.215   -17307.222    1274.7404   -18581.962    106.06917    239.71355 
   25300    91.822413   -385.02982    73189.599   -17300.359    1243.7163   -18544.075    106.24102    233.87951 
   25350     92.69426   -262.95796    73146.053   -17293.679    1255.5253   -18549.204    106.44927    236.10018 
   25400    94.128229   -406.06534    73149.899   -17295.213    1274.9481   -18570.161    106.55216    239.75262 
   25450    93.412292   -543.16317    73137.742   -17281.818    1265.2509   -18547.069    106.63563    237.92907 
   25500    94.466912   -319.19456    73119.654   -17286.672    1279.5355   -18566.208    107.03841    240.61527 
   25550    96.066847   -181.98008    73205.605   -17262.103    1301.2063   -18563.309    106.98091    244.69045 
   25600    93.244261   -442.46282    73218.286   -17262.011     1262.975   -18524.986    107.21135    237.50108 
   25650    92.902888   -398.73293    73191.115   -17275.428    1258.3511    -18533.78    107.66519    236.63157 
   25700    93.304753   -424.10474    73242.988    -17307.89    1263.7943   -18571.685    107.91393    237.65516 
   25750    92.464486   -678.56507    73234.926   -17323.505     1252.413   -18575.918     108.1108    235.51492 
   25800    93.376818   -232.37169    73213.014   -17271.212    1264.7704   -18535.982    108.17899    237.83871 
   25850     96.23078   -682.60079    73236.578    -17211.22    1303.4268   -18514.647    108.16159      245.108 
   25900    96.769442   -243.21114    73229.704   -17238.444    1310.7228   -18549.167    108.54836    246.48001 
   25950    96.485344   -209.71324     73213.65   -17279.547    1306.8748   -18586.422    108.62882    245.75639 
   26000    95.251674   -230.59484    73225.661   -17286.319     1290.165   -18576.484    108.86007    242.61413 
   26050    94.829417   -313.24856    73230.082   -17291.354    1284.4456     -18575.8    109.34326     241.5386 
   26100    91.351224   -592.50986    73219.737   -17306.561    1237.3341   -18543.895    109.34907    232.67935 
   26150    92.096197   -556.49662    73156.758   -17317.582    1247.4247   -18565.007    109.10808    234.57686 
   26200    92.458645   -573.01429    73109.681    -17306.64    1252.3339   -18558.974    109.23208    235.50005 
   26250    94.533179   -541.40597    73068.589   -17278.765    1280.4331   -18559.198    109.75397    240.78406 
   26300    97.456721   -575.17941    73120.322   -17297.904    1320.0319   -18617.936     110.3257    248.23057 
   26350    94.982689   -278.67732    73158.069   -17288.787    1286.5216   -18575.308     110.5691      241.929 
   26400    94.844144   -686.36937    73170.131   -17304.874     1284.645   -18589.519    110.33207    241.57612 
   26450    96.267969   -477.85411    73196.908   -17275.806    1303.9305   -18579.737    110.86624    245.20272 
   26500    95.470667   -275.45148    73215.525   -17301.592    1293.1312   -18594.723    111.05508    243.17192 
   26550    97.610087   -395.59558    73250.328   -17260.168    1322.1092   -18582.277    111.10726    248.62121 
   26600    94.843771   -336.77794    73272.684   -17278.294      1284.64   -18562.934    111.39137    241.57517 
   26650    93.762068   -93.133855    73323.305    -17260.23    1269.9885   -18530.219    111.50903    238.81998 
   26700    97.310774   -566.05252    73350.626   -17273.526    1318.0551   -18591.581    111.85899    247.85883 
   26750    95.006523   -362.58187    73316.777   -17292.273    1286.8444   -18579.117      111.865    241.98971 
   26800    97.064005   -708.59909    73259.105    -17305.34    1314.7126   -18620.052    111.79392    247.23029 
   26850    92.827274    -501.7413     73243.82    -17339.44    1257.3269   -18596.767    111.86627    236.43898 
   26900      95.5833   -623.20775     73261.65   -17331.749    1294.6568   -18626.406    111.52394    243.45881 
   26950    96.620636   -336.11788    73342.407    -17295.62    1308.7073   -18604.327    111.41433    246.10099 
   27000    97.269824   -171.91495    73442.562   -17253.265    1317.5004   -18570.765    111.41413    247.75453 
   27050    98.400006   -640.37268    73538.243    -17259.12    1332.8085   -18591.928    111.58478     250.6332 
   27100    96.589869   -771.63029    73563.956   -17236.825    1308.2905   -18545.115    112.17191    246.02263 
   27150    96.184199   -1015.8876    73466.038   -17269.872    1302.7958   -18572.668    112.44401    244.98935 
   27200    93.751665   -706.86938    73368.362    -17287.66    1269.8476   -18557.508    112.66927    238.79348 
   27250    96.903092   -811.80531    73357.472   -17287.367    1312.5331     -18599.9     112.5404    246.82043 
   27300    94.937019   -351.75956    73300.638   -17334.958     1285.903   -18620.861    112.57795    241.81268 
   27350    95.762992   -536.04544    73326.069   -17323.871    1297.0907   -18620.962    112.95022     243.9165 
   27400    95.419994   -121.96738    73349.778   -17309.177    1292.4448   -18601.621    112.71943    243.04285 
   27450    98.457563   -638.42269    73372.922    -17310.93    1333.5881   -18644.518    112.82032     250.7798 
   27500    94.853001    -351.3496    73325.523   -17345.908     1284.765   -18630.673    113.00243    241.59867 
   27550     94.17979    -477.5264    73330.337   -17346.509    1275.6465   -18622.156    113.15718    239.88395 
   27600    92.128974   -808.50328    73243.315   -17329.657    1247.8686   -18577.525    113.08467    234.66035 
   27650    93.248042   -248.07592    73242.323   -17301.032    1263.0262   -18564.058    113.05918    237.51071 
   27700    92.244981   -186.87829    73260.162   -17324.528    1249.4399   -18573.968    113.01314    234.95583 
   27750    94.214838   -700.52481    73240.782   -17323.967    1276.1212   -18600.089    113.19932    239.97322 
   27800    93.570671   -500.36955     73235.59   -17297.957    1267.3961   -18565.353    113.43811    238.33247 
   27850    93.717637   -869.30558    73214.096   -17296.138    1269.3867   -18565.525    113.65338    238.70681 
   27900    92.809932   -972.50622    73177.026   -17330.992    1257.0921   -18588.084    113.78325    236.39481 
   27950    90.379878   -428.70721    73139.437   -17340.932    1224.1774    -18565.11    114.22243    230.20525 
   28000    94.929119   -970.94429    73091.996   -17336.031     1285.796   -18621.827    114.42342    241.79255 
   28050    91.504822   -470.33578    73119.181   -17335.984    1239.4146   -18575.399     114.7302    233.07058 
   28100    92.440309   -848.48425    73129.369   -17365.025    1252.0856    -18617.11    114.90418    235.45334 
   28150     91.87746   -464.15668     73133.74   -17376.006    1244.4619   -18620.468    115.28572    234.01972 
   28200    92.360292   -731.57058    73166.388    -17338.66    1251.0018   -18589.662    115.04899    235.24953 
   28250    92.591465    -891.6835    73173.988   -17352.045     1254.133   -18606.178    114.95018    235.83835 
   28300    91.967419    -565.2938    73203.135   -17355.173    1245.6804   -18600.853    115.11237    234.24885 
   28350    91.181144   -495.74468    73234.064   -17361.122    1235.0304   -18596.152    115.49378    232.24614 
   28400    90.587634   -637.19855    73206.395   -17348.739    1226.9915   -18575.731     116.1078    230.73442 
   28450    92.083134    -586.4922    73200.089   -17360.779    1247.2477   -18608.027    116.22945    234.54359 
   28500    93.497192   -313.31848    73188.595   -17342.132    1266.4008   -18608.533    116.44497    238.14531 
   28550     94.83311   -312.17723    73213.993   -17279.802    1284.4956   -18564.298    116.56674    241.54801 
   28600    94.308447   -295.71612    73258.771   -17294.312    1277.3891   -18571.701    116.69661    240.21165 
   28650    92.650813   -411.90557    73298.465     -17347.5    1254.9368   -18602.437    116.94019    235.98951 
   28700    94.296057   -432.98262    73282.987   -17334.544    1277.2213   -18611.765    116.84557    240.18009 
   28750    93.395193   -414.37548    73337.562   -17306.605    1265.0193   -18571.624    116.70499    237.88551 
   28800    95.000012    -626.4053    73380.484   -17316.897    1286.7562   -18603.653    116.88562    241.97312 
   28850    93.636193   -401.34948    73352.329   -17313.246    1268.2836   -18581.529    116.88752    238.49936 
   28900    92.497327   -675.82167    73288.546   -17298.085    1252.8579   -18550.942    117.04062    235.59857 
   28950    92.967111   -694.00286    73290.912   -17263.306     1259.221   -18522.527    116.95842    236.79515 
   29000    96.425531   -948.47979    73252.711   -17258.873    1306.0646   -18564.938    117.12416    245.60404 
   29050    98.161317   -240.41192    73216.723   -17217.548    1329.5755   -18547.124    117.67556    250.02524 
   29100     94.97475   -276.86657    73248.346    -17253.31    1286.4141   -18539.724    118.28825    241.90878 
   29150    95.231937   -470.38713    73285.992   -17275.261    1289.8976   -18565.158    118.92675    242.56386 
   29200    94.932403   -508.57318    73225.786    -17264.92    1285.8405    -18550.76    118.98609    241.80092 
   29250    97.255742   -659.45593    73129.501   -17227.045    1317.3097   -18544.354    119.02038    247.71866 
   29300    95.138097    -609.1213    73027.762   -17253.895    1288.6266   -18542.521    119.38262    242.32484 
   29350    95.351633   -647.17517    72992.693   -17264.977    1291.5189   -18556.496    119.36143    242.86873 
   29400    92.077036   -520.29177    73007.171   -17283.766    1247.1651   -18530.932      119.506    234.52805 
   29450      94.6731    -729.4649    72964.665    -17291.31    1282.3283   -18573.638    119.62467    241.14045 
   29500    94.768845   -338.84153    73020.294   -17263.669    1283.6251   -18547.294    119.94318    241.38432 
   29550    95.041127   -443.23514    73099.852     -17276.5    1287.3131   -18563.814    119.67616    242.07785 
   29600    93.407403   -401.98832     73088.59   -17303.374    1265.1847   -18568.559    120.46686    237.91661 
   29650    93.799266   -458.24889     73075.56   -17259.116    1270.4924   -18529.608    120.71411    238.91472 
   29700    94.049659   -768.01272    73064.194   -17282.661    1273.8839   -18556.545    120.81035    239.55249 
   29750    97.012654   -589.29219    73047.049   -17321.507    1314.0171   -18635.524     121.1931     247.0995 
   29800    96.080192   -615.01227    72965.622   -17302.523    1301.3871    -18603.91    121.62657    244.72444 
   29850    94.001358   -610.06517    72876.278    -17338.43    1273.2297    -18611.66    121.52479    239.42947 
   29900    94.808533   -321.11711    72822.702   -17311.182    1284.1627   -18595.344    121.87139    241.48541 
   29950    96.064671   -531.08625    72829.004   -17288.189    1301.1768   -18589.366    122.34516     244.6849 
   30000     92.05697   -667.04103    72790.874   -17304.798    1246.8933   -18551.691    122.45432    234.47695 
   30050    95.770303   -563.33361    72788.706   -17311.837    1297.1897   -18609.027    122.44798    243.93512 
   30100    94.558356   -425.40929    72793.832   -17300.544    1280.7741   -18581.318    122.50936    240.84819 
   30150    94.444634   -236.21518    72796.922   -17310.378    1279.2338   -18589.612    122.85429    240.55853 
   30200    94.497392   -567.55015    72814.154   -17318.261    1279.9484   -18598.209    122.87978    240.69291 
   30250    94.287021   -426.70806    72815.534   -17309.031    1277.0989    -18586.13    122.97736    240.15708 
   30300    93.143579   -554.19305    72808.077   -17351.755    1261.6112   -18613.366    122.90811    237.24463 
   30350    91.415235   -200.83684    72777.274   -17347.924    1238.2012   -18586.125    123.35098    232.84239 
   30400    92.663287   -520.06378    72812.879   -17335.027    1255.1058   -18590.132    123.77703    236.02129 
   30450    94.318704    -608.4625    72793.678   -17353.304    1277.5281   -18630.832    124.21325    240.23777 
   30500    93.504733   -473.31973    72763.485   -17378.947     1266.503    -18645.45    124.73636    238.16452 
   30550    89.811174   -507.06561    72736.535   -17400.578    1216.4745   -18617.052    125.40185    228.75671 
   30600    90.729527   -386.85993    72723.647   -17405.804    1228.9134   -18634.717    125.72649    231.09584 
   30650     95.49412   -213.22969     72739.71   -17351.889    1293.4488   -18645.337    125.98416    243.23166 
   30700    94.067013   -296.33788    72782.047   -17320.459     1274.119   -18594.578    126.28966     239.5967 
   30750    93.751571    -756.9169    72772.552   -17323.247    1269.8464   -18593.093     126.2636    238.79324 
   30800    95.098899   -331.64695    72767.339   -17329.151    1288.0956   -18617.246    126.29808      242.225 
   30850    94.992734   -422.25354    72765.397   -17324.601    1286.6577   -18611.259    126.40909    241.95459 
   30900    94.786957   -329.86103    72745.769   -17307.023    1283.8705   -18590.893    126.57938    241.43046 
   30950    94.561882   -459.93505    72760.916   -17298.971    1280.8219   -18579.793    126.53575    240.85717 
   31000    94.431434   -436.72091    72759.717   -17298.902     1279.055   -18577.957    126.28744    240.52491 
   31050    92.350378     -606.962    72703.229   -17302.772    1250.8675    -18553.64    126.14406    235.22428 
   31100    95.361423   -566.15503    72643.627   -17238.855    1291.6515   -18530.507    125.88135    242.89367 
   31150    96.467195   -629.85947    72660.631   -17241.913    1306.6289   -18548.542    125.69738    245.71016 
   31200    97.106731   -583.62651    72637.182   -17245.881    1315.2913   -18561.172    125.60095    247.33912 
   31250    96.666635    -402.0048    72632.452    -17264.23    1309.3303    -18573.56    125.78281    246.21816 
   31300    98.177238   -616.00188    72700.123   -17237.741    1329.7911   -18567.532    126.12521    250.06579 
   31350    94.941131    -274.0092    72710.903   -17210.829    1285.9587   -18496.788    126.48637    241.82315 
   31400    96.160526   -663.17007     72721.02   -17235.798    1302.4752   -18538.273    127.21198    244.92905 
   31450    95.773472   -350.56547    72726.974   -17249.222    1297.2326   -18546.454    127.66733    243.94319 
   31500    95.947084   -527.59954    72782.467   -17242.884    1299.5841   -18542.469    128.01118     244.3854 
   31550    90.093359   -753.82822     72825.49   -17291.606    1220.2966   -18511.903    129.30242    229.47546 
   31600    92.218066   -771.47451    72834.278   -17304.077    1249.0753   -18553.153    129.55716    234.88727 
   31650    91.697758   -391.70473    72808.055   -17311.445    1242.0279   -18553.473    129.75399      233.562 
   31700    91.667047   -554.10606        72769   -17291.425    1241.6119   -18533.037    130.11355    233.48378 
   31750     93.05815   -162.10825    72795.552   -17311.051    1260.4541   -18571.505    130.27289    237.02704 
   31800    90.968362    -224.6524     72823.64   -17330.069    1232.1483   -18562.217    130.65726    231.70417 
   31850    91.735272   -314.79923    72763.969   -17311.867     1242.536   -18554.403    130.44318    233.65755 
   31900    93.124123   -750.05047    72723.153   -17303.814    1261.3477   -18565.161    130.20929    237.19508 
   31950    93.459672   -639.73212    72703.234   -17304.152    1265.8926   -18570.045    130.41212    238.04975 
   32000    92.157722   -498.61002    72755.866   -17298.426     1248.258   -18546.684    130.68383    234.73357 
   32050    91.154243   -455.90318    72791.544   -17288.067    1234.6661   -18522.733    130.93511    232.17762 
   32100    92.444231   -537.67662    72783.965   -17297.038    1252.1387   -18549.177     131.1767    235.46333 
   32150    91.911232   -345.14583    72745.076   -17267.359    1244.9193   -18512.279    131.27553    234.10574 
   32200     94.73211   -695.51078    72729.485   -17237.146    1283.1276   -18520.274    131.52194    241.29075 
   32250    93.111664   -754.71551    72705.965   -17257.857    1261.1789   -18519.036    131.79404    237.16334 
   32300    93.014683   -731.95375    72709.049   -17270.571    1259.8654   -18530.436    132.25878    236.91632 
   32350    91.967016   -331.10034    72720.644   -17259.274    1245.6749   -18504.949    132.04052    234.24783 
   32400    92.252198   -294.65318     72760.55   -17247.093    1249.5377   -18496.631    132.22907    234.97421 
   32450    95.762227   -644.49996    72733.312   -17250.702    1297.0803   -18547.782    132.74003    243.91455 
   32500    92.801476   -603.43916    72744.969   -17263.187    1256.9775   -18520.164    132.75384    236.37327 
   32550    94.563639   -697.11096     72714.13   -17292.506    1280.8457   -18573.351    133.13663    240.86164 
   32600    93.747294   -393.88069    72742.274   -17303.099    1269.7884   -18572.887    133.24446    238.78235 
   32650    93.332603    -443.6071     72826.28   -17295.558    1264.1715   -18559.729    133.94523    237.72609 
   32700     93.63271   -573.81297    72883.579   -17290.167    1268.2364   -18558.404    134.22202    238.49049 
   32750    93.990525   -124.50775     72884.19   -17239.198    1273.0829   -18512.281    133.64258    239.40187 
   32800    93.284999   -763.92571    72817.202   -17244.348    1263.5267   -18507.875    133.96011    237.60484 
   32850    91.850194   -436.11361    72834.638   -17255.099    1244.0926   -18499.191    134.27456    233.95027 
   32900    92.851797   -619.32477    72800.535   -17231.684    1257.6591   -18489.343    134.56465    236.50144 
   32950    91.584963   -562.82745    72744.318    -17265.13    1240.5001    -18505.63    134.91647     233.2747 
   33000     92.90837   -602.77353    72758.505   -17284.097    1258.4254   -18542.522    134.95924    236.64553 
   33050    94.364131   -447.65136    72738.991   -17271.459    1278.1434   -18549.602    135.06907    240.35348 
   33100    90.692872   -792.74594     72742.63   -17290.556    1228.4169   -18518.973    135.43695    231.00247 
   33150    94.633303   -470.79151    72743.759   -17283.797    1281.7892   -18565.586    136.03531    241.03909 
   33200    92.966473   -367.72198    72843.189   -17294.098    1259.2124   -18553.311    136.29385    236.79353 
   33250    93.679262   -571.55441    72865.771   -17274.309     1268.867   -18543.176    136.53292    238.60906 
   33300    92.770201   -516.39228    72860.747   -17257.444    1256.5539   -18513.998    136.34731    236.29361 
   33350    93.358598   -413.50041    72904.262   -17266.992    1264.5236   -18531.516    136.54427     237.7923 
   33400    94.031246   -461.90235    72935.322   -17250.898    1273.6345   -18524.533    136.88829    239.50559 
   33450    92.499547   -297.58312    72919.556   -17259.593    1252.8879   -18512.481    136.37328    235.60423 
   33500    93.430515   -414.42692     72951.81   -17273.999    1265.4977   -18539.497    136.36038    237.97548 
   33550    94.925412   -598.11301    72937.252   -17274.428    1285.7458   -18560.173    136.22407    241.78311 
   33600    92.451941   -558.71088    72921.685   -17282.314    1252.2431   -18534.557    136.06431    235.48297 
   33650    92.637273   -435.76978    72897.206   -17278.501    1254.7534   -18533.254    136.07626    235.95503 
   33700    95.001557   -323.91185     72945.64   -17272.621    1286.7772   -18559.398    136.25835    241.97706 
   33750    94.513608   -481.06572    73002.556   -17241.182     1280.168    -18521.35    136.47223    240.73421 
   33800    92.989111   -107.79508    73006.818   -17239.852     1259.519   -18499.371    136.74971    236.85119 
   33850    96.299118   -255.51679    73009.481   -17237.945    1304.3524   -18542.298    136.90385    245.28206 
   33900    95.285333   -315.99734    73063.381   -17234.498    1290.6209   -18525.119    137.60429    242.69986 
   33950    94.618033   -719.26106    73101.592   -17239.313    1281.5824   -18520.896    138.57174    241.00019 
[...]
   92000    93.738996   -478.65562    72893.736   -17309.093     1269.676   -18578.769    343.20405    238.76121 
   92050    93.494231   -438.59717    72993.596   -17268.108    1266.3607   -18534.468    343.48896    238.13777 
   92100    97.753095   -324.99075     72990.66   -17254.505    1324.0462   -18578.551    344.10697    248.98546 
   92150    94.674994   -465.77566    72970.589   -17264.209    1282.3539   -18546.563     343.6771    241.14528 
   92200    96.057931   -505.71583    72942.008   -17237.876    1301.0855   -18538.961    344.17419    244.66773 
   92250    96.039649   -464.30017    72995.231   -17242.748    1300.8379   -18543.586    344.38307    244.62117 
   92300    93.715136   -873.87985    73040.678   -17299.976    1269.3529   -18569.329    344.34257    238.70044 
   92350    92.157763   -621.89953    73050.216   -17310.489    1248.2585   -18558.747    345.14858    234.73367 
   92400    93.294043   -400.25534    73069.499   -17311.817    1263.6492   -18575.467    345.47718    237.62788 
   92450    92.925163   -466.91801    73040.498   -17316.012    1258.6528   -18574.665    345.42804    236.68831 
   92500    92.482164   -636.80046    73032.757   -17306.961    1252.6525   -18559.613     345.1392    235.55995 
   92550    92.382398   -724.86019    73007.131   -17306.255    1251.3012   -18557.557    344.89369    235.30584 
   92600    93.569489   -657.36692     72967.66   -17276.003    1267.3801   -18543.383    344.81985    238.32946 
   92650    94.578282   -162.55009    73028.182   -17285.052     1281.044   -18566.096    344.88749    240.89894 
   92700    97.475888   -545.16959    73076.097   -17251.946    1320.2915   -18572.237    344.80377    248.27939 
   92750    93.162639   -414.85345     73082.51   -17260.116    1261.8694   -18521.986     344.9497    237.29318 
   92800    94.966049   -578.64265    73084.807   -17259.717    1286.2962   -18546.013    344.50499    241.88662 
   92850    96.916935   -245.48004    73103.502   -17267.611    1312.7206   -18580.332     344.5578    246.85569 
   92900    94.105025   -976.59813     73125.42   -17269.187    1274.6338   -18543.821    345.13883    239.69352 
   92950    94.334662   -424.55399    73090.855    -17274.11    1277.7442   -18551.854    344.71416    240.27842 
   93000    92.630848   -471.71597    73048.176   -17266.784    1254.6664    -18521.45    344.26663    235.93866 
   93050     93.67596   -176.79995    73108.524    -17241.83    1268.8222   -18510.653    345.45603    238.60065 
   93100    94.670299   -341.62392    73144.599   -17247.295    1282.2903   -18529.585    345.50417    241.13332 
   93150    94.583215   -346.81536    73141.041   -17242.879    1281.1108   -18523.989    345.35404    240.91151 
   93200    93.672883   -539.63294     73162.14   -17268.915    1268.7805   -18537.696    345.96984    238.59281 
   93250    94.654877   -403.93989    73164.421   -17281.686    1282.0815   -18563.768     345.2998    241.09404 
   93300     95.97989   -605.13383    73123.386   -17237.541    1300.0285   -18537.569    345.67502    244.46896 
   93350    94.650355   -468.38218    73109.095   -17248.284    1282.0202   -18530.304    345.84138    241.08252 
   93400    96.588756   -207.20866    73043.339   -17259.089    1308.2755   -18567.365    345.43195    246.01979 
   93450    96.178646   -528.69971    73035.468   -17229.595    1302.7206   -18532.316    345.55292    244.97521 
   93500    95.210671   -801.79978    73041.265   -17229.048    1289.6096   -18518.657    345.56076    242.50969 
   93550     95.25288   -620.94021    73009.164   -17202.538    1290.1813   -18492.719      346.117     242.6172 
   93600    97.306434   -497.02335    72914.463   -17229.878    1317.9963   -18547.875    346.50254    247.84778 
   93650    95.426031   -414.52873    72820.895    -17254.92    1292.5266   -18547.447    346.28634    243.05823 
   93700    96.472579   -412.00778    72793.795   -17228.088    1306.7019    -18534.79    346.18966    245.72388 
   93750    96.629728   -534.96687    72724.308   -17252.349    1308.8304   -18561.179    346.53452    246.12415 
   93800    94.749567   -655.66195    72731.144   -17300.574     1283.364   -18583.938    346.42642    241.33522 
   93850     92.29598    -508.9231    72664.847    -17320.57    1250.1307     -18570.7    347.02596    235.08572 
   93900    89.808448   -543.77642     72651.64   -17337.939    1216.4375   -18554.377    346.79484    228.74977 
   93950    93.719976   -530.48329    72651.597   -17291.344    1269.4184   -18560.762    347.26873    238.71276 
   94000    94.287453   -488.76399    72643.156   -17297.394    1277.1048   -18574.499    346.87039    240.15818 
   94050    92.428487   -484.67884    72624.604   -17316.754    1251.9254   -18568.679    347.18605    235.42323 
   94100    92.413515   -781.87299    72656.875   -17335.958    1251.7227    -18587.68    347.21326     235.3851 
   94150    92.046472   -409.62299    72665.994   -17285.489    1246.7511    -18532.24    347.77064    234.45021 
   94200    91.982837   -503.60722    72694.631   -17297.513    1245.8892   -18543.402    347.26971    234.28812 
   94250    94.050328   -916.47948    72666.577    -17321.28     1273.893   -18595.173    347.72415     239.5542 
   94300     91.38949   -644.49695    72613.092   -17296.311    1237.8524   -18534.164    347.35819    232.77682 
   94350    92.747087   -515.65746    72608.226   -17289.043    1256.2408   -18545.284    347.07895    236.23473 
   94400    91.519538   -399.68263     72590.52    -17279.23    1239.6139   -18518.844    346.86631    233.10806 
   94450    95.465479   -495.36148     72614.88   -17237.862    1293.0609   -18530.923    347.20672    243.15871 
   94500     96.19061   -210.91833    72664.611   -17201.938    1302.8827    -18504.82    347.53861    245.00568 
   94550    96.062228   -99.377336    72710.109   -17187.587    1301.1438   -18488.731    347.35032    244.67868 
   94600    97.033029    -360.5723    72712.916   -17167.498     1314.293   -18481.791     347.4072    247.15139 
   94650    94.904702     -610.534    72679.797   -17167.549    1285.4653   -18453.014    347.42783    241.73036 
   94700    96.725039     -266.017    72641.958   -17177.565    1310.1214   -18487.686    346.96125    246.36691 
   94750    96.332689   -360.67488    72587.253   -17170.895    1304.8071   -18475.702    347.59772    245.36757 
   94800    95.648711   -26.564152    72588.193   -17194.175    1295.5427   -18489.718    346.93034    243.62542 
   94850    95.734294   -550.61433    72563.817   -17169.961    1296.7019   -18466.663    347.44932     243.8434 
   94900    96.962403   -576.03959    72538.157   -17161.935    1313.3364   -18475.271    347.82884     246.9715 
   94950    95.217852   -74.960347    72600.234   -17158.824    1289.7068   -18448.531    348.17436    242.52798 
   95000    94.382134   -358.25094        72665   -17137.789    1278.3872   -18416.177    348.51312    240.39934 
   95050    97.099596   -181.43585    72721.793   -17100.745    1315.1947    -18415.94    349.01993    247.32094 
   95100    93.993305   -517.66453    72639.747   -17124.932    1273.1206   -18398.053    349.51255    239.40896 
   95150    94.840834   -417.46071    72637.828   -17118.953    1284.6002   -18403.554    349.60062    241.56768 
   95200    98.093527     -465.833    72624.528   -17147.378    1328.6573   -18476.035     350.3123    249.85257 
   95250    96.315649   -443.68728    72559.895   -17167.944    1304.5763    -18472.52    350.15824    245.32416 
   95300    94.681357   -65.059143    72613.431   -17168.404    1282.4401   -18450.844    350.99907    241.16148 
   95350    97.448329   -541.34344    72661.314   -17165.995    1319.9182   -18485.913     351.6096     248.2092 
   95400    94.507087   -559.25867    72669.322   -17238.039    1280.0797   -18518.118      351.733     240.7176 
   95450    94.704544   -510.00091    72702.497   -17237.273    1282.7542   -18520.027    351.56304    241.22054 
   95500    92.633004   -755.74088     72685.92   -17243.725    1254.6956    -18498.42    352.10012    235.94415 
   95550    94.915035   -78.247651    72720.261   -17187.243    1285.6052   -18472.848    352.25254    241.75668 
   95600    95.597432   -429.04936    72764.389   -17214.711    1294.8482   -18509.559    351.63928    243.49481 
   95650    95.277626   -1018.2304    72649.431   -17204.186    1290.5165   -18494.703    351.33949    242.68023 
   95700    94.186823   -820.61535    72558.719   -17197.016    1275.7418   -18472.758    351.14782    239.90186 
   95750    93.993539   -864.82611    72452.534   -17266.825    1273.1238   -18539.948    351.85636    239.40955 
   95800    92.719539   -447.02789    72468.782   -17224.554    1255.8677   -18480.421     351.8431    236.16457 
   95850    93.409501   -496.94183    72424.738   -17247.805    1265.2131   -18513.018    351.59514    237.92196 
   95900    94.570585   -440.81787    72427.672   -17226.371    1280.9397   -18507.311    352.20612    240.87934 
   95950    94.774019   -583.83793    72436.551   -17197.139    1283.6952   -18480.835    352.64166     241.3975 
   96000    93.682448    -199.8529    72483.895   -17193.417    1268.9101   -18462.327    352.89954    238.61718 
   96050    96.101594   -498.04942    72528.475   -17185.624     1301.677   -18487.301    352.85893    244.77895 
   96100     92.49042   -669.51722    72514.594   -17226.742    1252.7643   -18479.506    352.84516    235.58098 
   96150     92.67565   -596.94469    72479.031   -17243.518    1255.2732   -18498.792    353.09086    236.05278 
   96200     92.00655   -411.60808    72445.845   -17256.578    1246.2104   -18502.788    353.07082    234.34852 
   96250    96.233682   -672.04153    72392.024   -17218.149    1303.4661   -18521.615    353.47271    245.11539 
   96300    94.108722   -30.602253    72339.297   -17195.585    1274.6839   -18470.269    353.73462    239.70293 
   96350    94.215583   -141.41895    72336.204   -17175.936    1276.1313   -18452.068    353.76483    239.97512 
   96400    94.196069   -233.39872    72335.903   -17203.925     1275.867   -18479.792    354.12596    239.92541 
   96450    91.804406   -383.55352    72326.243   -17225.823    1243.4724   -18469.296    353.86137    233.83364 
   96500    94.440967   -384.62164    72324.055   -17210.121    1279.1841   -18489.305    354.79027    240.54919 
   96550    94.456595   -578.93562    72301.205   -17180.735    1279.3958    -18460.13    354.91955      240.589 
   96600     96.73204   -249.34776    72321.005   -17176.503    1310.2162    -18486.72     355.1814    246.38475 
   96650    93.986476   -194.52115    72345.402   -17191.859    1273.0281   -18464.887    355.93402    239.39156 
   96700    92.881335   -386.71705    72322.696   -17199.341    1258.0592     -18457.4    355.81235    236.57667 
   96750    93.025414   -623.43651    72298.204   -17210.268    1260.0107   -18470.279    355.76934    236.94366 
   96800    96.276065   -459.04798    72308.841     -17197.3    1304.0401    -18501.34     355.8935    245.22334 
   96850    95.334414   -331.34758    72311.739   -17196.903    1291.2857   -18488.189    356.26848    242.82488 
   96900    94.000302   -128.62317    72320.723    -17184.51    1273.2154   -18457.725    356.46029    239.42678 
   96950    94.250044   -435.71216    72363.368   -17224.607    1276.5981   -18501.205    356.58011    240.06289 
   97000    92.620787   -216.04302    72383.793   -17251.376    1254.5301   -18505.906    356.75807    235.91304 
   97050    95.248225   -521.52247    72321.007   -17222.788    1290.1182   -18512.906    356.70336    242.60534 
   97100    94.367408   -641.60338    72232.218   -17207.961    1278.1877   -18486.149    357.60162    240.36183 
   97150    97.763026    -492.0383    72206.473   -17179.992    1324.1807   -18504.173    357.33216    249.01076 
   97200     93.59419   -419.66201    72247.056   -17222.123    1267.7147   -18489.838    358.49547    238.39238 
   97250    94.696561   -307.36256    72290.911   -17219.781    1282.6461   -18502.427    358.41589    241.20021 
   97300    95.301903   -321.38421    72320.131   -17179.058    1290.8453   -18469.904    358.31891    242.74207 
   97350    95.310417   -333.95949    72302.381   -17209.345    1290.9606   -18500.306    358.62971    242.76375 
   97400    94.173615   -27.335946    72293.235   -17204.882    1275.5629   -18480.445    358.44881    239.86822 
   97450    94.601351   -430.85164    72318.977   -17196.551    1281.3565   -18477.908     359.2818     240.9577 
   97500    93.695531   -34.897482    72356.486   -17202.126    1269.0873   -18471.213    359.09616     238.6505 
   97550    92.691446   -293.81688    72443.879   -17243.533    1255.4872    -18499.02    359.63705    236.09301 
   97600    92.207048    -262.3954    72492.333    -17226.71    1248.9261   -18475.636     359.9165    234.85921 
   97650    96.118587   -58.542816    72571.058   -17175.054    1301.9071   -18476.961    359.66925    244.82223 
   97700    94.860235   -807.39399    72582.929   -17189.204     1284.863   -18474.067    361.34894     241.6171 
   97750    91.526301   -374.81161    72574.487   -17188.627    1239.7055   -18428.333    361.34487    233.12529 
   97800    94.459059   -391.92481    72557.887    -17189.01    1279.4291   -18468.439    361.52101    240.59527 
   97850    93.722602   -704.18985    72602.051   -17214.968     1269.454   -18484.422    362.17806    238.71945 
   97900    94.998093   -387.54085    72606.897   -17231.498    1286.7303   -18518.229    362.48781    241.96824 
   97950    92.573109   -552.34109    72590.519   -17254.699    1253.8843   -18508.583    362.95072     235.7916 
   98000    93.939397   -397.25811    72563.141   -17236.557    1272.3904   -18508.947    363.14002    239.27165 
   98050    93.288576   -220.84161    72570.833   -17213.599    1263.5752   -18477.174    363.40994    237.61395 
   98100    94.702145   -384.03681    72536.254   -17197.096    1282.7217   -18479.818    363.23346    241.21443 
   98150    94.177556   -574.69272    72599.925   -17171.028    1275.6162   -18446.644      363.378    239.87826 
   98200    95.673648   -575.58306    72585.383   -17182.908    1295.8805   -18478.788    363.91278    243.68893 
   98250    98.419048   -312.41411    72631.298   -17149.142    1333.0664   -18482.209     363.8934     250.6817 
   98300    94.905136   -353.46589    72670.445   -17225.479    1285.4712    -18510.95    363.64155    241.73147 
   98350    92.209151    -387.9455     72672.12   -17244.125    1248.9546    -18493.08    363.26844    234.86456 
   98400     93.35274   -423.20127    72673.377    -17252.46    1264.4443   -18516.905    363.11594    237.77738 
   98450    94.213447   -87.414942    72675.517   -17229.071    1276.1024   -18505.173    363.19447    239.96968 
   98500    93.303461   -248.60212    72674.048   -17238.984    1263.7768   -18502.761    363.89412    237.65187 
   98550    91.594065   -293.87411    72709.166   -17251.615    1240.6234   -18492.238     363.4964    233.29789 
   98600    91.366077   -921.94811    72717.693   -17261.848    1237.5353   -18499.383    363.63985    232.71718 
   98650    92.169009    -658.1007    72709.001    -17270.72    1248.4109   -18519.131    362.66976    234.76232 
   98700    95.232453   -413.70609    72711.716   -17224.287    1289.9046   -18514.192    363.15517    242.56517 
   98750    92.371735   -553.55506    72698.387   -17222.475    1251.1568   -18473.631    362.93168    235.27868 
   98800    93.968406   -382.43254    72744.018   -17252.839    1272.7834   -18525.622     363.3012    239.34554 
   98850    93.608935   -327.13788    72783.798   -17272.048    1267.9144   -18539.962     363.3021    238.42993 
   98900    94.179206   -463.16691     72796.41   -17291.353    1275.6386   -18566.991    363.33942    239.88246 
   98950    95.078139   -463.40785    72807.125   -17277.982    1287.8145   -18565.796    363.23976    242.17212 
   99000    92.058459    -545.9649    72759.876   -17304.046    1246.9135   -18550.959    363.55224    234.48074 
   99050    94.580899   -730.04063    72712.648   -17297.191    1281.0794   -18578.271    363.41557    240.90561 
   99100    94.464242   -516.10599    72692.242   -17260.231    1279.4994    -18539.73    364.07296    240.60847 
   99150    92.143429   -437.92931    72701.108   -17273.282    1248.0644   -18521.346    364.55714    234.69716 
   99200     92.18588    -556.2365    72622.861    -17284.22    1248.6394   -18532.859    364.67828    234.80529 
   99250    92.761271   -750.70578    72646.836   -17280.658    1256.4329   -18537.091     365.1961    236.27086 
   99300    93.442734   -858.15101     72635.34   -17271.943    1265.6632   -18537.606    365.22945     238.0066 
   99350    94.461772    -108.0996    72666.968   -17265.283    1279.4659   -18544.749    364.87214    240.60218 
   99400    92.733147   -212.79265    72687.064   -17273.678     1256.052    -18529.73    365.03464    236.19923 
   99450    91.560744   -594.82828     72675.25   -17271.119    1240.1721   -18511.291    365.23381    233.21302 
   99500    96.242777   -519.60155     72632.49   -17249.414    1303.5892   -18553.003    365.76414    245.13855 
   99550    94.093831   -250.00475    72650.078   -17221.643    1274.4822   -18496.125    365.62577      239.665 
   99600    94.160165   -512.88459    72667.591   -17229.358    1275.3807   -18504.739    365.99424    239.83396 
   99650    95.860836   -416.46129    72679.405   -17244.183    1298.4159   -18542.599    365.96364    244.16572 
   99700    93.875635   -145.63598    72658.989   -17275.797    1271.5268   -18547.323    366.22485    239.10924 
   99750    93.966149   -1065.2007     72684.44   -17296.557    1272.7528    -18569.31    366.55928    239.33979 
   99800    95.104741   -554.94535     72661.82   -17282.983    1288.1748   -18571.158    366.68663    242.23988 
   99850    95.255054   -600.57007     72734.59   -17293.117    1290.2107   -18583.328    367.40224    242.62274 
   99900     95.87747   -549.23038    72721.683   -17259.799    1298.6412    -18558.44    367.08006    244.20808 
   99950    94.798645   -273.29762     72726.37   -17249.922    1284.0288   -18533.951    366.79402    241.46023 
  100000     92.29345   -602.06004    72699.941   -17301.698    1250.0964   -18551.795    366.62062    235.07928 
Loop time of 96.26 on 32 procs for 100000 steps with 4545 atoms

Performance: 448.784 ns/day, 0.053 hours/ns, 1038.853 timesteps/s
99.9% CPU use with 32 MPI tasks x no OpenMP threads

MPI task timing breakdown:
Section |  min time  |  avg time  |  max time  |%varavg| %total
---------------------------------------------------------------
Pair    | 56.921     | 64.08      | 72.538     |  82.2 | 66.57
Neigh   | 1.2276     | 2.8733     | 4.9366     |  96.2 |  2.98
Comm    | 13.096     | 22.654     | 31.41      | 165.2 | 23.53
Output  | 0.10048    | 0.1058     | 0.19994    |   5.2 |  0.11
Modify  | 4.5755     | 5.6869     | 7.0841     |  24.5 |  5.91
Other   |            | 0.86       |            |       |  0.89

Nlocal:    142.031 ave 219 max 72 min
Histogram: 16 0 0 0 0 0 0 0 8 8
Nghost:    952.562 ave 1006 max 904 min
Histogram: 12 4 0 0 0 0 0 2 8 6
Neighs:    0 ave 0 max 0 min
Histogram: 32 0 0 0 0 0 0 0 0 0
FullNghs:  14593.8 ave 26502 max 3748 min
Histogram: 16 0 0 0 0 0 0 0 3 13

Total # of neighbors = 467002
Ave neighs/atom = 102.751
Neighbor list builds = 5669
Dangerous builds = 0

write_data		${DIR}/data.eq-${NAME}-${TEMP}
write_data		run_6/data.eq-${NAME}-${TEMP}
write_data		run_6/data.eq-het_freeze_6-${TEMP}
write_data		run_6/data.eq-het_freeze_6-240
undump          1

reset_timestep  0

unfix           2
unfix           3
unfix           4


################################################
#######         Run Simulation         #########
################################################

log				${DIR}/log.run_${NAME}
log				run_6/log.run_${NAME}
log				run_6/log.run_het_freeze_6
