LAMMPS data file via write_data, version 16 Mar 2018, timestep = 100000

4545 atoms
2 atom types

0.0000000000000000e+00 4.9219999999999999e+01 xlo xhi
0.0000000000000000e+00 4.9019635930410494e+01 ylo yhi
1.7157180599980819e+00 3.1919621726524532e+01 zlo zhi

Masses

1 18.015
2 12.01

Atoms # atomic

91 2 0.0000000000000000e+00 2.8417180249513345e+00 3.2216325764040210e+00 0 0 0
93 2 0.0000000000000000e+00 0.0000000000000000e+00 3.2216325764040210e+00 0 0 0
95 2 1.2305000000000001e+00 7.1042950623783474e-01 3.2216325764040210e+00 0 0 0
102 2 1.2305000000000001e+00 2.1312885187134998e+00 3.2216325764040210e+00 0 0 0
104 2 2.4610000000000003e+00 2.8417180249513345e+00 3.2216325764040210e+00 0 0 0
106 2 2.4610000000000003e+00 0.0000000000000000e+00 3.2216325764040210e+00 0 0 0
108 2 3.6915000000000004e+00 7.1042950623783474e-01 3.2216325764040210e+00 0 0 0
123 2 3.6914999999999996e+00 2.1312885187134998e+00 3.2216325764040210e+00 0 0 0
125 2 4.9220000000000006e+00 2.8417180249513332e+00 3.2216325764040210e+00 0 0 0
127 2 4.9220000000000006e+00 0.0000000000000000e+00 3.2216325764040210e+00 0 0 0
129 2 6.1524999999999999e+00 7.1042950623783407e-01 3.2216325764040210e+00 0 0 0
152 2 6.1524999999999999e+00 2.1312885187134989e+00 3.2216325764040210e+00 0 0 0
154 2 7.3829999999999991e+00 2.8417180249513345e+00 3.2216325764040210e+00 0 0 0
156 2 7.3829999999999991e+00 0.0000000000000000e+00 3.2216325764040210e+00 0 0 0
158 2 8.6134999999999984e+00 7.1042950623783407e-01 3.2216325764040210e+00 0 0 0
189 2 8.6134999999999984e+00 2.1312885187135002e+00 3.2216325764040210e+00 0 0 0
191 2 9.8440000000000012e+00 2.8417180249513332e+00 3.2216325764040210e+00 0 0 0
193 2 9.8440000000000012e+00 0.0000000000000000e+00 3.2216325764040210e+00 0 0 0
195 2 1.1074500000000002e+01 7.1042950623783330e-01 3.2216325764040210e+00 0 0 0
234 2 1.1074500000000002e+01 2.1312885187135002e+00 3.2216325764040210e+00 0 0 0
98 2 0.0000000000000000e+00 4.2625770374269996e+00 3.2216325764040210e+00 0 0 0
100 2 1.2305000000000001e+00 4.9730065436648339e+00 3.2216325764040210e+00 0 0 0
115 2 1.2305000000000001e+00 6.3938655561404980e+00 3.2216325764040210e+00 0 0 0
119 2 2.4610000000000003e+00 4.2625770374269996e+00 3.2216325764040210e+00 0 0 0
121 2 3.6914999999999996e+00 4.9730065436648339e+00 3.2216325764040210e+00 0 0 0
144 2 3.6914999999999996e+00 6.3938655561404980e+00 3.2216325764040210e+00 0 0 0
96 2 0.0000000000000000e+00 7.1042950623783341e+00 3.2216325764040210e+00 0 0 0
117 2 2.4610000000000003e+00 7.1042950623783341e+00 3.2216325764040210e+00 0 0 0
148 2 4.9220000000000006e+00 4.2625770374269978e+00 3.2216325764040210e+00 0 0 0
150 2 6.1524999999999999e+00 4.9730065436648339e+00 3.2216325764040210e+00 0 0 0
181 2 6.1524999999999999e+00 6.3938655561404980e+00 3.2216325764040210e+00 0 0 0
185 2 7.3829999999999991e+00 4.2625770374269996e+00 3.2216325764040210e+00 0 0 0
146 2 4.9220000000000006e+00 7.1042950623783341e+00 3.2216325764040210e+00 0 0 0
183 2 7.3830000000000009e+00 7.1042950623783341e+00 3.2216325764040210e+00 0 0 0
187 2 8.6135000000000002e+00 4.9730065436648339e+00 3.2216325764040210e+00 0 0 0
226 2 8.6135000000000002e+00 6.3938655561404980e+00 3.2216325764040210e+00 0 0 0
230 2 9.8440000000000012e+00 4.2625770374270004e+00 3.2216325764040210e+00 0 0 0
232 2 1.1074500000000002e+01 4.9730065436648339e+00 3.2216325764040210e+00 0 0 0
273 2 1.1074500000000002e+01 6.3938655561404980e+00 3.2216325764040210e+00 0 0 0
228 2 9.8440000000000012e+00 7.1042950623783341e+00 3.2216325764040210e+00 0 0 0
111 2 0.0000000000000000e+00 8.5251540748539991e+00 3.2216325764040210e+00 0 0 0
113 2 1.2305000000000001e+00 9.2355835810918343e+00 3.2216325764040210e+00 0 0 0
140 2 2.4610000000000003e+00 8.5251540748539991e+00 3.2216325764040210e+00 0 0 0
142 2 3.6915000000000004e+00 9.2355835810918343e+00 3.2216325764040210e+00 0 0 0
109 2 0.0000000000000000e+00 1.1366872099805333e+01 3.2216325764040210e+00 0 0 0
136 2 1.2305000000000001e+00 1.0656442593567498e+01 3.2216325764040210e+00 0 0 0
138 2 2.4610000000000003e+00 1.1366872099805333e+01 3.2216325764040210e+00 0 0 0
173 2 3.6914999999999996e+00 1.0656442593567499e+01 3.2216325764040210e+00 0 0 0
177 2 4.9220000000000006e+00 8.5251540748539991e+00 3.2216325764040210e+00 0 0 0
179 2 6.1524999999999999e+00 9.2355835810918343e+00 3.2216325764040210e+00 0 0 0
222 2 7.3830000000000009e+00 8.5251540748539991e+00 3.2216325764040210e+00 0 0 0
175 2 4.9220000000000006e+00 1.1366872099805333e+01 3.2216325764040210e+00 0 0 0
218 2 6.1524999999999999e+00 1.0656442593567499e+01 3.2216325764040210e+00 0 0 0
220 2 7.3829999999999991e+00 1.1366872099805333e+01 3.2216325764040210e+00 0 0 0
224 2 8.6134999999999984e+00 9.2355835810918343e+00 3.2216325764040210e+00 0 0 0
269 2 9.8440000000000012e+00 8.5251540748539956e+00 3.2216325764040210e+00 0 0 0
271 2 1.1074500000000002e+01 9.2355835810918343e+00 3.2216325764040210e+00 0 0 0
265 2 8.6134999999999984e+00 1.0656442593567498e+01 3.2216325764040210e+00 0 0 0
267 2 9.8440000000000012e+00 1.1366872099805333e+01 3.2216325764040210e+00 0 0 0
312 2 1.1074500000000002e+01 1.0656442593567498e+01 3.2216325764040210e+00 0 0 0
314 2 1.2304999999999998e+01 1.1366872099805333e+01 3.2216325764040210e+00 0 0 0
92 2 0.0000000000000000e+00 1.4208590124756650e+00 6.2334616092155679e+00 0 0 0
94 2 0.0000000000000000e+00 0.0000000000000000e+00 6.2334616092155679e+00 0 0 0
103 2 1.2305000000000001e+00 2.1312885187134998e+00 6.2334616092155679e+00 0 0 0
105 2 2.4610000000000003e+00 1.4208590124756650e+00 6.2334616092155679e+00 0 0 0
107 2 2.4610000000000003e+00 0.0000000000000000e+00 6.2334616092155679e+00 0 0 0
124 2 3.6914999999999996e+00 2.1312885187134998e+00 6.2334616092155679e+00 0 0 0
420 2 0.0000000000000000e+00 2.8417180249513345e+00 9.2452906420268768e+00 0 0 0
421 2 0.0000000000000000e+00 0.0000000000000000e+00 9.2452906420268768e+00 0 0 0
422 2 1.2305000000000001e+00 7.1042950623783474e-01 9.2452906420268768e+00 0 0 0
426 2 1.2305000000000001e+00 2.1312885187134998e+00 9.2452906420268768e+00 0 0 0
427 2 2.4610000000000003e+00 2.8417180249513345e+00 9.2452906420268768e+00 0 0 0
428 2 2.4610000000000003e+00 0.0000000000000000e+00 9.2452906420268768e+00 0 0 0
429 2 3.6915000000000004e+00 7.1042950623783474e-01 9.2452906420268768e+00 0 0 0
437 2 3.6914999999999996e+00 2.1312885187134998e+00 9.2452906420268768e+00 0 0 0
101 2 1.2305000000000001e+00 3.5521475311891644e+00 6.2334616092155679e+00 0 0 0
122 2 3.6914999999999996e+00 3.5521475311891644e+00 6.2334616092155679e+00 0 0 0
126 2 4.9220000000000006e+00 1.4208590124756650e+00 6.2334616092155679e+00 0 0 0
128 2 4.9220000000000006e+00 0.0000000000000000e+00 6.2334616092155679e+00 0 0 0
153 2 6.1524999999999999e+00 2.1312885187134989e+00 6.2334616092155679e+00 0 0 0
155 2 7.3829999999999991e+00 1.4208590124756659e+00 6.2334616092155679e+00 0 0 0
157 2 7.3829999999999991e+00 0.0000000000000000e+00 6.2334616092155679e+00 0 0 0
438 2 4.9220000000000006e+00 2.8417180249513332e+00 9.2452906420268768e+00 0 0 0
439 2 4.9220000000000006e+00 0.0000000000000000e+00 9.2452906420268768e+00 0 0 0
440 2 6.1524999999999999e+00 7.1042950623783407e-01 9.2452906420268768e+00 0 0 0
452 2 6.1524999999999999e+00 2.1312885187134989e+00 9.2452906420268768e+00 0 0 0
453 2 7.3829999999999991e+00 2.8417180249513345e+00 9.2452906420268768e+00 0 0 0
454 2 7.3829999999999991e+00 0.0000000000000000e+00 9.2452906420268768e+00 0 0 0
151 2 6.1524999999999999e+00 3.5521475311891644e+00 6.2334616092155679e+00 0 0 0
190 2 8.6134999999999984e+00 2.1312885187135002e+00 6.2334616092155679e+00 0 0 0
192 2 9.8440000000000012e+00 1.4208590124756659e+00 6.2334616092155679e+00 0 0 0
194 2 9.8440000000000012e+00 0.0000000000000000e+00 6.2334616092155679e+00 0 0 0
235 2 1.1074500000000002e+01 2.1312885187135002e+00 6.2334616092155679e+00 0 0 0
455 2 8.6134999999999984e+00 7.1042950623783407e-01 9.2452906420268768e+00 0 0 0
471 2 8.6134999999999984e+00 2.1312885187135002e+00 9.2452906420268768e+00 0 0 0
472 2 9.8440000000000012e+00 2.8417180249513332e+00 9.2452906420268768e+00 0 0 0
473 2 9.8440000000000012e+00 0.0000000000000000e+00 9.2452906420268768e+00 0 0 0
474 2 1.1074500000000002e+01 7.1042950623783330e-01 9.2452906420268768e+00 0 0 0
494 2 1.1074500000000002e+01 2.1312885187135002e+00 9.2452906420268768e+00 0 0 0
188 2 8.6134999999999984e+00 3.5521475311891657e+00 6.2334616092155679e+00 0 0 0
233 2 1.1074500000000002e+01 3.5521475311891644e+00 6.2334616092155679e+00 0 0 0
97 2 0.0000000000000000e+00 5.6834360499026637e+00 6.2334616092155679e+00 0 0 0
99 2 0.0000000000000000e+00 4.2625770374269996e+00 6.2334616092155679e+00 0 0 0
116 2 1.2305000000000001e+00 6.3938655561404980e+00 6.2334616092155679e+00 0 0 0
118 2 2.4610000000000003e+00 5.6834360499026637e+00 6.2334616092155679e+00 0 0 0
120 2 2.4610000000000003e+00 4.2625770374269996e+00 6.2334616092155679e+00 0 0 0
145 2 3.6914999999999996e+00 6.3938655561404980e+00 6.2334616092155679e+00 0 0 0
424 2 0.0000000000000000e+00 4.2625770374269996e+00 9.2452906420268768e+00 0 0 0
425 2 1.2305000000000001e+00 4.9730065436648339e+00 9.2452906420268768e+00 0 0 0
433 2 1.2305000000000001e+00 6.3938655561404980e+00 9.2452906420268768e+00 0 0 0
435 2 2.4610000000000003e+00 4.2625770374269996e+00 9.2452906420268768e+00 0 0 0
436 2 3.6914999999999996e+00 4.9730065436648339e+00 9.2452906420268768e+00 0 0 0
448 2 3.6914999999999996e+00 6.3938655561404980e+00 9.2452906420268768e+00 0 0 0
114 2 1.2305000000000001e+00 7.8147245686161639e+00 6.2334616092155679e+00 0 0 0
143 2 3.6914999999999996e+00 7.8147245686161639e+00 6.2334616092155679e+00 0 0 0
423 2 0.0000000000000000e+00 7.1042950623783341e+00 9.2452906420268768e+00 0 0 0
434 2 2.4610000000000003e+00 7.1042950623783341e+00 9.2452906420268768e+00 0 0 0
147 2 4.9220000000000006e+00 5.6834360499026637e+00 6.2334616092155679e+00 0 0 0
149 2 4.9220000000000006e+00 4.2625770374269978e+00 6.2334616092155679e+00 0 0 0
182 2 6.1524999999999999e+00 6.3938655561404980e+00 6.2334616092155679e+00 0 0 0
184 2 7.3829999999999991e+00 5.6834360499026637e+00 6.2334616092155679e+00 0 0 0
186 2 7.3829999999999991e+00 4.2625770374269996e+00 6.2334616092155679e+00 0 0 0
450 2 4.9220000000000006e+00 4.2625770374269978e+00 9.2452906420268768e+00 0 0 0
451 2 6.1524999999999999e+00 4.9730065436648339e+00 9.2452906420268768e+00 0 0 0
467 2 6.1524999999999999e+00 6.3938655561404980e+00 9.2452906420268768e+00 0 0 0
469 2 7.3829999999999991e+00 4.2625770374269996e+00 9.2452906420268768e+00 0 0 0
180 2 6.1524999999999999e+00 7.8147245686161639e+00 6.2334616092155679e+00 0 0 0
449 2 4.9220000000000006e+00 7.1042950623783341e+00 9.2452906420268768e+00 0 0 0
468 2 7.3830000000000009e+00 7.1042950623783341e+00 9.2452906420268768e+00 0 0 0
227 2 8.6135000000000002e+00 6.3938655561404980e+00 6.2334616092155679e+00 0 0 0
229 2 9.8440000000000012e+00 5.6834360499026637e+00 6.2334616092155679e+00 0 0 0
231 2 9.8440000000000012e+00 4.2625770374270004e+00 6.2334616092155679e+00 0 0 0
274 2 1.1074500000000002e+01 6.3938655561404980e+00 6.2334616092155679e+00 0 0 0
470 2 8.6135000000000002e+00 4.9730065436648339e+00 9.2452906420268768e+00 0 0 0
490 2 8.6135000000000002e+00 6.3938655561404980e+00 9.2452906420268768e+00 0 0 0
492 2 9.8440000000000012e+00 4.2625770374270004e+00 9.2452906420268768e+00 0 0 0
493 2 1.1074500000000002e+01 4.9730065436648339e+00 9.2452906420268768e+00 0 0 0
514 2 1.1074500000000002e+01 6.3938655561404980e+00 9.2452906420268768e+00 0 0 0
225 2 8.6135000000000002e+00 7.8147245686161639e+00 6.2334616092155679e+00 0 0 0
272 2 1.1074500000000002e+01 7.8147245686161639e+00 6.2334616092155679e+00 0 0 0
491 2 9.8440000000000012e+00 7.1042950623783341e+00 9.2452906420268768e+00 0 0 0
110 2 0.0000000000000000e+00 9.9460130873296642e+00 6.2334616092155679e+00 0 0 0
112 2 0.0000000000000000e+00 8.5251540748539991e+00 6.2334616092155679e+00 0 0 0
139 2 2.4610000000000003e+00 9.9460130873296642e+00 6.2334616092155679e+00 0 0 0
141 2 2.4610000000000003e+00 8.5251540748539991e+00 6.2334616092155679e+00 0 0 0
431 2 0.0000000000000000e+00 8.5251540748539991e+00 9.2452906420268768e+00 0 0 0
432 2 1.2305000000000001e+00 9.2355835810918343e+00 9.2452906420268768e+00 0 0 0
446 2 2.4610000000000003e+00 8.5251540748539991e+00 9.2452906420268768e+00 0 0 0
447 2 3.6915000000000004e+00 9.2355835810918343e+00 9.2452906420268768e+00 0 0 0
135 2 1.2305000000000001e+00 1.2077301606043163e+01 6.2334616092155679e+00 0 0 0
137 2 1.2305000000000001e+00 1.0656442593567498e+01 6.2334616092155679e+00 0 0 0
172 2 3.6914999999999996e+00 1.2077301606043163e+01 6.2334616092155679e+00 0 0 0
174 2 3.6914999999999996e+00 1.0656442593567499e+01 6.2334616092155679e+00 0 0 0
430 2 0.0000000000000000e+00 1.1366872099805333e+01 9.2452906420268768e+00 0 0 0
444 2 1.2305000000000001e+00 1.0656442593567498e+01 9.2452906420268768e+00 0 0 0
445 2 2.4610000000000003e+00 1.1366872099805333e+01 9.2452906420268768e+00 0 0 0
463 2 3.6914999999999996e+00 1.0656442593567499e+01 9.2452906420268768e+00 0 0 0
176 2 4.9220000000000006e+00 9.9460130873296642e+00 6.2334616092155679e+00 0 0 0
178 2 4.9220000000000006e+00 8.5251540748539991e+00 6.2334616092155679e+00 0 0 0
221 2 7.3830000000000009e+00 9.9460130873296642e+00 6.2334616092155679e+00 0 0 0
223 2 7.3830000000000009e+00 8.5251540748539991e+00 6.2334616092155679e+00 0 0 0
465 2 4.9220000000000006e+00 8.5251540748539991e+00 9.2452906420268768e+00 0 0 0
466 2 6.1524999999999999e+00 9.2355835810918343e+00 9.2452906420268768e+00 0 0 0
488 2 7.3830000000000009e+00 8.5251540748539991e+00 9.2452906420268768e+00 0 0 0
217 2 6.1524999999999999e+00 1.2077301606043163e+01 6.2334616092155679e+00 0 0 0
219 2 6.1524999999999999e+00 1.0656442593567499e+01 6.2334616092155679e+00 0 0 0
464 2 4.9220000000000006e+00 1.1366872099805333e+01 9.2452906420268768e+00 0 0 0
486 2 6.1524999999999999e+00 1.0656442593567499e+01 9.2452906420268768e+00 0 0 0
487 2 7.3829999999999991e+00 1.1366872099805333e+01 9.2452906420268768e+00 0 0 0
268 2 9.8440000000000012e+00 9.9460130873296642e+00 6.2334616092155679e+00 0 0 0
270 2 9.8440000000000012e+00 8.5251540748539956e+00 6.2334616092155679e+00 0 0 0
489 2 8.6134999999999984e+00 9.2355835810918343e+00 9.2452906420268768e+00 0 0 0
512 2 9.8440000000000012e+00 8.5251540748539956e+00 9.2452906420268768e+00 0 0 0
513 2 1.1074500000000002e+01 9.2355835810918343e+00 9.2452906420268768e+00 0 0 0
264 2 8.6135000000000002e+00 1.2077301606043163e+01 6.2334616092155679e+00 0 0 0
266 2 8.6134999999999984e+00 1.0656442593567498e+01 6.2334616092155679e+00 0 0 0
311 2 1.1074500000000002e+01 1.2077301606043163e+01 6.2334616092155679e+00 0 0 0
313 2 1.1074500000000002e+01 1.0656442593567498e+01 6.2334616092155679e+00 0 0 0
510 2 8.6134999999999984e+00 1.0656442593567498e+01 9.2452906420268768e+00 0 0 0
511 2 9.8440000000000012e+00 1.1366872099805333e+01 9.2452906420268768e+00 0 0 0
534 2 1.1074500000000002e+01 1.0656442593567498e+01 9.2452906420268768e+00 0 0 0
535 2 1.2304999999999998e+01 1.1366872099805333e+01 9.2452906420268768e+00 0 0 0
4364 1 4.8274645698490533e+00 1.1555867891705075e+01 1.1530359201171546e+01 -1 0 0
3135 1 6.7925323178814292e+00 1.9217730463319600e+00 1.2813332909861908e+01 1 1 0
2331 1 2.5170647844020628e+00 1.0217749298996615e+00 1.4744263213584755e+01 0 1 -1
1593 1 1.0246470528182757e+01 4.4032975631789899e+00 1.2318431008142793e+01 -1 1 0
1605 1 2.2748850128134444e+00 4.6869590420071976e+00 1.2485353659918028e+01 -1 0 0
3116 1 1.8000568260721892e+00 7.0567371816294289e+00 1.1591245880649060e+01 1 0 0
2862 1 4.8026964329963882e+00 3.3338570889430970e+00 1.1915663953666668e+01 -1 1 0
4403 1 5.5166988477618242e+00 6.4047212683475854e+00 1.2263323047156872e+01 0 -1 -1
3640 1 8.5413203469999335e+00 6.7563459928782210e+00 1.1627967051780626e+01 1 0 0
1511 1 1.0420842927038333e+01 8.9278666736185865e+00 1.1936573349232146e+01 0 1 -1
2381 1 1.0414115347964426e+01 7.4018331555993200e+00 1.6775362403854245e+01 0 1 1
2296 1 3.7110520252108370e+00 8.8606385098662255e+00 1.2394145855454825e+01 0 1 -1
1406 1 6.7328368039768121e+00 9.1740085741963888e+00 1.2367398237580948e+01 1 0 0
4377 1 9.0030054426180932e+00 1.1541082624144583e+01 1.1825191561024660e+01 1 0 0
3022 1 5.8375034914828228e-01 2.6122535159632809e+00 1.1757183128316564e+01 0 1 -1
2124 1 7.0650053124466830e+00 1.2377465702799055e+00 1.5770955593263761e+01 0 1 0
4416 1 1.1590267798290421e+01 1.1631236651662331e+01 1.4487346173460203e+01 1 0 -1
1391 1 9.7834556379213105e+00 9.3193748641635246e+00 1.4452652173825220e+01 0 1 0
2253 1 1.4654280163161355e+00 1.1768636961116304e+01 1.4916909814506550e+01 0 0 0
3660 1 1.0184689967619901e+01 3.8081031686498119e+00 1.5009020714588218e+01 0 2 -1
608 1 1.1314182750237714e+01 9.8431854538698316e-01 1.5326173560117700e+01 1 -1 1
4413 1 1.7909979244750807e+00 4.8918642032906652e+00 1.5417202099852526e+01 0 0 -1
2880 1 1.3820380467944915e+00 7.5532167511664365e+00 1.6109616753657132e+01 0 2 0
2240 1 4.6752273169555574e+00 5.3994866878559380e+00 1.4890494204056610e+01 0 1 0
2398 1 6.3132650402644650e+00 6.9481801714699056e+00 1.6655105568127425e+01 0 0 0
669 1 8.3571389981843485e+00 6.3990368345658259e+00 1.4773250254973199e+01 0 1 1
3691 1 9.3794617671699516e+00 2.0128250123801918e+00 1.1695890729373515e+01 0 0 0
3687 1 3.0792274441736334e+00 1.1507173590146484e+00 1.2057911084849787e+01 0 0 0
2850 1 3.7925480624302170e+00 8.3777804711692774e+00 1.5487992472032744e+01 0 0 1
55 1 7.5190944518667395e+00 1.1124251570061180e+01 1.4639033082570085e+01 1 -1 1
3074 1 7.8525816265570834e+00 3.9971081350714277e-01 2.1942517261492448e+01 0 0 0
790 1 9.9547029384951031e+00 5.9924827011568604e+00 2.8323627947997320e+01 1 0 0
4442 1 3.5269494842700073e+00 3.9912665598662889e+00 2.1766613731192308e+01 1 -1 0
592 1 5.7856751534813977e+00 1.4149244446639242e+00 2.0197735516283306e+01 0 -1 0
70 1 1.1675331414477926e+01 2.8951147831100661e+00 2.0908237088419053e+01 0 0 0
584 1 6.5478874647724661e+00 9.8450032042352262e+00 1.7282815736387853e+01 0 0 0
3002 1 2.2619637912790451e+00 6.4153064661061974e+00 2.0820141997264880e+01 0 0 -1
1601 1 6.7978999993050593e+00 6.4129456824323050e+00 1.9310342101996316e+01 1 0 0
735 1 9.6759863393558572e+00 6.5176015976801738e+00 1.9465252137296016e+01 0 -1 0
859 1 1.0614489420408390e+01 2.7787080239722948e+00 1.8198899873366774e+01 1 1 0
3639 1 8.1733167511102245e+00 7.9986407792193912e+00 3.1000555259082795e+01 0 0 0
42 1 8.2940931335118362e-01 7.9812060701019112e+00 1.8874669520253889e+01 0 0 -1
624 1 3.1906714053354239e+00 9.7907805995782606e+00 1.9426096440615446e+01 1 1 -1
3033 1 8.2957764689801010e+00 1.1125000118464888e+01 2.0214715052664864e+01 2 0 -1
2163 1 5.9926843635183875e+00 9.1142248687933805e+00 1.9969519099987519e+01 -2 0 0
3743 1 1.1996178745930358e+01 1.0764780531184755e+01 2.1709628125535730e+01 0 1 -1
4531 1 1.0453077440084193e+00 3.8063044506077985e+00 1.7854978643510574e+01 0 1 1
724 1 1.0589941053665777e+01 6.3134544745986645e+00 3.1104624509357777e+01 0 0 -1
3669 1 1.6746377075505832e+00 7.2542631561115423e-01 2.2710490542661177e+01 1 0 0
2356 1 4.9571172013898837e+00 7.0880858192543004e+00 3.0881314316894304e+01 0 1 0
3889 1 2.7356442969143981e+00 2.5581761169386619e+00 2.4676253289095829e+01 1 0 0
2197 1 1.1460305198358084e+01 5.6973831116028020e+00 2.5785148109172741e+01 1 1 -1
2300 1 1.5944745230956112e+00 1.1332073830217922e+01 2.7845113876751281e+01 -1 0 -1
2929 1 2.7673235600248787e+00 2.7004781236887460e-01 1.8008034967074320e+01 1 1 0
4524 1 3.3577164162912392e+00 9.9742318060966220e+00 2.2730880707673133e+01 0 1 0
773 1 1.1735333110914132e+01 1.1419117753965232e+01 1.7347028226936839e+01 1 0 0
3013 1 9.7318063946889755e+00 3.8984587442421641e+00 2.4601920370620135e+01 0 1 -1
3808 1 7.7444098796881378e-01 4.7158370178339020e+00 2.4946373007803142e+01 0 1 0
3011 1 1.5325021313291360e+00 6.7763389902919497e+00 2.3338508101405480e+01 -2 1 0
32 1 7.6688146937961834e+00 5.5446280180187486e+00 2.3458361591341450e+01 1 0 0
650 1 6.0313591394824781e+00 4.2426860116241958e+00 2.1075940722745720e+01 1 1 0
2347 1 4.7039395139922542e+00 7.5169898590536954e+00 2.2061947177100581e+01 1 -1 0
1393 1 5.5274220208570073e+00 3.3602901976414596e+00 2.4245479088385018e+01 -1 1 0
4478 1 9.2456142132437815e+00 7.9798150742918592e+00 2.3207625107065908e+01 1 1 0
3644 1 8.9137370502474074e+00 1.1620453686228954e+01 1.7505676585887649e+01 -1 0 -1
2132 1 9.0682617448040013e+00 1.0701487751750600e+01 3.1038225122531056e+01 1 0 0
1633 1 9.9947821470623506e+00 8.3864830300394627e-02 1.8141340408023531e+01 0 1 0
1604 1 9.8447779546639413e+00 9.1090739193297843e+00 2.0687374490979817e+01 0 1 0
4408 1 2.1623742298485147e+00 7.4896589847916415e+00 2.8044785981330527e+01 -1 0 0
1467 1 4.6510458395572956e+00 1.0267887358978923e+01 3.1009587721892725e+01 0 0 0
3714 1 3.5659244113760789e+00 1.5865260086998718e+00 2.7203086180640685e+01 0 0 0
708 1 1.8256312762158426e+00 1.1230842838483140e+01 3.0638902900330642e+01 0 0 0
2259 1 6.8565952739198579e+00 9.8537509212664298e-01 2.4876627913507956e+01 1 2 1
2206 1 1.1246250395889104e+01 1.6486579604691896e+00 2.8151658012094334e+01 0 1 0
668 1 8.8809393897380815e+00 2.0048748000440599e+00 2.6545545907738635e+01 1 1 0
4449 1 9.0826742002159544e-01 1.4858401402952839e+00 2.7675196879451779e+01 0 0 0
2305 1 3.5576410878366236e+00 5.6369610489803748e+00 2.5963979706175408e+01 0 1 0
1587 1 5.3870435352735404e+00 7.1708027522690072e+00 2.8183577488635326e+01 0 2 1
1574 1 3.5924920088967410e-01 9.8773807435605909e-01 3.0543324933039479e+01 -1 1 0
4391 1 8.0018338205619965e+00 8.0716397553028312e+00 2.8058661394304366e+01 1 1 0
615 1 2.1204153024861432e+00 9.0016598661582297e+00 2.5375263232121473e+01 0 1 0
765 1 1.2361368580771106e+00 1.1934613091535393e+01 2.2679041013622992e+01 1 1 0
1388 1 3.5633744431556482e+00 3.1502954586608496e+00 1.8952939603741999e+01 1 1 1
874 1 5.7800749080758820e+00 7.1020960009006568e+00 2.4864201871248422e+01 2 0 0
2160 1 4.9904675200162778e+00 1.0128211139054157e+01 2.5178754164045092e+01 1 0 0
764 1 4.3692688312781325e+00 9.9925345811487674e+00 2.8057217781440947e+01 1 -1 0
730 1 8.2136204971214664e+00 3.2499454140220001e+00 3.0638287701265078e+01 0 0 1
2402 1 8.2357232344620783e+00 1.0521555167167296e+01 2.3919434725188545e+01 0 1 0
1559 1 1.1628829516698957e+01 5.6898235275441031e+00 2.0725100213344010e+01 0 0 0
2917 1 8.7891841831977722e+00 1.0355801145401143e+01 2.6809329264518972e+01 1 0 -1
3092 1 1.1059701811270873e+01 8.9988729704974642e+00 2.6029031020864021e+01 -1 1 0
2375 1 4.0505636384068122e+00 1.5531290163932848e-01 3.0025328356884753e+01 0 1 1
1475 1 5.1758663978000650e+00 4.0296226065983278e+00 2.7709101870564908e+01 0 0 0
1518 1 6.8443414444215325e+00 8.7901376246561247e-01 3.0836148230870489e+01 0 1 0
2274 1 1.1302831218752946e+01 3.2797140174606887e+00 3.1059329413617295e+01 -1 0 -1
3724 1 7.7389086012901842e-01 4.6749444299728093e+00 3.0908853394085639e+01 1 0 0
4385 1 2.6637709123203477e+00 2.4874911746306565e+00 3.0915758410400773e+01 1 0 -1
1591 1 6.8286213681539587e-01 4.5694309095306940e+00 2.7960219915797989e+01 0 -1 1
1481 1 2.3053743268669256e+00 7.0977812343436266e+00 3.0914592404593254e+01 1 1 0
3751 1 5.0062379846357690e+00 4.2305072717851138e+00 3.0643245136262230e+01 0 0 0
3884 1 1.0145850319437187e+01 3.0982599348929435e-01 3.0644355873852483e+01 -1 0 0
848 1 8.0043280345059600e+00 3.9890413118128851e+00 2.8057856228564592e+01 0 1 0
4439 1 6.3186771073307666e+00 1.1892641702793558e+01 2.7480892522687732e+01 1 0 0
4475 1 1.0898156383967267e+01 1.5706561317615260e+00 2.3229357913935665e+01 1 0 0
1652 1 1.2050746766105926e+01 6.8797867026847701e+00 2.3313818637557159e+01 -1 0 1
757 1 7.3287310501354446e+00 9.0320527108273221e-02 1.8174947704085056e+01 0 1 -1
1622 1 8.3251515402992151e+00 4.4415005127997720e+00 1.7508089392851033e+01 1 1 1
582 1 6.7213922822137633e+00 1.1854578083275323e+01 3.0159278286943312e+01 -1 0 0
3113 1 5.9770456815189972e+00 1.1541387062541332e+01 2.2351215020365913e+01 -1 0 0
3102 1 4.0995796891236340e+00 1.1032716375305201e+01 1.6845257669361580e+01 1 0 0
36 1 5.8770551562221582e+00 3.5315436366432755e+00 1.6902789151008093e+01 0 0 1
132 2 0.0000000000000000e+00 1.2787731112280996e+01 3.2216325764040210e+00 0 0 0
134 2 1.2305000000000001e+00 1.3498160618518829e+01 3.2216325764040210e+00 0 0 0
169 2 2.4610000000000003e+00 1.2787731112280996e+01 3.2216325764040210e+00 0 0 0
171 2 3.6915000000000004e+00 1.3498160618518829e+01 3.2216325764040210e+00 0 0 0
130 2 0.0000000000000000e+00 1.5629449137232333e+01 3.2216325764040210e+00 0 0 0
165 2 1.2305000000000001e+00 1.4919019630994494e+01 3.2216325764040210e+00 0 0 0
167 2 2.4610000000000003e+00 1.5629449137232328e+01 3.2216325764040210e+00 0 0 0
210 2 3.6915000000000004e+00 1.4919019630994494e+01 3.2216325764040210e+00 0 0 0
214 2 4.9220000000000006e+00 1.2787731112280996e+01 3.2216325764040210e+00 0 0 0
216 2 6.1524999999999990e+00 1.3498160618518829e+01 3.2216325764040210e+00 0 0 0
261 2 7.3829999999999991e+00 1.2787731112280996e+01 3.2216325764040210e+00 0 0 0
212 2 4.9220000000000006e+00 1.5629449137232333e+01 3.2216325764040210e+00 0 0 0
257 2 6.1524999999999990e+00 1.4919019630994494e+01 3.2216325764040210e+00 0 0 0
259 2 7.3829999999999991e+00 1.5629449137232333e+01 3.2216325764040210e+00 0 0 0
263 2 8.6135000000000002e+00 1.3498160618518835e+01 3.2216325764040210e+00 0 0 0
308 2 9.8440000000000012e+00 1.2787731112280996e+01 3.2216325764040210e+00 0 0 0
310 2 1.1074500000000002e+01 1.3498160618518829e+01 3.2216325764040210e+00 0 0 0
304 2 8.6135000000000002e+00 1.4919019630994494e+01 3.2216325764040210e+00 0 0 0
306 2 9.8440000000000012e+00 1.5629449137232328e+01 3.2216325764040210e+00 0 0 0
346 2 1.1074500000000002e+01 1.4919019630994494e+01 3.2216325764040210e+00 0 0 0
161 2 0.0000000000000000e+00 1.7050308149707998e+01 3.2216325764040210e+00 0 0 0
206 2 2.4610000000000003e+00 1.7050308149707998e+01 3.2216325764040210e+00 0 0 0
159 2 0.0000000000000000e+00 1.9892026174659328e+01 3.2216325764040210e+00 0 0 0
163 2 1.2305000000000001e+00 1.7760737655945832e+01 3.2216325764040210e+00 0 0 0
202 2 1.2305000000000001e+00 1.9181596668421495e+01 3.2216325764040210e+00 0 0 0
204 2 2.4610000000000003e+00 1.9892026174659328e+01 3.2216325764040210e+00 0 0 0
208 2 3.6914999999999996e+00 1.7760737655945832e+01 3.2216325764040210e+00 0 0 0
249 2 3.6914999999999996e+00 1.9181596668421495e+01 3.2216325764040210e+00 0 0 0
253 2 4.9220000000000006e+00 1.7050308149707998e+01 3.2216325764040210e+00 0 0 0
300 2 7.3830000000000009e+00 1.7050308149707998e+01 3.2216325764040210e+00 0 0 0
251 2 4.9220000000000006e+00 1.9892026174659328e+01 3.2216325764040210e+00 0 0 0
255 2 6.1524999999999999e+00 1.7760737655945832e+01 3.2216325764040210e+00 0 0 0
296 2 6.1524999999999999e+00 1.9181596668421495e+01 3.2216325764040210e+00 0 0 0
298 2 7.3829999999999991e+00 1.9892026174659328e+01 3.2216325764040210e+00 0 0 0
342 2 9.8440000000000012e+00 1.7050308149707998e+01 3.2216325764040210e+00 0 0 0
376 2 1.2304999999999998e+01 1.7050308149707998e+01 3.2216325764040210e+00 0 0 0
302 2 8.6134999999999984e+00 1.7760737655945832e+01 3.2216325764040210e+00 0 0 0
338 2 8.6135000000000002e+00 1.9181596668421495e+01 3.2216325764040210e+00 0 0 0
340 2 9.8440000000000012e+00 1.9892026174659335e+01 3.2216325764040210e+00 0 0 0
344 2 1.1074500000000002e+01 1.7760737655945835e+01 3.2216325764040210e+00 0 0 0
372 2 1.1074500000000002e+01 1.9181596668421495e+01 3.2216325764040210e+00 0 0 0
196 2 0.0000000000000000e+00 2.4154603212086325e+01 3.2216325764040210e+00 0 0 0
198 2 0.0000000000000000e+00 2.1312885187134999e+01 3.2216325764040210e+00 0 0 0
200 2 1.2304999999999993e+00 2.2023314693372832e+01 3.2216325764040210e+00 0 0 0
241 2 1.2304999999999993e+00 2.3444173705848499e+01 3.2216325764040210e+00 0 0 0
243 2 2.4610000000000003e+00 2.4154603212086325e+01 3.2216325764040210e+00 0 0 0
245 2 2.4610000000000003e+00 2.1312885187134995e+01 3.2216325764040210e+00 0 0 0
247 2 3.6914999999999996e+00 2.2023314693372832e+01 3.2216325764040210e+00 0 0 0
288 2 3.6915000000000004e+00 2.3444173705848499e+01 3.2216325764040210e+00 0 0 0
290 2 4.9220000000000006e+00 2.4154603212086325e+01 3.2216325764040210e+00 0 0 0
292 2 4.9220000000000006e+00 2.1312885187134995e+01 3.2216325764040210e+00 0 0 0
294 2 6.1524999999999990e+00 2.2023314693372832e+01 3.2216325764040210e+00 0 0 0
330 2 6.1524999999999999e+00 2.3444173705848499e+01 3.2216325764040210e+00 0 0 0
332 2 7.3830000000000009e+00 2.4154603212086336e+01 3.2216325764040210e+00 0 0 0
334 2 7.3829999999999991e+00 2.1312885187134999e+01 3.2216325764040210e+00 0 0 0
336 2 8.6135000000000002e+00 2.2023314693372832e+01 3.2216325764040210e+00 0 0 0
364 2 8.6134999999999984e+00 2.3444173705848499e+01 3.2216325764040210e+00 0 0 0
366 2 9.8440000000000012e+00 2.4154603212086336e+01 3.2216325764040210e+00 0 0 0
368 2 9.8440000000000012e+00 2.1312885187134999e+01 3.2216325764040210e+00 0 0 0
370 2 1.1074500000000002e+01 2.2023314693372832e+01 3.2216325764040210e+00 0 0 0
390 2 1.1074500000000002e+01 2.3444173705848499e+01 3.2216325764040210e+00 0 0 0
133 2 0.0000000000000000e+00 1.2787731112280996e+01 6.2334616092155679e+00 0 0 0
170 2 2.4610000000000003e+00 1.2787731112280996e+01 6.2334616092155679e+00 0 0 0
442 2 0.0000000000000000e+00 1.2787731112280996e+01 9.2452906420268768e+00 0 0 0
443 2 1.2305000000000001e+00 1.3498160618518829e+01 9.2452906420268768e+00 0 0 0
461 2 2.4610000000000003e+00 1.2787731112280996e+01 9.2452906420268768e+00 0 0 0
462 2 3.6915000000000004e+00 1.3498160618518829e+01 9.2452906420268768e+00 0 0 0
131 2 0.0000000000000000e+00 1.4208590124756663e+01 6.2334616092155679e+00 0 0 0
166 2 1.2305000000000001e+00 1.4919019630994494e+01 6.2334616092155679e+00 0 0 0
168 2 2.4610000000000003e+00 1.4208590124756663e+01 6.2334616092155679e+00 0 0 0
211 2 3.6915000000000004e+00 1.4919019630994494e+01 6.2334616092155679e+00 0 0 0
441 2 0.0000000000000000e+00 1.5629449137232333e+01 9.2452906420268768e+00 0 0 0