LAMMPS data file via write_data, version 16 Mar 2018, timestep = 8000000

4545 atoms
2 atom types

0.0000000000000000e+00 4.9219999999999999e+01 xlo xhi
0.0000000000000000e+00 4.9019635930410494e+01 ylo yhi
6.9123602069179668e-01 3.2944103765836765e+01 zlo zhi

Masses

1 18.015
2 12.01

Atoms # atomic

91 2 0.0000000000000000e+00 2.8417180249513345e+00 2.2993083503266050e+00 0 0 0
93 2 0.0000000000000000e+00 0.0000000000000000e+00 2.2993083503266050e+00 0 0 0
95 2 1.2305000000000001e+00 7.1042950623783474e-01 2.2993083503266050e+00 0 0 0
102 2 1.2305000000000001e+00 2.1312885187134998e+00 2.2993083503266050e+00 0 0 0
104 2 2.4610000000000003e+00 2.8417180249513345e+00 2.2993083503266050e+00 0 0 0
106 2 2.4610000000000003e+00 0.0000000000000000e+00 2.2993083503266050e+00 0 0 0
108 2 3.6915000000000004e+00 7.1042950623783474e-01 2.2993083503266050e+00 0 0 0
123 2 3.6914999999999996e+00 2.1312885187134998e+00 2.2993083503266050e+00 0 0 0
125 2 4.9220000000000006e+00 2.8417180249513332e+00 2.2993083503266050e+00 0 0 0
127 2 4.9220000000000006e+00 0.0000000000000000e+00 2.2993083503266050e+00 0 0 0
129 2 6.1524999999999999e+00 7.1042950623783407e-01 2.2993083503266050e+00 0 0 0
152 2 6.1524999999999999e+00 2.1312885187134989e+00 2.2993083503266050e+00 0 0 0
154 2 7.3829999999999991e+00 2.8417180249513345e+00 2.2993083503266050e+00 0 0 0
156 2 7.3829999999999991e+00 0.0000000000000000e+00 2.2993083503266050e+00 0 0 0
158 2 8.6134999999999984e+00 7.1042950623783407e-01 2.2993083503266050e+00 0 0 0
189 2 8.6134999999999984e+00 2.1312885187135002e+00 2.2993083503266050e+00 0 0 0
191 2 9.8440000000000012e+00 2.8417180249513332e+00 2.2993083503266050e+00 0 0 0
193 2 9.8440000000000012e+00 0.0000000000000000e+00 2.2993083503266050e+00 0 0 0
195 2 1.1074500000000002e+01 7.1042950623783330e-01 2.2993083503266050e+00 0 0 0
234 2 1.1074500000000002e+01 2.1312885187135002e+00 2.2993083503266050e+00 0 0 0
98 2 0.0000000000000000e+00 4.2625770374269996e+00 2.2993083503266050e+00 0 0 0
100 2 1.2305000000000001e+00 4.9730065436648339e+00 2.2993083503266050e+00 0 0 0
115 2 1.2305000000000001e+00 6.3938655561404980e+00 2.2993083503266050e+00 0 0 0
119 2 2.4610000000000003e+00 4.2625770374269996e+00 2.2993083503266050e+00 0 0 0
121 2 3.6914999999999996e+00 4.9730065436648339e+00 2.2993083503266050e+00 0 0 0
144 2 3.6914999999999996e+00 6.3938655561404980e+00 2.2993083503266050e+00 0 0 0
96 2 0.0000000000000000e+00 7.1042950623783341e+00 2.2993083503266050e+00 0 0 0
117 2 2.4610000000000003e+00 7.1042950623783341e+00 2.2993083503266050e+00 0 0 0
148 2 4.9220000000000006e+00 4.2625770374269978e+00 2.2993083503266050e+00 0 0 0
150 2 6.1524999999999999e+00 4.9730065436648339e+00 2.2993083503266050e+00 0 0 0
181 2 6.1524999999999999e+00 6.3938655561404980e+00 2.2993083503266050e+00 0 0 0
185 2 7.3829999999999991e+00 4.2625770374269996e+00 2.2993083503266050e+00 0 0 0
146 2 4.9220000000000006e+00 7.1042950623783341e+00 2.2993083503266050e+00 0 0 0
183 2 7.3830000000000009e+00 7.1042950623783341e+00 2.2993083503266050e+00 0 0 0
187 2 8.6135000000000002e+00 4.9730065436648339e+00 2.2993083503266050e+00 0 0 0
226 2 8.6135000000000002e+00 6.3938655561404980e+00 2.2993083503266050e+00 0 0 0
230 2 9.8440000000000012e+00 4.2625770374270004e+00 2.2993083503266050e+00 0 0 0
232 2 1.1074500000000002e+01 4.9730065436648339e+00 2.2993083503266050e+00 0 0 0
273 2 1.1074500000000002e+01 6.3938655561404980e+00 2.2993083503266050e+00 0 0 0
228 2 9.8440000000000012e+00 7.1042950623783341e+00 2.2993083503266050e+00 0 0 0
111 2 0.0000000000000000e+00 8.5251540748539991e+00 2.2993083503266050e+00 0 0 0
113 2 1.2305000000000001e+00 9.2355835810918343e+00 2.2993083503266050e+00 0 0 0
140 2 2.4610000000000003e+00 8.5251540748539991e+00 2.2993083503266050e+00 0 0 0
142 2 3.6915000000000004e+00 9.2355835810918343e+00 2.2993083503266050e+00 0 0 0
109 2 0.0000000000000000e+00 1.1366872099805333e+01 2.2993083503266050e+00 0 0 0
136 2 1.2305000000000001e+00 1.0656442593567498e+01 2.2993083503266050e+00 0 0 0
138 2 2.4610000000000003e+00 1.1366872099805333e+01 2.2993083503266050e+00 0 0 0
173 2 3.6914999999999996e+00 1.0656442593567499e+01 2.2993083503266050e+00 0 0 0
177 2 4.9220000000000006e+00 8.5251540748539991e+00 2.2993083503266050e+00 0 0 0
179 2 6.1524999999999999e+00 9.2355835810918343e+00 2.2993083503266050e+00 0 0 0
222 2 7.3830000000000009e+00 8.5251540748539991e+00 2.2993083503266050e+00 0 0 0
175 2 4.9220000000000006e+00 1.1366872099805333e+01 2.2993083503266050e+00 0 0 0
218 2 6.1524999999999999e+00 1.0656442593567499e+01 2.2993083503266050e+00 0 0 0
220 2 7.3829999999999991e+00 1.1366872099805333e+01 2.2993083503266050e+00 0 0 0
224 2 8.6134999999999984e+00 9.2355835810918343e+00 2.2993083503266050e+00 0 0 0
269 2 9.8440000000000012e+00 8.5251540748539956e+00 2.2993083503266050e+00 0 0 0
271 2 1.1074500000000002e+01 9.2355835810918343e+00 2.2993083503266050e+00 0 0 0
265 2 8.6134999999999984e+00 1.0656442593567498e+01 2.2993083503266050e+00 0 0 0
267 2 9.8440000000000012e+00 1.1366872099805333e+01 2.2993083503266050e+00 0 0 0
312 2 1.1074500000000002e+01 1.0656442593567498e+01 2.2993083503266050e+00 0 0 0
314 2 1.2304999999999998e+01 1.1366872099805333e+01 2.2993083503266050e+00 0 0 0
92 2 0.0000000000000000e+00 1.4208590124756650e+00 5.5154530095985610e+00 0 0 0
94 2 0.0000000000000000e+00 0.0000000000000000e+00 5.5154530095985610e+00 0 0 0
103 2 1.2305000000000001e+00 2.1312885187134998e+00 5.5154530095985610e+00 0 0 0
105 2 2.4610000000000003e+00 1.4208590124756650e+00 5.5154530095985610e+00 0 0 0
107 2 2.4610000000000003e+00 0.0000000000000000e+00 5.5154530095985610e+00 0 0 0
124 2 3.6914999999999996e+00 2.1312885187134998e+00 5.5154530095985610e+00 0 0 0
420 2 0.0000000000000000e+00 2.8417180249513345e+00 8.7315976688691883e+00 0 0 0
421 2 0.0000000000000000e+00 0.0000000000000000e+00 8.7315976688691883e+00 0 0 0
422 2 1.2305000000000001e+00 7.1042950623783474e-01 8.7315976688691883e+00 0 0 0
426 2 1.2305000000000001e+00 2.1312885187134998e+00 8.7315976688691883e+00 0 0 0
427 2 2.4610000000000003e+00 2.8417180249513345e+00 8.7315976688691883e+00 0 0 0
428 2 2.4610000000000003e+00 0.0000000000000000e+00 8.7315976688691883e+00 0 0 0
429 2 3.6915000000000004e+00 7.1042950623783474e-01 8.7315976688691883e+00 0 0 0
437 2 3.6914999999999996e+00 2.1312885187134998e+00 8.7315976688691883e+00 0 0 0
101 2 1.2305000000000001e+00 3.5521475311891644e+00 5.5154530095985610e+00 0 0 0
122 2 3.6914999999999996e+00 3.5521475311891644e+00 5.5154530095985610e+00 0 0 0
126 2 4.9220000000000006e+00 1.4208590124756650e+00 5.5154530095985610e+00 0 0 0
128 2 4.9220000000000006e+00 0.0000000000000000e+00 5.5154530095985610e+00 0 0 0
153 2 6.1524999999999999e+00 2.1312885187134989e+00 5.5154530095985610e+00 0 0 0
155 2 7.3829999999999991e+00 1.4208590124756659e+00 5.5154530095985610e+00 0 0 0
157 2 7.3829999999999991e+00 0.0000000000000000e+00 5.5154530095985610e+00 0 0 0
438 2 4.9220000000000006e+00 2.8417180249513332e+00 8.7315976688691883e+00 0 0 0
439 2 4.9220000000000006e+00 0.0000000000000000e+00 8.7315976688691883e+00 0 0 0
440 2 6.1524999999999999e+00 7.1042950623783407e-01 8.7315976688691883e+00 0 0 0
452 2 6.1524999999999999e+00 2.1312885187134989e+00 8.7315976688691883e+00 0 0 0
453 2 7.3829999999999991e+00 2.8417180249513345e+00 8.7315976688691883e+00 0 0 0
454 2 7.3829999999999991e+00 0.0000000000000000e+00 8.7315976688691883e+00 0 0 0
151 2 6.1524999999999999e+00 3.5521475311891644e+00 5.5154530095985610e+00 0 0 0
190 2 8.6134999999999984e+00 2.1312885187135002e+00 5.5154530095985610e+00 0 0 0
192 2 9.8440000000000012e+00 1.4208590124756659e+00 5.5154530095985610e+00 0 0 0
194 2 9.8440000000000012e+00 0.0000000000000000e+00 5.5154530095985610e+00 0 0 0
235 2 1.1074500000000002e+01 2.1312885187135002e+00 5.5154530095985610e+00 0 0 0
455 2 8.6134999999999984e+00 7.1042950623783407e-01 8.7315976688691883e+00 0 0 0
471 2 8.6134999999999984e+00 2.1312885187135002e+00 8.7315976688691883e+00 0 0 0
472 2 9.8440000000000012e+00 2.8417180249513332e+00 8.7315976688691883e+00 0 0 0
473 2 9.8440000000000012e+00 0.0000000000000000e+00 8.7315976688691883e+00 0 0 0
474 2 1.1074500000000002e+01 7.1042950623783330e-01 8.7315976688691883e+00 0 0 0
494 2 1.1074500000000002e+01 2.1312885187135002e+00 8.7315976688691883e+00 0 0 0
188 2 8.6134999999999984e+00 3.5521475311891657e+00 5.5154530095985610e+00 0 0 0
233 2 1.1074500000000002e+01 3.5521475311891644e+00 5.5154530095985610e+00 0 0 0
97 2 0.0000000000000000e+00 5.6834360499026637e+00 5.5154530095985610e+00 0 0 0
99 2 0.0000000000000000e+00 4.2625770374269996e+00 5.5154530095985610e+00 0 0 0
116 2 1.2305000000000001e+00 6.3938655561404980e+00 5.5154530095985610e+00 0 0 0
118 2 2.4610000000000003e+00 5.6834360499026637e+00 5.5154530095985610e+00 0 0 0
120 2 2.4610000000000003e+00 4.2625770374269996e+00 5.5154530095985610e+00 0 0 0
145 2 3.6914999999999996e+00 6.3938655561404980e+00 5.5154530095985610e+00 0 0 0
424 2 0.0000000000000000e+00 4.2625770374269996e+00 8.7315976688691883e+00 0 0 0
425 2 1.2305000000000001e+00 4.9730065436648339e+00 8.7315976688691883e+00 0 0 0
433 2 1.2305000000000001e+00 6.3938655561404980e+00 8.7315976688691883e+00 0 0 0
435 2 2.4610000000000003e+00 4.2625770374269996e+00 8.7315976688691883e+00 0 0 0
436 2 3.6914999999999996e+00 4.9730065436648339e+00 8.7315976688691883e+00 0 0 0
448 2 3.6914999999999996e+00 6.3938655561404980e+00 8.7315976688691883e+00 0 0 0
114 2 1.2305000000000001e+00 7.8147245686161639e+00 5.5154530095985610e+00 0 0 0
143 2 3.6914999999999996e+00 7.8147245686161639e+00 5.5154530095985610e+00 0 0 0
423 2 0.0000000000000000e+00 7.1042950623783341e+00 8.7315976688691883e+00 0 0 0
434 2 2.4610000000000003e+00 7.1042950623783341e+00 8.7315976688691883e+00 0 0 0
147 2 4.9220000000000006e+00 5.6834360499026637e+00 5.5154530095985610e+00 0 0 0
149 2 4.9220000000000006e+00 4.2625770374269978e+00 5.5154530095985610e+00 0 0 0
182 2 6.1524999999999999e+00 6.3938655561404980e+00 5.5154530095985610e+00 0 0 0
184 2 7.3829999999999991e+00 5.6834360499026637e+00 5.5154530095985610e+00 0 0 0
186 2 7.3829999999999991e+00 4.2625770374269996e+00 5.5154530095985610e+00 0 0 0
450 2 4.9220000000000006e+00 4.2625770374269978e+00 8.7315976688691883e+00 0 0 0
451 2 6.1524999999999999e+00 4.9730065436648339e+00 8.7315976688691883e+00 0 0 0
467 2 6.1524999999999999e+00 6.3938655561404980e+00 8.7315976688691883e+00 0 0 0
469 2 7.3829999999999991e+00 4.2625770374269996e+00 8.7315976688691883e+00 0 0 0
180 2 6.1524999999999999e+00 7.8147245686161639e+00 5.5154530095985610e+00 0 0 0
449 2 4.9220000000000006e+00 7.1042950623783341e+00 8.7315976688691883e+00 0 0 0
468 2 7.3830000000000009e+00 7.1042950623783341e+00 8.7315976688691883e+00 0 0 0
227 2 8.6135000000000002e+00 6.3938655561404980e+00 5.5154530095985610e+00 0 0 0
229 2 9.8440000000000012e+00 5.6834360499026637e+00 5.5154530095985610e+00 0 0 0
231 2 9.8440000000000012e+00 4.2625770374270004e+00 5.5154530095985610e+00 0 0 0
274 2 1.1074500000000002e+01 6.3938655561404980e+00 5.5154530095985610e+00 0 0 0
470 2 8.6135000000000002e+00 4.9730065436648339e+00 8.7315976688691883e+00 0 0 0
490 2 8.6135000000000002e+00 6.3938655561404980e+00 8.7315976688691883e+00 0 0 0
492 2 9.8440000000000012e+00 4.2625770374270004e+00 8.7315976688691883e+00 0 0 0
493 2 1.1074500000000002e+01 4.9730065436648339e+00 8.7315976688691883e+00 0 0 0
514 2 1.1074500000000002e+01 6.3938655561404980e+00 8.7315976688691883e+00 0 0 0
225 2 8.6135000000000002e+00 7.8147245686161639e+00 5.5154530095985610e+00 0 0 0
272 2 1.1074500000000002e+01 7.8147245686161639e+00 5.5154530095985610e+00 0 0 0
491 2 9.8440000000000012e+00 7.1042950623783341e+00 8.7315976688691883e+00 0 0 0
110 2 0.0000000000000000e+00 9.9460130873296642e+00 5.5154530095985610e+00 0 0 0
112 2 0.0000000000000000e+00 8.5251540748539991e+00 5.5154530095985610e+00 0 0 0
139 2 2.4610000000000003e+00 9.9460130873296642e+00 5.5154530095985610e+00 0 0 0
141 2 2.4610000000000003e+00 8.5251540748539991e+00 5.5154530095985610e+00 0 0 0
431 2 0.0000000000000000e+00 8.5251540748539991e+00 8.7315976688691883e+00 0 0 0
432 2 1.2305000000000001e+00 9.2355835810918343e+00 8.7315976688691883e+00 0 0 0
446 2 2.4610000000000003e+00 8.5251540748539991e+00 8.7315976688691883e+00 0 0 0
447 2 3.6915000000000004e+00 9.2355835810918343e+00 8.7315976688691883e+00 0 0 0
135 2 1.2305000000000001e+00 1.2077301606043163e+01 5.5154530095985610e+00 0 0 0
137 2 1.2305000000000001e+00 1.0656442593567498e+01 5.5154530095985610e+00 0 0 0
172 2 3.6914999999999996e+00 1.2077301606043163e+01 5.5154530095985610e+00 0 0 0
174 2 3.6914999999999996e+00 1.0656442593567499e+01 5.5154530095985610e+00 0 0 0
430 2 0.0000000000000000e+00 1.1366872099805333e+01 8.7315976688691883e+00 0 0 0
444 2 1.2305000000000001e+00 1.0656442593567498e+01 8.7315976688691883e+00 0 0 0
445 2 2.4610000000000003e+00 1.1366872099805333e+01 8.7315976688691883e+00 0 0 0
463 2 3.6914999999999996e+00 1.0656442593567499e+01 8.7315976688691883e+00 0 0 0
176 2 4.9220000000000006e+00 9.9460130873296642e+00 5.5154530095985610e+00 0 0 0
178 2 4.9220000000000006e+00 8.5251540748539991e+00 5.5154530095985610e+00 0 0 0
221 2 7.3830000000000009e+00 9.9460130873296642e+00 5.5154530095985610e+00 0 0 0
223 2 7.3830000000000009e+00 8.5251540748539991e+00 5.5154530095985610e+00 0 0 0
465 2 4.9220000000000006e+00 8.5251540748539991e+00 8.7315976688691883e+00 0 0 0
466 2 6.1524999999999999e+00 9.2355835810918343e+00 8.7315976688691883e+00 0 0 0
488 2 7.3830000000000009e+00 8.5251540748539991e+00 8.7315976688691883e+00 0 0 0
217 2 6.1524999999999999e+00 1.2077301606043163e+01 5.5154530095985610e+00 0 0 0
219 2 6.1524999999999999e+00 1.0656442593567499e+01 5.5154530095985610e+00 0 0 0
464 2 4.9220000000000006e+00 1.1366872099805333e+01 8.7315976688691883e+00 0 0 0
486 2 6.1524999999999999e+00 1.0656442593567499e+01 8.7315976688691883e+00 0 0 0
487 2 7.3829999999999991e+00 1.1366872099805333e+01 8.7315976688691883e+00 0 0 0
268 2 9.8440000000000012e+00 9.9460130873296642e+00 5.5154530095985610e+00 0 0 0
270 2 9.8440000000000012e+00 8.5251540748539956e+00 5.5154530095985610e+00 0 0 0
489 2 8.6134999999999984e+00 9.2355835810918343e+00 8.7315976688691883e+00 0 0 0
512 2 9.8440000000000012e+00 8.5251540748539956e+00 8.7315976688691883e+00 0 0 0
513 2 1.1074500000000002e+01 9.2355835810918343e+00 8.7315976688691883e+00 0 0 0
264 2 8.6135000000000002e+00 1.2077301606043163e+01 5.5154530095985610e+00 0 0 0
266 2 8.6134999999999984e+00 1.0656442593567498e+01 5.5154530095985610e+00 0 0 0
311 2 1.1074500000000002e+01 1.2077301606043163e+01 5.5154530095985610e+00 0 0 0
313 2 1.1074500000000002e+01 1.0656442593567498e+01 5.5154530095985610e+00 0 0 0
510 2 8.6134999999999984e+00 1.0656442593567498e+01 8.7315976688691883e+00 0 0 0
511 2 9.8440000000000012e+00 1.1366872099805333e+01 8.7315976688691883e+00 0 0 0
534 2 1.1074500000000002e+01 1.0656442593567498e+01 8.7315976688691883e+00 0 0 0
535 2 1.2304999999999998e+01 1.1366872099805333e+01 8.7315976688691883e+00 0 0 0
3637 1 1.4224670893885611e+00 3.5569020269434026e+00 1.1377717176965158e+01 -1 2 0
4542 1 3.8420521229991644e+00 2.2012285176829360e+00 1.1385532807029216e+01 0 -4 -1
4505 1 6.4825519359863142e+00 3.4006183277974649e+00 1.1349668153539431e+01 2 4 0
40 1 9.1085558201107695e+00 2.3515725491745068e+00 1.1362338952175801e+01 -1 3 -1
3623 1 1.1435421661445567e+01 3.7994180533414190e+00 1.1459351530597033e+01 2 -1 -1
3072 1 1.7999275009378417e+00 6.2600891890531924e+00 1.1570329590849813e+01 0 4 0
3087 1 4.2982707285085286e+00 7.6034767181108789e+00 1.1211155628707802e+01 -2 4 0
1499 1 6.6608784366430207e+00 6.2298893046016515e+00 1.1151096849557890e+01 2 -2 -1
719 1 9.1718205919191220e+00 7.5217821657244750e+00 1.1340958981081151e+01 -2 -4 0
3890 1 1.1710906222454348e+01 6.5348316795792609e+00 1.1072041098499577e+01 4 1 0
697 1 1.6029358483402916e+00 1.1415956673201599e+01 1.1279595953609599e+01 0 4 0
1654 1 4.2842297797889701e+00 1.0506296144526653e+01 1.1526418547620658e+01 0 2 0
1649 1 6.7334003866686167e+00 1.1445026257656485e+01 1.1440251991497130e+01 3 -2 1
1478 1 9.0802743373569221e+00 1.0159356724879569e+01 1.1118738623868373e+01 -3 -1 -1
2848 1 1.1363133099149993e+01 1.1586692912636522e+01 1.1441082651927429e+01 -8 3 0
73 1 1.4632992571095573e+00 3.4421365846607617e+00 1.4130556464451258e+01 -5 -1 0
4530 1 3.8960400098705250e+00 2.4675400221617019e+00 1.4777802556383620e+01 4 1 0
2250 1 6.2522684873942129e+00 3.8277697297145368e+00 1.4279479903016782e+01 3 3 0
1362 1 8.7766965588821702e+00 2.3742321880489690e+00 1.4619300581858356e+01 3 1 0
1523 1 1.1299731804386189e+01 3.6958711563478186e+00 1.4162102671184087e+01 2 -1 0
2948 1 1.6278551817438094e+00 6.2722737042631405e+00 1.4900564088672146e+01 -1 -2 -1
4508 1 4.0960896137248355e+00 7.3418982906726304e+00 1.4047114512454401e+01 0 5 0
1516 1 6.6659181486699275e+00 6.5216602408513742e+00 1.4550229606543081e+01 -2 3 0
4509 1 9.0856149598094298e+00 7.8923336291640558e+00 1.3901455882683804e+01 -4 1 -1
2883 1 1.1302701866213773e+01 6.3701317534432746e+00 1.4777746730120338e+01 -1 3 -1
1529 1 1.7654039277621878e+00 1.1509661929144610e+01 1.3941792075073764e+01 0 -1 0
3682 1 6.6123671211233424e+00 1.1996608760582289e+01 1.4042825338569767e+01 -1 1 0
4538 1 4.1768326453398297e+00 1.0279156546413313e+01 1.4576208779813429e+01 3 1 0
2341 1 1.0856551119215354e+01 1.1938605176719451e+01 1.4222947209992897e+01 0 0 0
3034 1 8.6933164273960646e+00 1.0583025772089712e+01 1.4981647677771633e+01 -1 -5 -1
3030 1 1.8750182297895175e+00 3.9488847788320296e+00 1.8295788570346996e+01 -2 1 0
700 1 6.7923674056956429e-02 2.2931316697164723e+00 1.6883582072395303e+01 -1 2 0
3053 1 4.2331410243952075e+00 2.6701500557171225e+00 1.7557295817500556e+01 -1 3 0
837 1 4.3244942907311676e+00 1.6892483292788299e-01 1.8655665331407199e+01 0 -2 -1
2229 1 1.1089068168847769e+01 3.9506587466887928e+00 1.8198490030486202e+01 -2 -1 -1
2980 1 8.8434846221917383e+00 2.6604388711829037e+00 1.7554634950773981e+01 0 1 0
2370 1 2.0474826088275169e+00 6.5717291434584633e+00 1.7386043312452113e+01 -1 1 1
3040 1 6.5663301223959607e+00 4.1440450759537910e+00 1.8273290748754015e+01 -2 2 0
2246 1 6.5729376599077485e+00 6.9497719568683900e+00 1.7448969867176068e+01 -2 1 0
3773 1 4.2023463725244072e+00 8.0631028221226977e+00 1.8468508646427395e+01 -1 -3 0
4341 1 9.0565009091067772e+00 7.8977069411729168e+00 1.8501177240834185e+01 -2 0 0
4532 1 1.1420210251173694e+01 6.7184879469715391e+00 1.7633020133823351e+01 1 3 0
1538 1 1.6419061912912523e+00 1.2055689667176084e+01 1.8178992183876758e+01 2 2 -1
720 1 4.1575977195299840e+00 1.0522949967289234e+01 1.7282353798372771e+01 2 -4 -1
3735 1 6.4560670422263771e+00 1.1714226133828484e+01 1.8210202623754395e+01 1 3 0
616 1 9.0646120646685304e+00 1.0459641946385650e+01 1.7638725801381945e+01 3 -1 0
2917 1 1.0870056485550375e+01 1.2239646435505382e+01 1.8322505375426182e+01 1 1 -1
872 1 2.1784569141692547e+00 4.0666336072647882e+00 2.1028120015080063e+01 -1 -1 0
4355 1 4.0120076217654344e-02 2.9030727177675781e+00 2.4732659798915801e+01 0 -1 -1
4455 1 6.4719426825792130e+00 3.9955363922951381e+00 2.1027499859364170e+01 4 2 0
3655 1 4.1279510976758234e+00 2.8357980520547841e+00 2.2094148373210082e+01 4 -3 0
3845 1 4.1238993372773054e+00 2.7766560184404128e+00 2.4759878249425128e+01 1 -4 0
1415 1 4.4133058309087358e+00 1.7878181088430267e-01 2.1319548784647900e+01 -3 -2 0
4467 1 8.7452543420250723e+00 2.5265345977579323e+00 2.1802800962763705e+01 5 7 1
3097 1 8.8806166238062971e+00 2.4324399997002830e+00 2.4439091825834719e+01 -3 1 0
2234 1 1.1369975960137040e+01 4.0010923655682609e+00 2.1062965221845054e+01 -1 -1 0
3756 1 2.1092261102175862e+00 6.7270738284144995e+00 2.1858236661343128e+01 2 3 0
2198 1 2.1763786419145861e+00 6.8271129222448836e+00 2.4695458029576486e+01 1 3 0
3678 1 6.8009441515387898e+00 6.5515358355349864e+00 2.1987152872810352e+01 -2 2 0
823 1 6.6574617851324049e+00 6.4841649605630565e+00 2.4879547153697974e+01 2 7 0
2368 1 4.4685216497148206e+00 7.8142188850094376e+00 2.1155728517325532e+01 1 0 0
2257 1 1.1528734791691191e+01 6.7716403000698557e+00 2.1612648278733939e+01 4 2 0
3149 1 1.1441019147902935e+01 6.7758751586189900e+00 2.4435360100709570e+01 3 -1 -1
1580 1 2.2093768215918845e+00 1.2227144841473219e+01 2.0998379072944289e+01 -3 4 0
3112 1 3.3871731708458697e-02 1.0952384688678473e+01 2.1959565462001123e+01 2 0 0
791 1 6.5913239872169873e+00 1.1999473388855430e+01 2.0860302354306459e+01 -4 3 0
2121 1 4.3542040684970162e+00 1.0639279848615724e+01 2.1817840408355792e+01 1 2 1
3854 1 4.2799554079561677e+00 1.1025581087115164e+01 2.4743034292176855e+01 4 -5 0
3827 1 8.9863920025872357e+00 8.2769199967399061e+00 2.1436953953136683e+01 4 4 0
4353 1 9.0514714821447537e+00 1.0973902161797387e+01 2.1817024345055479e+01 1 5 0
672 1 8.7976782985070692e+00 1.1041958904851139e+01 2.4731083455960700e+01 2 0 0
3143 1 2.2443178507718771e+00 1.2900857284652272e+00 2.5745756962345251e+01 2 -1 0
2318 1 2.0590858476163731e+00 1.1088141917061833e+00 2.8361979732464675e+01 1 -1 0
2960 1 6.5238448065687180e+00 1.3335001728195344e+00 2.5592163488523255e+01 -1 1 0
2975 1 6.4263592948909256e+00 1.2516001543981381e+00 2.8335192146354220e+01 0 0 0
1472 1 1.1104019908793225e+01 1.1066588058091129e+00 2.5315175407665265e+01 -1 1 0
4356 1 1.1286624852652329e+01 9.1256246680213349e-01 2.8571858393427068e+01 -1 0 -1
2354 1 8.8404057813850780e+00 2.4417409327531869e+00 2.8720399119042334e+01 -3 -2 0
2290 1 3.5997427865686404e-01 5.3560962130112362e+00 2.8395417638101939e+01 0 1 -1
2156 1 4.9052061650183827e+00 4.8506811232428069e+00 2.8229065715707463e+01 5 -1 -1
619 1 4.2134861327837898e+00 5.4707149539342756e+00 2.5597171606868557e+01 -1 1 -1
711 1 9.5747384518615881e+00 5.1310241400283738e+00 2.7961891658320681e+01 0 -2 0
2937 1 9.3070338566413824e+00 5.2064313086071605e+00 2.5171279919618804e+01 3 -1 -1
1364 1 2.3361338230825721e+00 9.4067715207369709e+00 2.5434822947122381e+01 1 1 1
3010 1 2.3159919773874860e+00 9.2014190845926773e+00 2.8361478612175262e+01 3 -5 0
3032 1 6.8436896406729906e+00 9.1806010072293613e+00 2.8207102344595594e+01 2 -3 0
3693 1 6.5723025429879645e+00 9.6041228758292370e+00 2.5491032582673569e+01 2 3 -1
662 1 8.9030551316759325e+00 1.0961236617830277e+01 2.8739741363596750e+01 0 -1 0
1562 1 1.1171797761529691e+01 9.4505857581823012e+00 2.5404817053541176e+01 1 0 -1
744 1 1.1268549925680370e+01 9.5302516659677696e+00 2.8338005148671915e+01 1 -2 -1
2991 1 4.4399771254684470e+00 2.3820999733106869e+00 2.9332061615136826e+01 0 3 -1
3804 1 5.5433129184769472e+00 1.8217956073979260e+00 3.1988958867228057e+01 0 1 -1
3654 1 8.4246813828469787e+00 2.2305569107580285e+00 3.1676682281533893e+01 2 0 0
2269 1 1.0936482369445665e+01 9.4301019012007159e-01 3.1452470502882932e+01 7 -2 -1
2242 1 2.8547919627144394e+00 6.4484689365091512e+00 2.9118164421431253e+01 1 -1 -1
62 1 2.3183146405475230e+00 5.9777527745585388e+00 3.1793484209805619e+01 -2 3 0
2167 1 4.7205523499469351e+00 4.6734088923935015e+00 3.1705198084470545e+01 -1 3 -1
1571 1 6.9570250747090849e+00 6.2914775902925761e+00 2.9097081526968601e+01 3 2 1
2200 1 6.6455328634549380e+00 6.6943883786089478e+00 3.1631299933394747e+01 0 2 -1
3891 1 8.4752150055717514e+00 4.7499044649677344e+00 3.1875486448702098e+01 0 -3 0
3632 1 1.0598223302998312e+01 6.5452075768962237e+00 3.1722574095644614e+01 4 1 0
3089 1 1.1430265398443657e+01 6.7906567029144274e+00 2.8956412175816581e+01 2 4 0
1620 1 3.2910039039383983e+00 8.7080613662718331e+00 3.1854649477731446e+01 1 1 1
4416 1 9.2575641929688823e-01 1.0269405653303522e+01 3.2042675748388092e+01 -5 1 -1
2398 1 4.6333201772401722e+00 1.0515876517231506e+01 2.9504911895301280e+01 3 1 0
2168 1 5.9685879390551779e+00 9.2779646739208559e+00 3.1960959376094149e+01 2 2 -1
1648 1 1.0605317690808274e+01 9.4971364703219425e+00 3.2339739444692562e+01 -1 2 -1
789 1 8.3116021593431917e+00 1.1065606303130810e+01 3.1525420328056597e+01 0 -3 0
132 2 0.0000000000000000e+00 1.2787731112280996e+01 2.2993083503266050e+00 0 0 0
134 2 1.2305000000000001e+00 1.3498160618518829e+01 2.2993083503266050e+00 0 0 0
169 2 2.4610000000000003e+00 1.2787731112280996e+01 2.2993083503266050e+00 0 0 0
171 2 3.6915000000000004e+00 1.3498160618518829e+01 2.2993083503266050e+00 0 0 0
130 2 0.0000000000000000e+00 1.5629449137232333e+01 2.2993083503266050e+00 0 0 0
165 2 1.2305000000000001e+00 1.4919019630994494e+01 2.2993083503266050e+00 0 0 0
167 2 2.4610000000000003e+00 1.5629449137232328e+01 2.2993083503266050e+00 0 0 0
210 2 3.6915000000000004e+00 1.4919019630994494e+01 2.2993083503266050e+00 0 0 0
214 2 4.9220000000000006e+00 1.2787731112280996e+01 2.2993083503266050e+00 0 0 0
216 2 6.1524999999999990e+00 1.3498160618518829e+01 2.2993083503266050e+00 0 0 0
261 2 7.3829999999999991e+00 1.2787731112280996e+01 2.2993083503266050e+00 0 0 0
212 2 4.9220000000000006e+00 1.5629449137232333e+01 2.2993083503266050e+00 0 0 0
257 2 6.1524999999999990e+00 1.4919019630994494e+01 2.2993083503266050e+00 0 0 0
259 2 7.3829999999999991e+00 1.5629449137232333e+01 2.2993083503266050e+00 0 0 0
263 2 8.6135000000000002e+00 1.3498160618518835e+01 2.2993083503266050e+00 0 0 0
308 2 9.8440000000000012e+00 1.2787731112280996e+01 2.2993083503266050e+00 0 0 0
310 2 1.1074500000000002e+01 1.3498160618518829e+01 2.2993083503266050e+00 0 0 0
304 2 8.6135000000000002e+00 1.4919019630994494e+01 2.2993083503266050e+00 0 0 0
306 2 9.8440000000000012e+00 1.5629449137232328e+01 2.2993083503266050e+00 0 0 0
346 2 1.1074500000000002e+01 1.4919019630994494e+01 2.2993083503266050e+00 0 0 0
161 2 0.0000000000000000e+00 1.7050308149707998e+01 2.2993083503266050e+00 0 0 0
206 2 2.4610000000000003e+00 1.7050308149707998e+01 2.2993083503266050e+00 0 0 0
159 2 0.0000000000000000e+00 1.9892026174659328e+01 2.2993083503266050e+00 0 0 0
163 2 1.2305000000000001e+00 1.7760737655945832e+01 2.2993083503266050e+00 0 0 0
202 2 1.2305000000000001e+00 1.9181596668421495e+01 2.2993083503266050e+00 0 0 0
204 2 2.4610000000000003e+00 1.9892026174659328e+01 2.2993083503266050e+00 0 0 0
208 2 3.6914999999999996e+00 1.7760737655945832e+01 2.2993083503266050e+00 0 0 0
249 2 3.6914999999999996e+00 1.9181596668421495e+01 2.2993083503266050e+00 0 0 0
253 2 4.9220000000000006e+00 1.7050308149707998e+01 2.2993083503266050e+00 0 0 0
300 2 7.3830000000000009e+00 1.7050308149707998e+01 2.2993083503266050e+00 0 0 0
251 2 4.9220000000000006e+00 1.9892026174659328e+01 2.2993083503266050e+00 0 0 0
255 2 6.1524999999999999e+00 1.7760737655945832e+01 2.2993083503266050e+00 0 0 0
296 2 6.1524999999999999e+00 1.9181596668421495e+01 2.2993083503266050e+00 0 0 0
298 2 7.3829999999999991e+00 1.9892026174659328e+01 2.2993083503266050e+00 0 0 0
342 2 9.8440000000000012e+00 1.7050308149707998e+01 2.2993083503266050e+00 0 0 0
376 2 1.2304999999999998e+01 1.7050308149707998e+01 2.2993083503266050e+00 0 0 0
302 2 8.6134999999999984e+00 1.7760737655945832e+01 2.2993083503266050e+00 0 0 0
338 2 8.6135000000000002e+00 1.9181596668421495e+01 2.2993083503266050e+00 0 0 0
340 2 9.8440000000000012e+00 1.9892026174659335e+01 2.2993083503266050e+00 0 0 0
344 2 1.1074500000000002e+01 1.7760737655945835e+01 2.2993083503266050e+00 0 0 0
372 2 1.1074500000000002e+01 1.9181596668421495e+01 2.2993083503266050e+00 0 0 0
196 2 0.0000000000000000e+00 2.4154603212086325e+01 2.2993083503266050e+00 0 0 0
198 2 0.0000000000000000e+00 2.1312885187134999e+01 2.2993083503266050e+00 0 0 0
200 2 1.2304999999999993e+00 2.2023314693372832e+01 2.2993083503266050e+00 0 0 0
241 2 1.2304999999999993e+00 2.3444173705848499e+01 2.2993083503266050e+00 0 0 0
243 2 2.4610000000000003e+00 2.4154603212086325e+01 2.2993083503266050e+00 0 0 0
245 2 2.4610000000000003e+00 2.1312885187134995e+01 2.2993083503266050e+00 0 0 0
247 2 3.6914999999999996e+00 2.2023314693372832e+01 2.2993083503266050e+00 0 0 0
288 2 3.6915000000000004e+00 2.3444173705848499e+01 2.2993083503266050e+00 0 0 0
290 2 4.9220000000000006e+00 2.4154603212086325e+01 2.2993083503266050e+00 0 0 0
292 2 4.9220000000000006e+00 2.1312885187134995e+01 2.2993083503266050e+00 0 0 0
294 2 6.1524999999999990e+00 2.2023314693372832e+01 2.2993083503266050e+00 0 0 0
330 2 6.1524999999999999e+00 2.3444173705848499e+01 2.2993083503266050e+00 0 0 0
332 2 7.3830000000000009e+00 2.4154603212086336e+01 2.2993083503266050e+00 0 0 0
334 2 7.3829999999999991e+00 2.1312885187134999e+01 2.2993083503266050e+00 0 0 0
336 2 8.6135000000000002e+00 2.2023314693372832e+01 2.2993083503266050e+00 0 0 0
364 2 8.6134999999999984e+00 2.3444173705848499e+01 2.2993083503266050e+00 0 0 0
366 2 9.8440000000000012e+00 2.4154603212086336e+01 2.2993083503266050e+00 0 0 0
368 2 9.8440000000000012e+00 2.1312885187134999e+01 2.2993083503266050e+00 0 0 0
370 2 1.1074500000000002e+01 2.2023314693372832e+01 2.2993083503266050e+00 0 0 0
390 2 1.1074500000000002e+01 2.3444173705848499e+01 2.2993083503266050e+00 0 0 0
133 2 0.0000000000000000e+00 1.2787731112280996e+01 5.5154530095985610e+00 0 0 0
170 2 2.4610000000000003e+00 1.2787731112280996e+01 5.5154530095985610e+00 0 0 0
442 2 0.0000000000000000e+00 1.2787731112280996e+01 8.7315976688691883e+00 0 0 0
443 2 1.2305000000000001e+00 1.3498160618518829e+01 8.7315976688691883e+00 0 0 0
461 2 2.4610000000000003e+00 1.2787731112280996e+01 8.7315976688691883e+00 0 0 0
462 2 3.6915000000000004e+00 1.3498160618518829e+01 8.7315976688691883e+00 0 0 0
131 2 0.0000000000000000e+00 1.4208590124756663e+01 5.5154530095985610e+00 0 0 0
166 2 1.2305000000000001e+00 1.4919019630994494e+01 5.5154530095985610e+00 0 0 0
168 2 2.4610000000000003e+00 1.4208590124756663e+01 5.5154530095985610e+00 0 0 0
211 2 3.6915000000000004e+00 1.4919019630994494e+01 5.5154530095985610e+00 0 0 0
441 2 0.0000000000000000e+00 1.5629449137232333e+01 8.7315976688691883e+00 0 0 0
459 2 1.2305000000000001e+00 1.4919019630994494e+01 8.7315976688691883e+00 0 0 0
460 2 2.4610000000000003e+00 1.5629449137232328e+01 8.7315976688691883e+00 0 0 0