LAMMPS data file via write_data, version 16 Mar 2018, timestep = 6000000

6768 atoms
2 atom types

0.0000000000000000e+00 4.9219999999999999e+01 xlo xhi
0.0000000000000000e+00 4.9019635930410494e+01 ylo yhi
2.6489369640128047e-02 6.0035510630362310e+01 zlo zhi

Masses

1 18.015
2 12.01

Atoms # atomic

5094 1 2.1829966670935268e+00 9.2615464025806327e-01 1.1466521908362022e+00 0 1 0
1593 1 3.6130649733301508e+00 2.8566994728768669e+00 2.1824445992295534e+00 -3 1 0
5142 1 6.3361529307750537e+00 2.8708480500171047e+00 1.4204606503294224e+00 1 1 1
6371 1 1.1007886002941357e+01 1.7769055867298389e+00 2.4965991917591110e+00 0 -1 1
2140 1 1.0573852900875615e+01 1.9784116065952023e+01 9.1050537408445482e+00 -2 -2 1
5014 1 3.0134614648594287e+00 5.1443528717000424e+00 1.0808805191823265e+00 2 0 1
6447 1 8.0044414926310363e+00 4.7145720945276599e+00 2.5289024620308393e+00 -1 1 1
4823 1 4.3523740381681160e+00 7.3472008833484885e+00 2.0079197737403396e+00 1 0 1
3855 1 6.9531487143441026e+00 7.0870847467325628e+00 1.4610945022764799e+00 3 2 0
1643 1 1.0463813493120812e+01 4.2729843264353100e+00 1.5423802647426514e+00 -1 0 1
4839 1 1.1950201921551523e+01 6.2846813021460282e+00 2.4448072879079810e+00 2 2 1
1786 1 1.1157133523282772e+01 8.6703260974282408e+00 1.5389076720646322e+00 1 1 1
3826 1 1.0956497210444078e+00 9.5141412901838276e+00 2.3468102293544075e+00 1 0 0
6592 1 3.6151683338908263e+00 9.7016779674541169e+00 1.1835127496151170e+00 2 1 0
1971 1 5.1656926810964743e+00 1.1671292698323997e+01 2.3726666035200576e+00 1 -1 0
3650 1 7.6758411814260468e+00 1.1136382041772519e+01 1.2192362141152344e+00 1 2 0
3228 1 8.7631495633595211e+00 9.0748655308852033e+00 2.1588306068900054e+00 0 -3 0
2002 1 1.2223575774109656e+00 1.4089086065045661e+01 2.4740399367711148e+00 0 -1 0
3263 1 3.8784112158591575e+00 1.3954818193561822e+01 1.4246353016672952e+00 1 0 1
5607 1 5.5524643128660367e+00 1.5732922063616771e+01 2.4566730375249226e+00 4 -1 1
394 1 8.0456007519721773e+00 1.5414059755419121e+01 1.4041636996416724e+00 -1 1 0
87 1 9.1667884390221861e+00 1.3167813979092175e+01 2.2502403782680860e+00 1 0 0
3937 1 1.1735353944485389e+01 1.2831839969805825e+01 1.9513335211967737e+00 2 -1 1
24 1 8.8416270602699631e-01 1.6614063123659221e+01 1.2836776701789487e+00 2 1 1
3446 1 2.4848641245621872e+00 1.8601744268403447e+01 2.2909532631662359e+00 -2 -2 0
4960 1 4.8506529470845878e+00 1.8168908588980454e+01 1.6539873091974258e+00 0 1 1
5286 1 6.3467852723483196e+00 2.0024082795018977e+01 2.5903213244564651e+00 -2 2 0
1409 1 9.5392408535315347e+00 1.7439710944512125e+01 2.5947786486669093e+00 -2 -2 1
41 1 8.8308334064178045e+00 1.9908938335074883e+01 1.6222016769731358e+00 1 1 0
3436 1 1.4794417551206831e+00 2.0809902056373588e+01 1.0583683618139377e+00 1 1 1
193 1 2.9787332510588609e+00 2.2845197837456944e+01 2.3074475565809420e+00 1 -2 0
1578 1 5.6154747320787681e+00 2.2360386094119441e+01 1.4036881108485701e+00 -2 -1 1
3226 1 9.9045656761491365e+00 2.4017734644782163e+01 1.9058293292151058e+00 -2 1 0
1702 1 9.0163302227676034e+00 2.4141762273919497e+01 1.0097179271733554e+01 1 -1 1
2291 1 1.0558064796378009e+01 2.1418510565495058e+01 2.7041773589241846e+00 -2 0 1
317 1 3.4135534022890729e-01 3.1855763799948722e+00 5.9297345055877697e+00 0 1 0
3681 1 2.9413170179069108e+00 2.7717664980289505e+00 4.8736102707714162e+00 0 1 0
1699 1 2.6340538718071116e-01 5.1916407533417450e+00 2.0463784498068871e+00 2 -1 1
64 1 8.2287407554892624e+00 1.9165275038032947e+00 5.8155786268962020e+00 0 -2 0
147 1 1.0725253477249247e+01 1.7392686860560922e+00 5.0615391416691180e+00 -1 2 0
5232 1 4.9128037769378690e+00 2.2762199012157030e+01 9.7025143297111907e+00 -2 0 1
1898 1 1.7415214779135881e+00 7.0131170591261736e+00 5.8742932119510041e+00 -2 -1 0
11 1 1.1379102303904412e+01 2.3764062802118332e+01 9.2625688910720072e+00 1 0 0
3758 1 4.3355383424723728e+00 7.4395910445854785e+00 4.7822753393691837e+00 3 1 0
3625 1 7.4625375775013394e+00 4.2977519739583805e+00 5.2883874272069518e+00 2 -3 1
1414 1 4.6743439239229971e+00 4.7712576796696711e+00 5.6455161312757678e+00 -2 1 1
56 1 8.9426615236215792e+00 6.3154322249035113e+00 6.2709673975505176e+00 -1 -3 1
3787 1 1.1735641774054427e+01 6.3297138394685897e+00 5.2241201836189282e+00 0 2 0
5048 1 2.0834463870150781e+00 1.1602255527357206e+01 5.9673686707245235e+00 0 1 1
3718 1 5.6429281761129957e-01 9.4059662278239689e+00 4.9168811805434709e+00 1 0 0
4820 1 4.8845484610423258e+00 1.1420795499184800e+01 5.2543176252626820e+00 1 -1 1
2080 1 6.1933770498193024e+00 9.1830328787858839e+00 6.0270396654914142e+00 0 1 0
445 1 8.4457394171805795e+00 8.4260596499603793e+00 4.9777084888967469e+00 0 1 0
1368 1 1.0103481563005957e+01 1.0732433866637329e+01 6.0076181633909504e+00 0 -1 1
3838 1 1.3545371890663822e+00 1.3932346405263075e+01 5.1384270252764255e+00 2 0 0
5532 1 3.2456122359424082e+00 1.5607392108321319e+01 6.0496223491074081e+00 1 0 0
2306 1 6.8380067376016189e+00 1.3592707534524248e+01 6.0644751682444120e+00 -1 -1 1
5218 1 5.8995987922633688e+00 1.5704415287055703e+01 5.2533204160396103e+00 0 1 0
1891 1 9.2519070355734225e+00 1.3005114395496141e+01 5.2448857218516238e+00 0 5 1
5475 1 1.0815504100180245e+01 1.5127094922699417e+01 6.2153279364307590e+00 2 0 0
3537 1 2.5177872425953485e+00 1.8055780808975246e+01 4.9605181813287329e+00 2 1 1
3322 1 7.2606093651204668e+00 1.7661451384130704e+01 6.2627145642918407e+00 -1 -1 1
3759 1 6.1979199581528404e+00 2.0072154449163691e+01 5.2313510035253108e+00 -2 -2 0
5476 1 9.6692513943258884e+00 1.7406988672646868e+01 5.3832536692997346e+00 0 -2 0
2192 1 1.1029422859335368e+01 1.9594306916651867e+01 6.4828269992714613e+00 0 0 0
5361 1 3.4397543744213657e+00 2.0412229450135648e+01 6.1430653555196297e+00 1 -2 0
1588 1 2.6343769723678370e+00 2.2630805083250447e+01 4.9716239442982237e+00 0 0 1
4984 1 7.4275099884821072e-01 2.0872131489592480e+01 9.5470516666724521e+00 1 0 1
109 1 7.4693917022047307e+00 2.2333997029121729e+01 8.9471136469742092e+00 0 -3 0
1600 1 7.4539651262707922e+00 2.2271006244620846e+01 6.3377594983733703e+00 1 -2 1
1670 1 6.5870144183768682e+00 5.1776229179819423e-02 4.7694498627095703e+00 -1 -1 0
3691 1 1.1852136710438923e+01 2.3862126231805330e+01 6.5690761027747486e+00 -1 0 0
94 1 1.0186330082669102e+01 2.1830446019384759e+01 5.5881017576557390e+00 -1 -1 0
507 1 5.5612716296675480e-01 3.1046630589861586e+00 8.7255940526512799e+00 2 1 0
3768 1 1.4770041182779166e+00 9.5785290706402837e-01 9.6773670635331683e+00 1 0 0
3130 1 5.4614864254985882e+00 2.4585093769777924e+00 9.4345083482438348e+00 0 0 1
3818 1 8.2718900310094785e+00 2.3418475934668139e+00 8.5811648291168581e+00 -1 3 0
3867 1 3.7464576971723025e+00 5.5054588221252609e-01 8.7738661592415141e+00 -1 1 0
560 1 9.9792689033959014e+00 4.3033652167312058e+00 9.3128600542510203e+00 3 -2 1
3158 1 1.6017893566239538e+00 7.3446916724396285e+00 8.6531672711319025e+00 1 2 1
5646 1 2.1265104472984691e+00 5.0411361775077888e+00 9.6043350082856520e+00 0 2 0
3236 1 4.7530563606816720e-02 1.1973186972318823e+01 1.1392632557946920e+00 0 2 1
429 1 4.4369447269658684e+00 4.7402805320029140e+00 8.4760263383622423e+00 2 0 0
1959 1 6.1973773075520802e+00 6.7792183996542921e+00 9.7333366229107963e+00 0 2 0
398 1 8.8904927359016401e+00 6.8990378586215719e+00 8.8380936827370267e+00 1 -1 0
5044 1 1.0193226440098398e+01 8.9650671700330076e+00 9.8822453147425104e+00 -1 6 0
3313 1 2.9756968942632755e+00 9.2556792108392454e+00 9.9499121120389180e+00 1 1 1
2141 1 2.2551640606463028e+00 1.1493603625620281e+01 8.7901015129750757e+00 0 1 0
3270 1 5.5387166978121947e+00 9.1584234508855573e+00 8.6553978282019628e+00 1 -1 0
3548 1 6.9997306552484160e+00 1.1323521406627677e+01 9.8599478418930424e+00 1 3 0
1387 1 9.6349875482617531e+00 1.1121847943238830e+01 8.7851776505012786e+00 -1 0 1
65 1 1.1089135832628234e+01 1.2942828351132341e+01 9.7050934182068556e+00 2 -2 0
3745 1 3.7511114208676823e+00 1.4017390601494544e+01 9.6056395066450353e+00 0 0 0
1543 1 2.5405123312815365e+00 1.6323504541901841e+01 8.9969818754821720e+00 -1 0 0
5193 1 4.0284183783920025e+00 6.0515795799976335e-01 5.8729526621928905e+00 0 1 0
1550 1 6.4120176531553899e+00 1.3585988851986558e+01 8.6670453983162048e+00 1 1 1
1655 1 7.5616955456987096e+00 1.5901505685115117e+01 9.8532705677802959e+00 -1 0 1
3273 1 1.0089726648773089e+01 1.5573085224681524e+01 8.9013513009511964e+00 0 0 1
3320 1 3.2549069469489309e+00 2.0625864405446901e+01 8.8124958363497665e+00 1 -2 1
5163 1 3.8886397946551954e+00 1.8239134172343903e+01 1.0167634675568607e+01 0 1 1
4797 1 6.4037531692356708e+00 1.8124726068177921e+01 9.0013463455490772e+00 2 0 0
2321 1 7.8486575550529061e+00 2.0046386732427244e+01 9.9378243033281723e+00 0 0 0
4723 1 1.1626139788084517e+01 1.7513680002572844e+01 1.0083084734778449e+01 2 0 1
6686 1 2.3671161970071353e-01 2.2906363886177434e+01 5.8575661588869439e+00 1 -3 0
346 1 6.9316725489245705e+00 4.6234926745105487e-01 2.1936288061166289e+00 1 1 0
5158 1 1.2169006375823871e+01 1.7396116403954295e+01 2.1826923706915293e+00 1 -3 1
463 1 6.8714498791090843e+00 2.4299568866387631e+01 5.1810228854469509e+00 0 -2 1
1335 1 7.2460949703950348e+00 2.4349670152391184e+01 2.5085787663470809e+00 1 -1 1
6499 1 2.9993223699000748e+00 2.6145955079801633e+00 1.3305976912227633e+01 0 1 1
6391 1 2.9592676226206671e+00 2.5877826843415668e+00 1.6071135354672240e+01 -3 0 1
3335 1 1.0959020804305861e-01 2.7728409528182953e+00 1.9612919881785466e+01 1 4 1
6442 1 6.3926258513386225e+00 1.8433983720781000e-01 1.3528925585131832e+01 -2 0 1
1418 1 1.1795479146533843e+01 3.4885940617452711e+00 1.9727924100728806e+01 1 -1 1
1524 1 6.2222870263644117e+00 1.1014234855746887e+01 2.3394581355172104e+01 0 -1 1
6368 1 1.0410407846161085e+01 1.8710135513177815e+00 1.3290395523519663e+01 0 0 1
3278 1 9.5409428425214724e+00 4.7596811657434186e+00 1.2087107380998374e+01 2 -3 1
4758 1 3.8068555099837260e+00 7.2217322711300316e+00 1.3254260097471739e+01 1 1 1
3866 1 3.6694433851974022e+00 7.1061413229565265e+00 1.6015047992032741e+01 1 1 0
3811 1 6.8771390848365774e+00 4.4269170141031164e+00 1.2879088183910985e+01 -1 0 0
4991 1 6.1501918492780021e+00 6.6465390101297341e+00 1.2343687783809404e+01 1 1 1
6435 1 1.1334947321072299e+01 6.3603842088801583e+00 1.3201009782669283e+01 1 3 1
3546 1 8.8598380882302301e+00 2.4310886162992290e+01 1.2548074550429522e+01 1 -1 1
5478 1 9.8079951251816588e+00 8.1139500635140536e+00 2.3172369133032383e+01 1 -1 0
4014 1 9.0440418500934516e+00 2.4421901989696092e+01 2.3292349368953285e+01 2 -1 1
1814 1 4.3808615808131126e+00 1.1394440620987913e+01 1.3596372120438192e+01 1 2 0
6431 1 7.7305290345320365e+00 8.6402489129155757e+00 1.3345520792105365e+01 3 1 1
210 1 8.9389093834021196e+00 2.4364436972862929e+01 2.0686471934950958e+01 0 -2 0
3528 1 1.0251559796513643e+01 8.6289906242315588e+00 1.2624309847205906e+01 0 -1 0
3823 1 1.0070009256008348e+00 1.4360840599774432e+01 1.3223208537852242e+01 1 1 0
5127 1 1.1757734247055859e+01 1.6622114065408045e+01 2.3191278180297669e+01 2 0 0
3417 1 7.3265776977367931e+00 1.5572207729195302e+01 1.2862310395650828e+01 1 2 0
471 1 5.0506691092966145e+00 1.5856766094567794e+01 1.3428922973111836e+01 0 2 0
532 1 1.1027801333371082e+01 1.2827688986442558e+01 1.2638206096301662e+01 0 2 0
601 1 8.4132576639967773e+00 1.3081832776101738e+01 1.3308805487981704e+01 1 0 1
4998 1 1.3037608703262480e+00 1.8638141310690035e+01 1.3625473322980813e+01 0 1 0
6757 1 6.1570800699432571e-01 2.1101700313400301e+01 2.3350143741582084e+01 2 1 1
3005 1 8.0121137504595430e-01 2.0976000064398455e+01 2.0757486908260663e+01 2 1 1
1933 1 5.4660934825126652e+00 2.0459392120764118e+01 1.3554423553760804e+01 -2 0 0
1921 1 8.0305709909812784e+00 1.9869386441542190e+01 1.2874225691059156e+01 2 -1 0
4874 1 8.9957114901633002e+00 1.7560561090620737e+01 1.3815327738164241e+01 1 2 1
4843 1 3.7625126421515271e+00 1.8296834986904454e+01 1.2696033235536939e+01 1 -1 1
5227 1 2.3443781049532335e+00 2.2933928202261111e+01 1.3349216008036645e+01 2 0 0
2084 1 9.8970876749121561e-01 5.9206731470443374e-01 2.3688614487708382e+01 3 0 0
1364 1 4.8545342290382649e+00 2.2656941593771155e+01 1.2440694415683815e+01 -1 -2 1
238 1 9.8685514792084277e+00 2.1877714059074314e+01 1.3447594040475671e+01 0 -1 0
3512 1 2.7956655850478557e-01 9.7875030285086275e+00 1.6289258436231179e+01 0 2 1
3630 1 3.4574890538642986e+00 3.1585185343301675e-01 1.9749640000012214e+01 1 0 1
1720 1 1.2600665698522087e+00 4.4782742111772184e-01 1.2325232671021514e+01 -2 0 0
5612 1 3.1527647460705943e-01 1.6622600526227266e+01 1.2273088198817200e+01 -1 0 0
2030 1 3.2660298169824467e+00 1.3806769145636830e+01 1.2869073146146553e+01 2 -2 0
1729 1 7.7525721147746642e+00 1.9080069592655677e+00 1.9411694563644346e+01 1 2 0
1888 1 7.5223917100368807e+00 1.7483271732894359e+00 1.6527065355448499e+01 -2 0 0
2304 1 1.1469647447242435e+01 1.7190460119738912e+01 1.2893330164402601e+01 -1 0 1
3614 1 1.0254195544709678e+01 1.5789399096723029e+00 1.6266098447019889e+01 -3 1 0
2139 1 1.1831501139587935e+01 3.6744796701800668e+00 1.6958853919735599e+01 2 -1 1
251 1 1.2284853976942998e+00 7.4805564555387836e+00 1.6987534198933975e+01 -1 0 0
2059 1 9.5844713720047292e-01 7.3209982481171556e+00 1.9843451191344037e+01 -1 1 0
3321 1 6.8114658759084703e+00 4.2237061347529998e+00 1.5737626408847209e+01 3 1 1
1415 1 4.4300333630786506e+00 4.7375210017605189e+00 1.6918420626259135e+01 1 4 1
592 1 4.4410524913001685e+00 4.8551228117437253e+00 1.9634490303498250e+01 0 -1 1
603 1 8.2193177616267192e+00 6.1710215479586044e+00 1.7077333812473746e+01 -1 0 1
1503 1 1.0994152328868786e+01 6.0369692443739496e+00 1.5842862813546567e+01 2 1 1
6505 1 8.5316182736548125e+00 6.2313474325011278e+00 1.9994693261218568e+01 -2 1 0
365 1 1.9680378521377597e+00 1.1995895801898548e+01 1.7106160860993857e+01 1 2 0
6695 1 1.9232245286274119e+00 1.1705150704090622e+01 1.9923153788993790e+01 0 2 0
76 1 4.3564279728163156e+00 1.1369316024086272e+01 1.6191496261594995e+01 -2 1 1
6672 1 7.6953610938544319e+00 8.6635825186285054e+00 1.6179940699756560e+01 -1 -2 0
5537 1 5.2284602721351394e+00 8.9983626353109685e+00 1.6976489590446509e+01 0 0 1
5414 1 5.2749342804411148e+00 9.2309206016605980e+00 1.9645901129242041e+01 1 1 0
3740 1 1.1688156990345522e+01 1.0349348222079412e+01 1.6350742380085904e+01 0 1 0
3094 1 9.0204635386126295e+00 1.0500883544417155e+01 1.6935546002233629e+01 -1 1 1
1885 1 9.1202885298711198e+00 1.0810610628319729e+01 1.9596163185009260e+01 0 -1 0
1890 1 8.2918372980057298e-01 1.4132600903434335e+01 1.6045450611181330e+01 4 2 0
4720 1 2.2367338753672064e+00 1.6119225055209235e+01 1.9676058402289215e+01 3 -1 1
3146 1 4.8649342260904840e+00 1.5926701320751560e+01 1.6382324458726075e+01 0 3 1
3796 1 5.9083161803591082e+00 1.3299456640862287e+01 1.7142652086365185e+01 0 0 0
2199 1 5.8777433357815196e+00 1.3308615385992665e+01 1.9772475761200056e+01 -2 1 0
1926 1 8.4213144853040873e+00 1.3087752707578593e+01 1.5908245492464834e+01 0 0 1
350 1 9.8876262301937707e+00 1.4934850797966973e+01 1.6962536474914575e+01 1 0 0
3210 1 2.2884221010354153e+00 1.6223910261787555e+01 1.7007086872564926e+01 -1 0 0
5533 1 1.7052177686589600e+00 1.8752187449723628e+01 1.6274885010793248e+01 -3 3 0
1792 1 3.2434382382938760e+00 2.0362408075116313e+01 1.9746561532125952e+01 -1 1 0
4715 1 5.4716684211804374e+00 2.0510594236286984e+01 1.6309290417733116e+01 0 0 1
3847 1 6.4645863807630217e+00 1.8026653227215085e+01 1.7286648746964485e+01 -4 3 0
5304 1 6.8356682352966649e+00 1.7550401432717941e+01 2.0007794630605304e+01 2 0 0
3785 1 9.0333565189742959e+00 1.7636624114520160e+01 1.6421553657703392e+01 0 0 0
5431 1 1.0708815362802511e+01 1.9566975267935067e+01 1.7589920907002966e+01 0 2 0
5481 1 1.0578489868479458e+01 1.9425845690732846e+01 2.0102382842212169e+01 1 1 0
1406 1 3.0346883205267550e+00 2.0943712383218035e+01 1.7324310921755107e+01 -1 0 1
3720 1 2.0773334124799891e+00 2.3291524744465988e+01 1.6108865383996466e+01 2 0 0
2045 1 7.3116515036647849e+00 2.2384447956698125e+01 1.7474174243379785e+01 0 -1 0
3042 1 1.1354302127341095e+01 2.3647936225271192e+01 1.9883208960558971e+01 1 -2 1
3432 1 9.7105791864514615e+00 2.1677744226977079e+01 1.6143997976872303e+01 2 -1 1
3 1 1.1324674017778069e+01 2.3771870562835261e+01 1.7299033934354938e+01 -1 0 0
5367 1 1.2234744581813866e+01 1.0418371573548161e+01 1.3495557749320922e+01 0 0 0
21 1 1.2174421614034269e+01 2.1055851562558608e+01 2.0661250072176287e+01 0 0 0
452 1 5.5406108920253825e+00 2.4853749129089127e+00 1.2231987777536595e+01 1 1 1
3749 1 5.2531781972472853e+00 2.2198496361361690e+00 2.2809016359382071e+01 0 5 0
280 1 5.3015307383231471e+00 2.2787792921655083e+00 2.0230129186177955e+01 -1 0 0
1937 1 9.4623290284407791e+00 4.3627866506193120e+00 2.3316397938637770e+01 -2 0 0
2176 1 1.6502417082527880e+00 4.7622417639406116e+00 2.2995736025846547e+01 1 0 0
3710 1 1.9130133156366804e+00 4.8461424018631964e+00 2.0263310287609706e+01 -1 -1 0
3940 1 6.8488612691801123e+00 1.1080548082971172e+01 1.2485736859430876e+01 3 0 1
4943 1 5.5162140976247311e+00 6.6602976345700036e+00 2.3301236216577188e+01 0 3 0
607 1 5.9720037013969707e+00 6.8199141652420412e+00 2.0796262295666921e+01 -2 -1 1
3465 1 9.3856548703083540e+00 3.9055153150009705e+00 2.0484688705555563e+01 2 1 0
3179 1 2.8007208010945606e+00 9.1461498156197845e+00 2.0656631992267272e+01 -1 1 1
1961 1 2.4590413959196291e+00 9.3302060683243155e+00 2.3470758581494039e+01 0 0 0
3065 1 6.6949267276925690e+00 1.1007713903012119e+01 2.0598810307765557e+01 0 0 1
205 1 2.2703283805365175e+00 5.2953763252309907e+00 1.2285483698230429e+01 0 -1 0
3052 1 1.0133803721350224e+01 8.5124166849481533e+00 2.0513538762296559e+01 -1 2 1
401 1 7.3577967324810523e+00 2.2439871954957951e+01 2.0089325789079588e+01 1 -1 0
97 1 3.0255590653844862e+00 1.3830261448495538e+01 2.3489992412370597e+01 0 -1 1
2276 1 3.3437699646872105e+00 1.3751336559983264e+01 2.0587413187019777e+01 -4 2 1
189 1 7.4447049450771248e+00 1.5156677612594006e+01 2.0653067107391809e+01 2 -2 0
6743 1 7.2742082465202671e+00 1.5196916758886410e+01 2.3614187719672994e+01 1 2 0
3108 1 9.8330239845760392e+00 1.5091444289609486e+01 1.9691319137812734e+01 -1 0 1
6458 1 1.0727790320332534e+01 1.2878730661093879e+01 2.0824540107720271e+01 -1 -1 1
4889 1 1.0736245420723293e+01 1.2410284966270771e+01 2.3432582602599691e+01 1 0 1
3007 1 3.7753741424063820e+00 1.8133284822358256e+01 2.3541907289638328e+01 -2 -1 1
1778 1 4.0971261020802698e+00 1.7899606823228865e+01 2.0846455363543829e+01 0 0 0
34 1 8.0220643580289490e+00 1.9799087584021109e+01 2.0974019644437586e+01 0 1 0
1482 1 1.1233062612333853e+00 3.8610314367179993e-01 2.1090483011396941e+01 1 -1 1
3252 1 8.2547751735168351e+00 1.9489423481201655e+01 2.3608372446966122e+01 -2 0 1
1826 1 1.1695512260931205e+01 1.7138334788605878e+01 2.0601533521629804e+01 2 1 0
6461 1 8.4590057273222452e-01 2.1007559184373669e+01 1.2291382149508941e+01 1 -1 1
1474 1 3.1822511213796130e+00 2.9253728171549248e-01 1.7191913272352380e+01 -1 3 1
488 1 4.7201773098464432e+00 2.2328314706602843e+01 2.3415267915579076e+01 0 0 0
1848 1 4.6908832647168834e+00 2.2539627861773383e+01 2.0776890424381122e+01 4 0 0
2285 1 3.5195288318204082e-01 2.8253722016957203e+00 1.6899731104542735e+01 2 0 1
1389 1 7.4829580933157693e+00 2.2255375214769977e+01 2.3710959573940720e+01 -1 -1 1
1717 1 8.0045066217035099e-01 6.9598910525169329e+00 2.3510748318343527e+01 -1 1 1
2211 1 2.4342560630168499e+00 9.7178711468608068e+00 1.2347301423766007e+01 0 1 0
3872 1 1.2003164172899890e+01 3.9055073262408815e+00 2.3980216790364700e+01 -1 -1 1
2018 1 1.0919812116916386e+01 1.9164267276150415e+01 2.3834062015633599e+01 -1 2 0
3672 1 8.7280535286552201e+00 1.0572350329195297e+01 2.3899007778917706e+01 1 0 1
6568 1 1.1614833121618798e+01 2.3418980885852562e+01 2.3848695554615599e+01 -3 3 1
2193 1 5.6700132889441717e+00 1.3386699715394627e+01 2.3990775411804357e+01 3 2 0
6683 1 4.0354061934857590e+00 4.4263552500242618e+00 2.3957180171802470e+01 -1 1 1
623 2 0.0000000000000000e+00 2.8417180249513345e+00 2.6825669184670623e+01 0 0 0
625 2 0.0000000000000000e+00 0.0000000000000000e+00 2.6825669184670623e+01 0 0 0
627 2 1.2305000000000001e+00 7.1042950623783474e-01 2.6825669184670623e+01 0 0 0
634 2 1.2305000000000001e+00 2.1312885187134998e+00 2.6825669184670623e+01 0 0 0
636 2 2.4610000000000003e+00 2.8417180249513345e+00 2.6825669184670623e+01 0 0 0
638 2 2.4610000000000003e+00 0.0000000000000000e+00 2.6825669184670623e+01 0 0 0
640 2 3.6915000000000004e+00 7.1042950623783474e-01 2.6825669184670623e+01 0 0 0
655 2 3.6914999999999996e+00 2.1312885187134998e+00 2.6825669184670623e+01 0 0 0
1078 2 8.6135000000000002e+00 2.2023314693372832e+01 3.3236330815363218e+01 0 0 0
657 2 4.9220000000000006e+00 2.8417180249513332e+00 2.6825669184670623e+01 0 0 0
659 2 4.9220000000000006e+00 0.0000000000000000e+00 2.6825669184670623e+01 0 0 0
661 2 6.1524999999999999e+00 7.1042950623783407e-01 2.6825669184670623e+01 0 0 0
684 2 6.1524999999999999e+00 2.1312885187134989e+00 2.6825669184670623e+01 0 0 0
686 2 7.3829999999999991e+00 2.8417180249513345e+00 2.6825669184670623e+01 0 0 0
688 2 7.3829999999999991e+00 0.0000000000000000e+00 2.6825669184670623e+01 0 0 0
690 2 8.6134999999999984e+00 7.1042950623783407e-01 2.6825669184670623e+01 0 0 0
721 2 8.6134999999999984e+00 2.1312885187135002e+00 2.6825669184670623e+01 0 0 0
723 2 9.8440000000000012e+00 2.8417180249513332e+00 2.6825669184670623e+01 0 0 0
725 2 9.8440000000000012e+00 0.0000000000000000e+00 2.6825669184670623e+01 0 0 0
727 2 1.1074500000000002e+01 7.1042950623783330e-01 2.6825669184670623e+01 0 0 0
766 2 1.1074500000000002e+01 2.1312885187135002e+00 2.6825669184670623e+01 0 0 0
2299 1 3.0034122135081840e+00 2.0298586945257235e+01 2.4413750340468003e+01 -3 -1 1
2098 1 1.8313367327387489e+00 1.6012745499199440e+01 2.4222397425744745e+01 2 1 0
628 2 0.0000000000000000e+00 7.1042950623783341e+00 2.6825669184670623e+01 0 0 0
630 2 0.0000000000000000e+00 4.2625770374269996e+00 2.6825669184670623e+01 0 0 0
632 2 1.2305000000000001e+00 4.9730065436648339e+00 2.6825669184670623e+01 0 0 0
647 2 1.2305000000000001e+00 6.3938655561404980e+00 2.6825669184670623e+01 0 0 0
649 2 2.4610000000000003e+00 7.1042950623783341e+00 2.6825669184670623e+01 0 0 0
651 2 2.4610000000000003e+00 4.2625770374269996e+00 2.6825669184670623e+01 0 0 0
653 2 3.6914999999999996e+00 4.9730065436648339e+00 2.6825669184670623e+01 0 0 0
676 2 3.6914999999999996e+00 6.3938655561404980e+00 2.6825669184670623e+01 0 0 0
678 2 4.9220000000000006e+00 7.1042950623783341e+00 2.6825669184670623e+01 0 0 0
680 2 4.9220000000000006e+00 4.2625770374269978e+00 2.6825669184670623e+01 0 0 0
682 2 6.1524999999999999e+00 4.9730065436648339e+00 2.6825669184670623e+01 0 0 0
713 2 6.1524999999999999e+00 6.3938655561404980e+00 2.6825669184670623e+01 0 0 0
715 2 7.3830000000000009e+00 7.1042950623783341e+00 2.6825669184670623e+01 0 0 0
717 2 7.3829999999999991e+00 4.2625770374269996e+00 2.6825669184670623e+01 0 0 0
1095 2 1.1074500000000002e+01 2.2023314693372832e+01 3.3236330815363218e+01 0 0 0
719 2 8.6135000000000002e+00 4.9730065436648339e+00 2.6825669184670623e+01 0 0 0
758 2 8.6135000000000002e+00 6.3938655561404980e+00 2.6825669184670623e+01 0 0 0
760 2 9.8440000000000012e+00 7.1042950623783341e+00 2.6825669184670623e+01 0 0 0
762 2 9.8440000000000012e+00 4.2625770374270004e+00 2.6825669184670623e+01 0 0 0
764 2 1.1074500000000002e+01 4.9730065436648339e+00 2.6825669184670623e+01 0 0 0
805 2 1.1074500000000002e+01 6.3938655561404980e+00 2.6825669184670623e+01 0 0 0
641 2 0.0000000000000000e+00 1.1366872099805333e+01 2.6825669184670623e+01 0 0 0
643 2 0.0000000000000000e+00 8.5251540748539991e+00 2.6825669184670623e+01 0 0 0
645 2 1.2305000000000001e+00 9.2355835810918343e+00 2.6825669184670623e+01 0 0 0
668 2 1.2305000000000001e+00 1.0656442593567498e+01 2.6825669184670623e+01 0 0 0
670 2 2.4610000000000003e+00 1.1366872099805333e+01 2.6825669184670623e+01 0 0 0
672 2 2.4610000000000003e+00 8.5251540748539991e+00 2.6825669184670623e+01 0 0 0
674 2 3.6915000000000004e+00 9.2355835810918343e+00 2.6825669184670623e+01 0 0 0
705 2 3.6914999999999996e+00 1.0656442593567499e+01 2.6825669184670623e+01 0 0 0
196 1 9.9414225226109796e+00 1.4927389439257356e+01 2.4316510211728090e+01 0 0 0
707 2 4.9220000000000006e+00 1.1366872099805333e+01 2.6825669184670623e+01 0 0 0
709 2 4.9220000000000006e+00 8.5251540748539991e+00 2.6825669184670623e+01 0 0 0
711 2 6.1524999999999999e+00 9.2355835810918343e+00 2.6825669184670623e+01 0 0 0
750 2 6.1524999999999999e+00 1.0656442593567499e+01 2.6825669184670623e+01 0 0 0
752 2 7.3829999999999991e+00 1.1366872099805333e+01 2.6825669184670623e+01 0 0 0
754 2 7.3830000000000009e+00 8.5251540748539991e+00 2.6825669184670623e+01 0 0 0
5420 1 6.4667988583778708e+00 1.1325496238053452e+01 3.5551954845824667e+01 1 1 -1
756 2 8.6134999999999984e+00 9.2355835810918343e+00 2.6825669184670623e+01 0 0 0
797 2 8.6134999999999984e+00 1.0656442593567498e+01 2.6825669184670623e+01 0 0 0
799 2 9.8440000000000012e+00 1.1366872099805333e+01 2.6825669184670623e+01 0 0 0
801 2 9.8440000000000012e+00 8.5251540748539956e+00 2.6825669184670623e+01 0 0 0
803 2 1.1074500000000002e+01 9.2355835810918343e+00 2.6825669184670623e+01 0 0 0
844 2 1.1074500000000002e+01 1.0656442593567498e+01 2.6825669184670623e+01 0 0 0
846 2 1.2304999999999998e+01 1.1366872099805333e+01 2.6825669184670623e+01 0 0 0
6486 1 1.2134922493275200e+01 7.9328087451013225e+00 2.4162513380653792e+01 1 0 1
1978 1 4.9264615725521068e+00 9.0232913471355296e+00 2.4182622174913320e+01 1 2 0
662 2 0.0000000000000000e+00 1.5629449137232333e+01 2.6825669184670623e+01 0 0 0
664 2 0.0000000000000000e+00 1.2787731112280996e+01 2.6825669184670623e+01 0 0 0
666 2 1.2305000000000001e+00 1.3498160618518829e+01 2.6825669184670623e+01 0 0 0
697 2 1.2305000000000001e+00 1.4919019630994494e+01 2.6825669184670623e+01 0 0 0
699 2 2.4610000000000003e+00 1.5629449137232328e+01 2.6825669184670623e+01 0 0 0
701 2 2.4610000000000003e+00 1.2787731112280996e+01 2.6825669184670623e+01 0 0 0
703 2 3.6915000000000004e+00 1.3498160618518829e+01 2.6825669184670623e+01 0 0 0
742 2 3.6915000000000004e+00 1.4919019630994494e+01 2.6825669184670623e+01 0 0 0
744 2 4.9220000000000006e+00 1.5629449137232333e+01 2.6825669184670623e+01 0 0 0
746 2 4.9220000000000006e+00 1.2787731112280996e+01 2.6825669184670623e+01 0 0 0
748 2 6.1524999999999990e+00 1.3498160618518829e+01 2.6825669184670623e+01 0 0 0
789 2 6.1524999999999990e+00 1.4919019630994494e+01 2.6825669184670623e+01 0 0 0
791 2 7.3829999999999991e+00 1.5629449137232333e+01 2.6825669184670623e+01 0 0 0
793 2 7.3829999999999991e+00 1.2787731112280996e+01 2.6825669184670623e+01 0 0 0
1093 2 9.8440000000000012e+00 2.4154603212086336e+01 3.3236330815363218e+01 0 0 0
795 2 8.6135000000000002e+00 1.3498160618518835e+01 2.6825669184670623e+01 0 0 0
836 2 8.6135000000000002e+00 1.4919019630994494e+01 2.6825669184670623e+01 0 0 0
838 2 9.8440000000000012e+00 1.5629449137232328e+01 2.6825669184670623e+01 0 0 0
840 2 9.8440000000000012e+00 1.2787731112280996e+01 2.6825669184670623e+01 0 0 0
842 2 1.1074500000000002e+01 1.3498160618518829e+01 2.6825669184670623e+01 0 0 0
878 2 1.1074500000000002e+01 1.4919019630994494e+01 2.6825669184670623e+01 0 0 0
5520 1 8.0947653489029019e+00 6.4410376559529183e+00 2.4219776018927949e+01 2 1 1
691 2 0.0000000000000000e+00 1.9892026174659328e+01 2.6825669184670623e+01 0 0 0
693 2 0.0000000000000000e+00 1.7050308149707998e+01 2.6825669184670623e+01 0 0 0
695 2 1.2305000000000001e+00 1.7760737655945832e+01 2.6825669184670623e+01 0 0 0
734 2 1.2305000000000001e+00 1.9181596668421495e+01 2.6825669184670623e+01 0 0 0
736 2 2.4610000000000003e+00 1.9892026174659328e+01 2.6825669184670623e+01 0 0 0
738 2 2.4610000000000003e+00 1.7050308149707998e+01 2.6825669184670623e+01 0 0 0
740 2 3.6914999999999996e+00 1.7760737655945832e+01 2.6825669184670623e+01 0 0 0
781 2 3.6914999999999996e+00 1.9181596668421495e+01 2.6825669184670623e+01 0 0 0
3808 1 3.2369595252358554e+00 1.4182684952743784e+01 3.5468686163924104e+01 1 0 -1
783 2 4.9220000000000006e+00 1.9892026174659328e+01 2.6825669184670623e+01 0 0 0
785 2 4.9220000000000006e+00 1.7050308149707998e+01 2.6825669184670623e+01 0 0 0
787 2 6.1524999999999999e+00 1.7760737655945832e+01 2.6825669184670623e+01 0 0 0
828 2 6.1524999999999999e+00 1.9181596668421495e+01 2.6825669184670623e+01 0 0 0
830 2 7.3829999999999991e+00 1.9892026174659328e+01 2.6825669184670623e+01 0 0 0
832 2 7.3830000000000009e+00 1.7050308149707998e+01 2.6825669184670623e+01 0 0 0
5529 1 7.7083537909509614e+00 2.4261635529514574e+00 2.4159834784380134e+01 2 1 1
834 2 8.6134999999999984e+00 1.7760737655945832e+01 2.6825669184670623e+01 0 0 0
870 2 8.6135000000000002e+00 1.9181596668421495e+01 2.6825669184670623e+01 0 0 0
872 2 9.8440000000000012e+00 1.9892026174659335e+01 2.6825669184670623e+01 0 0 0
874 2 9.8440000000000012e+00 1.7050308149707998e+01 2.6825669184670623e+01 0 0 0
876 2 1.1074500000000002e+01 1.7760737655945835e+01 2.6825669184670623e+01 0 0 0
904 2 1.1074500000000002e+01 1.9181596668421495e+01 2.6825669184670623e+01 0 0 0
908 2 1.2304999999999998e+01 1.7050308149707998e+01 2.6825669184670623e+01 0 0 0
1105 2 1.1074500000000002e+01 2.3444173705848499e+01 3.3236330815363218e+01 0 0 0
728 2 0.0000000000000000e+00 2.4154603212086325e+01 2.6825669184670623e+01 0 0 0
730 2 0.0000000000000000e+00 2.1312885187134999e+01 2.6825669184670623e+01 0 0 0
732 2 1.2304999999999993e+00 2.2023314693372832e+01 2.6825669184670623e+01 0 0 0
773 2 1.2304999999999993e+00 2.3444173705848499e+01 2.6825669184670623e+01 0 0 0
775 2 2.4610000000000003e+00 2.4154603212086325e+01 2.6825669184670623e+01 0 0 0
777 2 2.4610000000000003e+00 2.1312885187134995e+01 2.6825669184670623e+01 0 0 0
779 2 3.6914999999999996e+00 2.2023314693372832e+01 2.6825669184670623e+01 0 0 0
820 2 3.6915000000000004e+00 2.3444173705848499e+01 2.6825669184670623e+01 0 0 0