LAMMPS data file via write_data, version 16 Mar 2018, timestep = 100000

6589 atoms
2 atom types

0.0000000000000000e+00 4.9219999999999999e+01 xlo xhi
0.0000000000000000e+00 4.9019635930410494e+01 ylo yhi
1.1892145120973474e+00 5.8872785487902362e+01 zlo zhi

Masses

1 18.015
2 12.01

Atoms # atomic

1296 1 1.7218791722551885e+00 1.5480193545775540e+00 4.1832450275562705e+00 1 1 1
3070 1 4.5675887439072627e+00 1.5907118166431564e+00 3.2875113277187591e+00 1 -2 1
3547 1 1.1706619454916073e+01 1.8040689116873150e+01 2.5850290474084847e+00 0 -1 1
1718 1 1.1364353052091920e+01 6.8701999098862476e+00 3.5349517906743926e+00 1 0 0
409 1 6.2648311757792028e+00 7.9416069001893508e-01 5.6501428064463326e+00 0 -1 1
1960 1 5.1070542329050754e+00 4.3684214257151872e+00 3.6675002783226831e+00 1 2 0
5404 1 1.0574649890122448e+01 6.9241292759078910e-01 5.3224866611166490e+00 1 0 0
5337 1 9.4964638034392870e+00 3.5911471460544364e+00 2.0761465608501779e+00 0 0 0
5320 1 3.5599634306590172e-01 2.1605117151076350e+01 4.2781261628336331e+00 1 0 1
3337 1 2.8604110941991485e+00 5.7579595229920821e+00 3.2839970575233832e+00 -1 -1 0
2055 1 6.1519873136301948e+00 5.8030464424627803e+00 5.7106548434351261e+00 1 0 0
6431 1 1.9277974995339926e+00 2.2982880820154879e+01 1.4225821662160472e+01 2 0 1
3415 1 8.8601507736716503e+00 5.3552672164758510e+00 6.9076833973826712e+00 0 0 1
2175 1 8.6207983508173722e+00 1.0097385022671446e+01 6.4554291766903535e+00 0 1 1
2151 1 1.0318908738269526e+01 4.6228619078246238e+00 4.4599703279504714e+00 0 0 1
6297 1 2.1191694698707414e-01 1.8928641173538538e+00 1.6692374436604100e+00 0 2 1
1549 1 2.9178543434555668e+00 1.0288114355415006e+01 6.5601470808325004e+00 -1 1 0
6424 1 2.3262489279304304e+00 1.3059914294447559e+01 2.6647379089598617e+00 0 1 0
5529 1 1.6582137282334553e+00 8.4488013907833484e+00 4.5311574540922539e+00 1 0 0
5248 1 6.0092693512899373e+00 8.2681458087770086e+00 4.1048143949361089e+00 1 0 0
2927 1 6.3849347747180216e+00 1.1084354749665216e+01 4.3646801365031740e+00 2 1 1
233 1 3.8399209829381977e+00 1.2304070926240088e+01 4.8228539609326404e+00 -1 2 0
1654 1 1.0186800932083390e+01 9.2868857027252876e+00 4.1759862910486483e+00 0 -1 0
3335 1 9.8916878189733204e+00 1.2466947141567655e+01 6.3099303083597604e+00 1 0 0
6357 1 5.1437636946668386e+00 2.3978757301502437e+01 1.3591778732342881e+01 1 1 1
334 1 1.0633983123224269e+01 2.3194101301957847e+01 1.5008953667752841e+01 0 1 0
3387 1 4.1945126783787865e+00 1.5024470674826169e+01 5.4484027204675289e+00 2 0 0
5327 1 6.6826581275246220e+00 1.6514255436680259e+01 5.0576492123847849e+00 1 1 0
4714 1 8.9057485872519564e+00 1.2406049552549982e+01 3.4352664888459508e+00 -1 -1 1
5429 1 8.3868865723115764e+00 1.5059418669645551e+01 3.2268360766588118e+00 0 0 1
2060 1 3.5551708007934435e-01 7.7370321126062356e+00 7.0880100437564266e+00 0 0 0
74 1 1.1638180841413766e+01 1.4084652599007034e+01 3.5112735159955268e+00 0 2 1
5545 1 2.5558831929595409e+00 1.7038059171380326e+01 4.2755950171815638e+00 0 1 1
4743 1 2.2037706684836529e+00 1.9686383966153045e+01 5.2790746753276130e+00 2 0 1
1351 1 5.4318202278017518e+00 6.5454162476991415e-02 1.4369074242423771e+01 -1 1 1
4750 1 4.2408264033820195e+00 2.0451715325145951e+01 3.7711866800119482e+00 1 -1 1
4808 1 8.0651057790070748e+00 1.7042941369791020e+01 7.2309999485401688e+00 1 1 1
3004 1 6.5715349343561389e+00 1.8524312553162698e+01 3.2868512182167420e+00 0 0 1
385 1 3.6795170439683558e+00 2.4475681678822845e+01 4.6173308978686478e+00 0 0 0
2049 1 1.0699861243186787e+01 2.0497558450461973e+01 3.9529642069135638e+00 1 0 0
4673 1 1.1576830148868362e+01 1.7964734771079332e+01 7.1528162234675703e+00 0 0 1
3233 1 3.6681444001259922e+00 1.5156341810363189e+01 1.4925447860209795e+00 0 1 0
2215 1 9.3668886721911637e-01 2.3974401105253840e+01 5.2040897032923974e+00 -1 -1 1
5409 1 4.2519722050958713e+00 2.2943426790817352e+01 2.4975433765811248e+00 1 1 0
6557 1 8.9847364022891707e+00 4.5902334379162637e+00 1.5485502926518530e+01 1 1 1
259 1 7.7035054418086508e+00 2.0842240481843760e+01 4.5335158578646970e+00 -1 0 0
6341 1 5.3579544999621787e+00 2.3355351428265440e+01 6.5285846895105095e+00 0 0 1
5387 1 6.4276042179688342e-01 1.0389006062794156e+01 2.8594180491898529e+00 1 2 0
3229 1 1.1276261100905110e+01 2.2072757837395290e+01 1.2557223088958986e+01 0 0 0
1523 1 8.1453505585839245e+00 2.2500091968699781e+01 7.0189508590960141e+00 -1 0 1
6373 1 1.0058769207755235e+01 2.2872094151993451e+01 2.4784224607793988e+00 1 0 1
6205 1 8.3109686418155970e+00 2.2182668401673990e+01 1.2599794013258357e+01 1 1 1
1947 1 1.0191115776027329e+01 1.5893680701329815e+01 1.4779239292133495e+00 0 1 0
1562 1 1.7545491674687055e+00 8.8667766280150406e-01 8.3694130793809194e+00 0 0 1
6582 1 4.5180050900587965e+00 2.7000659371132660e+00 1.0754575688646451e+01 0 2 1
6481 1 6.1221521244902881e+00 3.2253620755222911e+00 7.0180107680358317e+00 0 0 1
1767 1 3.4804399669418520e+00 3.1211895001599013e+00 7.7390712842335736e+00 0 0 0
1865 1 7.2714138539020077e+00 2.7716583260365768e+00 1.0800020077436580e+01 -1 1 1
3071 1 8.7777643028676806e+00 2.9284071598142325e+00 8.4797489314831012e+00 0 1 1
124 1 1.0139683802098473e+01 6.8800399839934956e-01 7.7635237120247949e+00 1 1 0
350 1 1.2092782016941246e+01 7.5619942111825456e+00 9.0014862933106201e+00 0 0 0
6253 1 2.2936338392972373e+00 4.0694689902953369e+00 5.3683291540938312e+00 0 1 1
6283 1 2.7383683563876220e+00 5.0046775408320574e+00 9.6982340528652689e+00 0 1 1
46 1 2.6171668531131016e+00 7.6457004563983011e+00 8.7385644350344585e+00 0 0 0
14 1 6.9661372785478584e+00 7.5843796237397463e+00 9.7311387773672209e+00 1 0 0
3670 1 9.1940130764045129e+00 7.8789911552730674e+00 8.0835744167565409e+00 0 0 0
95 1 7.0780902734361595e+00 2.2919937856139558e+01 2.3485633754270538e+00 -1 0 0
386 1 6.0987033772877846e+00 1.4339226840167610e+01 1.2699461101917091e+00 0 0 1
1666 1 1.1172935379699537e+01 4.5988373270169953e+00 8.9306054596798301e+00 1 -1 0
5182 1 5.0826082148155738e+00 7.7941855934911732e+00 7.4946545110332732e+00 0 0 0
1589 1 1.6391064349122499e+00 1.1412006379036688e+01 8.8468980636739616e+00 0 1 1
1417 1 1.2108484585564385e+01 1.1323340960401891e+01 3.8851934092358102e+00 0 -1 1
413 1 5.9362766260518294e+00 1.0470845591858405e+01 7.2491155041150028e+00 0 0 0
534 1 6.3015457944835092e+00 1.1867554944610358e+01 9.5167201990598951e+00 0 0 1
3272 1 6.9113343263151235e+00 9.8637805398546394e+00 1.1199431478379577e+01 0 0 0
1709 1 8.1739553674655525e+00 1.4151637584465249e-01 3.9342867234051790e+00 0 0 1
374 1 1.0400171681188930e+01 1.2276216752617522e+01 1.0620546726048506e+01 0 1 0
1531 1 3.7802287647661532e+00 1.3074804501573713e+01 9.3732133117517247e+00 1 -1 1
2993 1 3.6957056532349322e+00 1.5357257197089044e+01 8.1604853450546528e+00 -1 -1 1
1920 1 7.2196006472086802e+00 1.4764574128015395e+01 1.0716885830451927e+01 0 0 0
3246 1 8.5423210784285537e+00 1.3364819690177923e+01 8.6897915862632971e+00 0 1 0
3555 1 1.0525619571990939e+01 1.5588074546332765e+01 7.9572725360919554e+00 1 0 0
4989 1 1.7960405748947257e+00 1.7240249052194841e+01 9.1938899967157948e+00 1 0 0
1477 1 2.6740384610767869e+00 1.9761924202510528e+01 8.0841627101447209e+00 1 0 1
1734 1 6.0150838149975483e+00 1.6526103523927734e+01 8.9565353653653546e+00 -1 0 1
3525 1 7.3855666026955928e+00 1.9646667390580156e+01 7.7676303645507456e+00 -1 -1 0
77 1 4.9495530688998661e+00 2.0657170452727602e+01 6.6017731962022737e+00 0 1 1
5461 1 4.2198648673936683e+00 1.7926522826977926e+01 1.9788455275900823e+00 1 2 1
4642 1 1.0282970644664395e+01 1.9728025757876811e+01 1.1263535916006843e+01 0 0 1
542 1 6.6837450162743774e+00 2.1110282925236458e+01 1.4691605856523882e+01 0 0 0
4889 1 4.1385426903178555e+00 8.1088860903811284e+00 2.2700948012862243e+00 0 1 1
6417 1 6.0265856551876009e+00 4.2099915837102495e+00 1.5008953695378654e+01 1 1 1
5506 1 1.7469096092964080e+00 2.4207025877204536e+01 8.0709875131796416e+00 -1 2 1
1540 1 1.1244074391361409e+01 1.4352793869205154e+01 1.2062357869542499e+01 -1 2 1
6272 1 1.0393920098443568e+01 2.0525048536321023e+01 6.6361804888029807e+00 2 0 0
1512 1 1.6313112437778008e+00 2.6860199287162589e+00 1.4132237252846018e+01 -1 0 1
6437 1 3.4510996699656515e+00 8.7929397661713304e-01 1.2394252612991018e+01 0 2 1
1686 1 7.3458543930755429e+00 1.9011816524892495e+00 1.7459714193265596e+00 0 0 0
6190 1 7.6663581972302000e+00 8.7608771511909234e-01 1.2562229575138536e+01 1 0 1
1330 1 9.7795246329749901e+00 2.0424323795031043e+00 1.3698758514850280e+01 0 0 1
1719 1 4.9083592817107391e+00 6.5042443832656218e+00 1.2934316759201661e+01 1 2 0
1502 1 2.7826763545416147e+00 4.9279075196279960e+00 1.2516808207901963e+01 1 -1 0
4845 1 7.0855775914218775e+00 5.5074768210796847e+00 1.1725677946546153e+01 1 0 0
3688 1 6.0792587638961193e-01 7.6927886656326390e+00 1.5567627471162448e+01 0 1 0
3408 1 9.4865251623264477e+00 5.8383473243799875e+00 1.2949494064110587e+01 0 1 0
6390 1 3.7639546908801841e-01 2.1676243358972997e+01 1.2113585714473283e+01 1 0 1
1500 1 4.0707236777626693e-01 6.4599371284828644e+00 1.3109519885904666e+01 0 0 1
2062 1 2.1066187750387355e+00 9.2982175134832037e+00 1.0581403489785759e+01 0 0 0
2252 1 4.4374990161865986e+00 9.2620796539185566e+00 1.2346197781245552e+01 0 0 0
1615 1 4.3737547951341114e+00 9.5165549196949311e+00 1.5138798884988086e+01 -1 1 1
236 1 7.4087187821998208e+00 1.9933819526547850e+01 1.0651083368524970e+01 0 1 0
3171 1 9.1040968337800496e+00 1.0761424167707776e+01 1.2471413265365701e+01 1 1 1
4661 1 1.0603847292177699e+01 8.2965361655987202e+00 1.2605016949737511e+01 0 0 1
315 1 1.6438193920973569e+00 1.4732701777177892e+01 1.4851302482348705e+01 1 0 0
330 1 1.5155710023912394e+00 1.7821296973208490e+01 1.1901841675328598e+01 0 0 0
2913 1 5.1120351991206983e+00 1.2423340007247868e+01 1.4306998080135179e+01 1 -1 0
2942 1 3.2931451378839727e+00 1.6008353477302052e+01 1.3058413437765738e+01 1 0 1
587 1 4.5964492815310853e+00 1.3982367036884920e+01 1.2067509029024498e+01 0 0 1
162 1 8.7754361363217992e+00 1.1672021836420509e+01 1.5000120754419598e+01 1 0 0
5346 1 8.9242543926566196e+00 1.5492331817465194e+01 1.2691126985451060e+01 0 1 0
6344 1 4.9254370791841238e+00 2.2269687231346836e+01 1.1095148072210581e+01 2 0 1
3731 1 5.1755086467185074e-01 2.1548066464533971e+01 8.8600196383513925e+00 1 1 0
4923 1 1.3703738933372083e+00 1.9674193954527034e+01 1.4469905921312654e+01 0 0 0
5242 1 2.7019709271400454e+00 2.0474555673527210e+01 1.0859274992667926e+01 0 -1 0
1982 1 1.7083773104133662e-01 1.1862959212949352e+01 1.1596165069628478e+01 0 1 1
6482 1 8.1957681999037002e-01 2.4227153370739309e+01 1.0801143793290098e+01 1 -1 1
3510 1 4.9367901053264776e+00 1.8321538438007110e+01 1.1044963099054804e+01 1 1 1
3370 1 6.4792402827158782e+00 1.8710199702384624e+01 1.3460423809325166e+01 0 1 0
5390 1 8.2577684704354013e+00 8.2547011864468054e+00 2.3023801661580974e+00 0 0 0
3096 1 9.0620843620426150e+00 1.8403795783805329e+01 1.3317700051903165e+01 1 0 1
3431 1 1.1246652444485537e+01 4.0902140625508023e+00 1.1654820359780992e+01 -1 0 0
3541 1 1.2137107624274629e+01 2.4467667770130177e+01 1.1357688133153486e+01 0 1 0
45 1 4.3855268413725073e+00 2.3870048111634077e+01 8.9650141618297940e+00 0 0 1
1618 1 5.4928881831709866e+00 1.1804182854261906e+01 1.5288395878308245e+00 0 -1 0
6401 1 8.7929954888818678e+00 1.8932876177838615e+01 1.6164236404190921e+00 1 -1 1
6544 1 7.7337384391411943e+00 1.4107284905356574e+01 1.4701836107104596e+01 0 1 0
3788 1 4.6265398030876064e+00 1.7416987635959032e+01 1.4924635826213903e+01 1 1 0
6282 1 1.1674163652745571e+01 8.1329470844313931e+00 1.5136380350739755e+01 1 1 1
5471 1 1.2270118256858691e+00 4.6599454951882802e+00 1.6198576776089202e+00 1 0 1
4904 1 1.1659392851784242e+01 5.3213309631372319e+00 1.5586315040548625e+01 1 1 0
3013 1 3.8294185452147720e+00 2.2590550022367482e+00 1.8043961156417261e+01 0 1 1
401 1 1.9797694538395081e+00 3.7098602868184631e+00 1.6508049112926301e+01 0 1 0
5247 1 6.1445368746762581e+00 1.7587619953781675e+00 1.6632962994403574e+01 1 0 0
2254 1 1.1278692275687504e+01 1.2855417753282017e+00 1.9776859730267866e+01 0 1 1
1498 1 8.2312452855808083e+00 2.1996670264207192e+00 1.7863707608516684e+01 2 0 1
5298 1 9.3742984244633085e+00 1.8694719073383343e+01 1.6471951351283469e+01 0 0 0
1912 1 1.0985010555879831e+00 7.0597855510292797e+00 2.0881931581573802e+01 2 1 0
4870 1 9.4443126835213107e+00 2.1376712791309831e+01 1.6837347232882287e+01 2 0 0
6576 1 5.8089465976658143e+00 1.5659190521975155e-01 2.1434415476826189e+01 1 2 1
4640 1 1.1417297360435644e+01 1.2362861474184941e+01 1.6141408074268988e+01 2 1 1
1469 1 7.7894563514026007e+00 7.0069414535431704e+00 1.6755945065956297e+01 -1 1 1
5502 1 9.2055408945256556e-01 2.4465767046955989e+01 2.3820106162084031e+01 1 -1 1
3380 1 9.3800646230130769e-01 1.9440291131904434e+01 2.3638140757190644e+01 0 0 0
839 2 8.6135000000000002e+00 2.2023314693372832e+01 2.6793683507193691e+01 0 0 0
336 1 2.2390457155760282e+00 9.7837241695828556e+00 1.6910812641934534e+01 1 0 0
4771 1 1.2116617954231412e+01 2.3936145763307163e+01 2.1011224636121486e+01 1 0 1
5090 1 4.0951707151951648e+00 2.1874833288590828e+01 1.5623905268545261e+01 1 0 0
6369 1 2.9362891103126376e+00 7.9131175138406817e+00 1.9147405561971333e+01 -1 0 1
3641 1 3.9213705741955973e+00 1.0585551346081514e+01 2.0145470577319514e+01 0 0 0
4953 1 6.3639147407480641e+00 1.1392899833239621e+01 1.8870000645773938e+01 0 0 1
3338 1 6.7099440594667801e+00 1.0124105177547222e+01 1.6263622278540247e+01 -1 1 1
4574 1 7.5777620208252410e+00 8.4559497031626396e+00 1.9143710826584499e+01 1 0 1
44 1 1.0132886804420519e+01 9.7355377943674650e+00 1.6979293700149661e+01 -1 0 1
5262 1 1.1571059538012371e+01 9.9302649674797099e+00 1.9566538077800374e+01 1 0 0
412 1 2.0004830743359960e+00 1.2538109321859752e+01 1.9715865334569752e+01 1 -1 0
5080 1 2.1939352262822687e+00 1.2562353744799433e+01 1.7048953991769153e+01 1 0 1
4676 1 1.1993401306965771e+01 1.5130782664119661e+01 2.0468198305469400e+01 0 0 1
3726 1 2.7524102088872926e+00 1.5206718871704080e+01 2.0383419560327486e+01 0 1 0
209 1 4.9598898690433906e+00 1.3231260218329357e+01 1.6980744637128659e+01 0 1 0
893 2 1.1074500000000002e+01 2.3444173705848499e+01 2.6793683507193691e+01 0 0 0
552 1 5.0202430125109565e+00 2.3403694426786256e+01 2.1160691129346059e+01 0 0 1
4838 1 1.1422017793081473e+01 1.7915575468556153e+01 2.4397104066603021e+01 1 0 1
1451 1 5.2946620759621323e+00 1.6117860232368887e+01 1.9826142130660855e+01 0 0 1
5082 1 5.7262494924947225e+00 1.9648897600505720e+01 1.8271614887933612e+01 1 0 1
1805 1 5.6172843667235570e+00 1.5887238425454548e+01 1.7151391084604221e+01 1 1 0
2978 1 8.7570886029606836e+00 1.4959630214106735e+01 1.7128754519312515e+01 0 0 1
869 2 9.8440000000000012e+00 2.4154603212086336e+01 2.6793683507193691e+01 0 0 0
2915 1 2.3945676852607498e+00 2.0115678678296714e+01 2.1017224575028703e+01 1 0 1
3866 1 1.1623283972109807e+01 1.7793698920363948e+01 2.0164103963174625e+01 1 1 1
3686 1 2.7811725442067834e+00 2.3694366052729546e+01 1.7298592437259920e+01 1 0 0
5488 1 2.5117065657139124e+00 2.2856820381513366e+01 1.9844958790116483e+01 1 2 0
3409 1 6.8988150519573548e+00 2.2565844114496755e+01 1.7363659087387763e+01 0 0 0
3692 1 9.2508758209522775e+00 1.8883891256360361e+01 2.0672473173136925e+01 1 1 0
1393 1 7.9151571206490967e+00 1.7750410974049785e+01 1.8342873582564017e+01 -1 0 1
3158 1 4.3187129650471370e+00 2.1644758809793347e+00 2.0661895691663556e+01 0 0 1
5243 1 3.6248843495663230e-01 4.5486810446630681e+00 2.0671411469713068e+01 0 1 0
867 2 8.6134999999999984e+00 2.3444173705848499e+01 2.6793683507193691e+01 0 0 0
4942 1 1.6934130966993617e+00 4.7591188088128664e+00 2.4446878430921220e+01 1 0 1
1447 1 1.4483898984917760e+00 1.5208788397715316e+00 2.1519404302133111e+01 0 1 1
97 1 7.9310460608242117e+00 7.8703418145933624e-01 2.4264314154463147e+01 1 1 0
404 1 8.1847872146062262e+00 1.6532614672731938e+00 2.0886530447176476e+01 -1 0 1
4875 1 8.2060034355889915e+00 5.0636192369772788e+00 1.8803573377438582e+01 -1 1 1
3284 1 6.1283911517415630e+00 4.3677336099067858e+00 2.0808089453778639e+01 0 2 1
3382 1 2.7431087382534334e+00 6.9152784831613729e+00 2.3095969690765585e+01 1 -1 0
1587 1 3.6809082748665194e+00 2.7566305589959770e+00 2.3704195246983438e+01 0 1 1
873 2 1.1074500000000002e+01 2.2023314693372832e+01 2.6793683507193691e+01 0 0 0
6254 1 5.2170645289660547e+00 5.0681206337055489e+00 2.3933977897393738e+01 1 0 1
4890 1 7.8390105899450129e+00 3.8345052477152537e+00 2.2981610093219931e+01 1 1 1
3215 1 1.0737960163686758e+01 4.1347714697556146e+00 2.3234303588524032e+01 0 1 0
1984 1 1.0521457500136616e+01 8.1738352423604732e-01 2.2887295120667602e+01 1 -1 0
148 1 1.0404024539269225e+01 5.5717553708298411e+00 2.0366873472197923e+01 2 0 0
5132 1 1.0228491600362810e+01 2.1228126936486213e+01 1.9483076266966091e+01 0 1 1
1517 1 2.3919349256149833e+00 9.4431103686895650e+00 2.4374725539921442e+01 0 1 1
3325 1 5.9182612319108348e+00 7.9155225427233731e+00 2.3101553740191235e+01 0 0 0
1788 1 4.5822117333960435e+00 1.0583085555623210e+01 2.2566533785390583e+01 0 0 0
3359 1 5.4081289424866705e+00 7.1518805157421754e+00 2.0294510796037297e+01 0 1 0
3036 1 9.7884000756471963e+00 8.2169893383186441e+00 2.0976530127575270e+01 1 1 1
5234 1 1.1019914013571078e+01 6.5675577766664084e+00 2.4233085268683897e+01 0 0 0
3571 1 8.6945048451761373e+00 8.1394321620576005e+00 2.3503723417429498e+01 1 1 0
1983 1 1.2026038299053505e+00 1.9119787896478716e+01 1.8570796262675721e+01 0 1 0
270 1 2.9502035624345568e+00 1.2640946423779868e+01 2.3939094290619732e+01 -1 1 0
5131 1 2.3394041639665644e+00 1.5553648270233991e+01 2.3096621010984560e+01 -1 1 0
144 1 8.2984804817151847e+00 1.3235755273735119e+01 1.9560638407692053e+01 0 0 0
1295 1 5.1468111868657349e+00 1.4380609052677176e+01 2.4766818897061313e+01 1 -2 1
4994 1 6.6646905458291670e+00 1.2242980699273135e+01 2.3128650122422648e+01 1 1 0
4961 1 8.9912041705627601e+00 1.0773141056614236e+01 2.4033753402904235e+01 0 1 1
219 1 1.0639125509634216e+01 1.2240512914103668e+01 2.0494875346549851e+01 1 0 0
378 1 1.1485657637759536e+01 1.1967940622405393e+01 2.3116057878497593e+01 -1 1 0
3609 1 3.5754723276052660e+00 2.0103000613208287e+01 2.3918803639029640e+01 1 0 1
5241 1 4.7486046729336007e+00 1.7439067216951369e+01 2.3518479199149485e+01 0 -1 0
4623 1 4.5846504535761632e+00 1.8763526054107977e+01 2.0644374714291551e+01 0 0 0
5452 1 9.2518352313680143e+00 1.6400919960801001e+01 2.2408895841843492e+01 1 1 0
1378 1 6.9990623120280890e+00 1.4854048902937407e+01 2.1447333549607823e+01 0 0 1
1441 1 1.1819423510695250e+01 1.4884180683364889e+01 2.3307876884169964e+01 -1 0 1
2097 1 9.4972848430031522e+00 1.9943200780331164e+01 2.3688553536813583e+01 0 -1 0
1836 1 3.1643579136330553e+00 1.5597473817316337e-01 2.4584937288105078e+01 0 2 0
6238 1 3.1146760139357208e+00 1.9223028570660080e+01 1.6516396783983030e+01 0 1 1
5440 1 2.8252433853447791e+00 6.2022459255826758e+00 1.6710964774578684e+01 0 -1 0
3512 1 5.5926793533300430e+00 2.2542249895068061e+01 2.3689304660515702e+01 1 -1 0
2195 1 6.6901155626542534e+00 2.1650705284317620e+01 2.0140769822607705e+01 0 1 1
3638 1 6.6205235383747336e+00 2.0023076734806722e+01 2.2548585719646326e+01 1 0 0
2115 1 7.6499711371598291e+00 1.7815322241040150e+01 2.4261289103599236e+01 0 0 0
5043 1 8.3141834509708872e+00 2.3793809385666606e+01 2.2982653755301616e+01 0 -2 1
3307 1 9.1705646318891674e+00 2.3599167496287318e+01 2.0457499485862758e+01 1 -1 0
4754 1 1.0333561508407442e+01 2.2464549516171477e+01 2.4325974745465867e+01 0 0 1
594 2 0.0000000000000000e+00 2.8417180249513345e+00 2.6793683507193691e+01 0 0 0
596 2 0.0000000000000000e+00 0.0000000000000000e+00 2.6793683507193691e+01 0 0 0
598 2 1.2305000000000001e+00 7.1042950623783474e-01 2.6793683507193691e+01 0 0 0
605 2 1.2305000000000001e+00 2.1312885187134998e+00 2.6793683507193691e+01 0 0 0
607 2 2.4610000000000003e+00 2.8417180249513345e+00 2.6793683507193691e+01 0 0 0
609 2 2.4610000000000003e+00 0.0000000000000000e+00 2.6793683507193691e+01 0 0 0
611 2 3.6915000000000004e+00 7.1042950623783474e-01 2.6793683507193691e+01 0 0 0
626 2 3.6914999999999996e+00 2.1312885187134998e+00 2.6793683507193691e+01 0 0 0
628 2 4.9220000000000006e+00 2.8417180249513332e+00 2.6793683507193691e+01 0 0 0
630 2 4.9220000000000006e+00 0.0000000000000000e+00 2.6793683507193691e+01 0 0 0
632 2 6.1524999999999999e+00 7.1042950623783407e-01 2.6793683507193691e+01 0 0 0
655 2 6.1524999999999999e+00 2.1312885187134989e+00 2.6793683507193691e+01 0 0 0
657 2 7.3829999999999991e+00 2.8417180249513345e+00 2.6793683507193691e+01 0 0 0
659 2 7.3829999999999991e+00 0.0000000000000000e+00 2.6793683507193691e+01 0 0 0
661 2 8.6134999999999984e+00 7.1042950623783407e-01 2.6793683507193691e+01 0 0 0
692 2 8.6134999999999984e+00 2.1312885187135002e+00 2.6793683507193691e+01 0 0 0
694 2 9.8440000000000012e+00 2.8417180249513332e+00 2.6793683507193691e+01 0 0 0
696 2 9.8440000000000012e+00 0.0000000000000000e+00 2.6793683507193691e+01 0 0 0
698 2 1.1074500000000002e+01 7.1042950623783330e-01 2.6793683507193691e+01 0 0 0
737 2 1.1074500000000002e+01 2.1312885187135002e+00 2.6793683507193691e+01 0 0 0
599 2 0.0000000000000000e+00 7.1042950623783341e+00 2.6793683507193691e+01 0 0 0
601 2 0.0000000000000000e+00 4.2625770374269996e+00 2.6793683507193691e+01 0 0 0
603 2 1.2305000000000001e+00 4.9730065436648339e+00 2.6793683507193691e+01 0 0 0
618 2 1.2305000000000001e+00 6.3938655561404980e+00 2.6793683507193691e+01 0 0 0
620 2 2.4610000000000003e+00 7.1042950623783341e+00 2.6793683507193691e+01 0 0 0
622 2 2.4610000000000003e+00 4.2625770374269996e+00 2.6793683507193691e+01 0 0 0
624 2 3.6914999999999996e+00 4.9730065436648339e+00 2.6793683507193691e+01 0 0 0
647 2 3.6914999999999996e+00 6.3938655561404980e+00 2.6793683507193691e+01 0 0 0
649 2 4.9220000000000006e+00 7.1042950623783341e+00 2.6793683507193691e+01 0 0 0
651 2 4.9220000000000006e+00 4.2625770374269978e+00 2.6793683507193691e+01 0 0 0
653 2 6.1524999999999999e+00 4.9730065436648339e+00 2.6793683507193691e+01 0 0 0
684 2 6.1524999999999999e+00 6.3938655561404980e+00 2.6793683507193691e+01 0 0 0
686 2 7.3830000000000009e+00 7.1042950623783341e+00 2.6793683507193691e+01 0 0 0
688 2 7.3829999999999991e+00 4.2625770374269996e+00 2.6793683507193691e+01 0 0 0
690 2 8.6135000000000002e+00 4.9730065436648339e+00 2.6793683507193691e+01 0 0 0
729 2 8.6135000000000002e+00 6.3938655561404980e+00 2.6793683507193691e+01 0 0 0
731 2 9.8440000000000012e+00 7.1042950623783341e+00 2.6793683507193691e+01 0 0 0
733 2 9.8440000000000012e+00 4.2625770374270004e+00 2.6793683507193691e+01 0 0 0
735 2 1.1074500000000002e+01 4.9730065436648339e+00 2.6793683507193691e+01 0 0 0
776 2 1.1074500000000002e+01 6.3938655561404980e+00 2.6793683507193691e+01 0 0 0
612 2 0.0000000000000000e+00 1.1366872099805333e+01 2.6793683507193691e+01 0 0 0
614 2 0.0000000000000000e+00 8.5251540748539991e+00 2.6793683507193691e+01 0 0 0
616 2 1.2305000000000001e+00 9.2355835810918343e+00 2.6793683507193691e+01 0 0 0
639 2 1.2305000000000001e+00 1.0656442593567498e+01 2.6793683507193691e+01 0 0 0
641 2 2.4610000000000003e+00 1.1366872099805333e+01 2.6793683507193691e+01 0 0 0
643 2 2.4610000000000003e+00 8.5251540748539991e+00 2.6793683507193691e+01 0 0 0
645 2 3.6915000000000004e+00 9.2355835810918343e+00 2.6793683507193691e+01 0 0 0
676 2 3.6914999999999996e+00 1.0656442593567499e+01 2.6793683507193691e+01 0 0 0
678 2 4.9220000000000006e+00 1.1366872099805333e+01 2.6793683507193691e+01 0 0 0
680 2 4.9220000000000006e+00 8.5251540748539991e+00 2.6793683507193691e+01 0 0 0
682 2 6.1524999999999999e+00 9.2355835810918343e+00 2.6793683507193691e+01 0 0 0
721 2 6.1524999999999999e+00 1.0656442593567499e+01 2.6793683507193691e+01 0 0 0
723 2 7.3829999999999991e+00 1.1366872099805333e+01 2.6793683507193691e+01 0 0 0
725 2 7.3830000000000009e+00 8.5251540748539991e+00 2.6793683507193691e+01 0 0 0
727 2 8.6134999999999984e+00 9.2355835810918343e+00 2.6793683507193691e+01 0 0 0
768 2 8.6134999999999984e+00 1.0656442593567498e+01 2.6793683507193691e+01 0 0 0
770 2 9.8440000000000012e+00 1.1366872099805333e+01 2.6793683507193691e+01 0 0 0
772 2 9.8440000000000012e+00 8.5251540748539956e+00 2.6793683507193691e+01 0 0 0
774 2 1.1074500000000002e+01 9.2355835810918343e+00 2.6793683507193691e+01 0 0 0
815 2 1.1074500000000002e+01 1.0656442593567498e+01 2.6793683507193691e+01 0 0 0
817 2 1.2304999999999998e+01 1.1366872099805333e+01 2.6793683507193691e+01 0 0 0
633 2 0.0000000000000000e+00 1.5629449137232333e+01 2.6793683507193691e+01 0 0 0
635 2 0.0000000000000000e+00 1.2787731112280996e+01 2.6793683507193691e+01 0 0 0
637 2 1.2305000000000001e+00 1.3498160618518829e+01 2.6793683507193691e+01 0 0 0
668 2 1.2305000000000001e+00 1.4919019630994494e+01 2.6793683507193691e+01 0 0 0
670 2 2.4610000000000003e+00 1.5629449137232328e+01 2.6793683507193691e+01 0 0 0
672 2 2.4610000000000003e+00 1.2787731112280996e+01 2.6793683507193691e+01 0 0 0
674 2 3.6915000000000004e+00 1.3498160618518829e+01 2.6793683507193691e+01 0 0 0
713 2 3.6915000000000004e+00 1.4919019630994494e+01 2.6793683507193691e+01 0 0 0
715 2 4.9220000000000006e+00 1.5629449137232333e+01 2.6793683507193691e+01 0 0 0
717 2 4.9220000000000006e+00 1.2787731112280996e+01 2.6793683507193691e+01 0 0 0
719 2 6.1524999999999990e+00 1.3498160618518829e+01 2.6793683507193691e+01 0 0 0
760 2 6.1524999999999990e+00 1.4919019630994494e+01 2.6793683507193691e+01 0 0 0
762 2 7.3829999999999991e+00 1.5629449137232333e+01 2.6793683507193691e+01 0 0 0
764 2 7.3829999999999991e+00 1.2787731112280996e+01 2.6793683507193691e+01 0 0 0
766 2 8.6135000000000002e+00 1.3498160618518835e+01 2.6793683507193691e+01 0 0 0
807 2 8.6135000000000002e+00 1.4919019630994494e+01 2.6793683507193691e+01 0 0 0
809 2 9.8440000000000012e+00 1.5629449137232328e+01 2.6793683507193691e+01 0 0 0
811 2 9.8440000000000012e+00 1.2787731112280996e+01 2.6793683507193691e+01 0 0 0
813 2 1.1074500000000002e+01 1.3498160618518829e+01 2.6793683507193691e+01 0 0 0
849 2 1.1074500000000002e+01 1.4919019630994494e+01 2.6793683507193691e+01 0 0 0
662 2 0.0000000000000000e+00 1.9892026174659328e+01 2.6793683507193691e+01 0 0 0
664 2 0.0000000000000000e+00 1.7050308149707998e+01 2.6793683507193691e+01 0 0 0
666 2 1.2305000000000001e+00 1.7760737655945832e+01 2.6793683507193691e+01 0 0 0
705 2 1.2305000000000001e+00 1.9181596668421495e+01 2.6793683507193691e+01 0 0 0
707 2 2.4610000000000003e+00 1.9892026174659328e+01 2.6793683507193691e+01 0 0 0
709 2 2.4610000000000003e+00 1.7050308149707998e+01 2.6793683507193691e+01 0 0 0
711 2 3.6914999999999996e+00 1.7760737655945832e+01 2.6793683507193691e+01 0 0 0
752 2 3.6914999999999996e+00 1.9181596668421495e+01 2.6793683507193691e+01 0 0 0
754 2 4.9220000000000006e+00 1.9892026174659328e+01 2.6793683507193691e+01 0 0 0
756 2 4.9220000000000006e+00 1.7050308149707998e+01 2.6793683507193691e+01 0 0 0
758 2 6.1524999999999999e+00 1.7760737655945832e+01 2.6793683507193691e+01 0 0 0
799 2 6.1524999999999999e+00 1.9181596668421495e+01 2.6793683507193691e+01 0 0 0
801 2 7.3829999999999991e+00 1.9892026174659328e+01 2.6793683507193691e+01 0 0 0
803 2 7.3830000000000009e+00 1.7050308149707998e+01 2.6793683507193691e+01 0 0 0
805 2 8.6134999999999984e+00 1.7760737655945832e+01 2.6793683507193691e+01 0 0 0
841 2 8.6135000000000002e+00 1.9181596668421495e+01 2.6793683507193691e+01 0 0 0
843 2 9.8440000000000012e+00 1.9892026174659335e+01 2.6793683507193691e+01 0 0 0
845 2 9.8440000000000012e+00 1.7050308149707998e+01 2.6793683507193691e+01 0 0 0
847 2 1.1074500000000002e+01 1.7760737655945835e+01 2.6793683507193691e+01 0 0 0
875 2 1.1074500000000002e+01 1.9181596668421495e+01 2.6793683507193691e+01 0 0 0
879 2 1.2304999999999998e+01 1.7050308149707998e+01 2.6793683507193691e+01 0 0 0
703 2 1.2304999999999993e+00 2.2023314693372832e+01 2.6793683507193691e+01 0 0 0
701 2 0.0000000000000000e+00 2.1312885187134999e+01 2.6793683507193691e+01 0 0 0
746 2 2.4610000000000003e+00 2.4154603212086325e+01 2.6793683507193691e+01 0 0 0
744 2 1.2304999999999993e+00 2.3444173705848499e+01 2.6793683507193691e+01 0 0 0
748 2 2.4610000000000003e+00 2.1312885187134995e+01 2.6793683507193691e+01 0 0 0
750 2 3.6914999999999996e+00 2.2023314693372832e+01 2.6793683507193691e+01 0 0 0
791 2 3.6915000000000004e+00 2.3444173705848499e+01 2.6793683507193691e+01 0 0 0
699 2 0.0000000000000000e+00 2.4154603212086325e+01 2.6793683507193691e+01 0 0 0
797 2 6.1524999999999990e+00 2.2023314693372832e+01 2.6793683507193691e+01 0 0 0
837 2 7.3829999999999991e+00 2.1312885187134999e+01 2.6793683507193691e+01 0 0 0
795 2 4.9220000000000006e+00 2.1312885187134995e+01 2.6793683507193691e+01 0 0 0
835 2 7.3830000000000009e+00 2.4154603212086336e+01 2.6793683507193691e+01 0 0 0
833 2 6.1524999999999999e+00 2.3444173705848499e+01 2.6793683507193691e+01 0 0 0
793 2 4.9220000000000006e+00 2.4154603212086325e+01 2.6793683507193691e+01 0 0 0
871 2 9.8440000000000012e+00 2.1312885187134999e+01 2.6793683507193691e+01 0 0 0
6290 1 1.1569464369449564e+01 1.4891850368107436e+01 1.7536226042489002e+01 -1 0 1
1403 1 4.7673834173436530e-01 1.6385113422646992e+01 1.9136050995818781e+01 -1 0 1
2021 1 1.0395737631360111e+01 1.2234975857126800e+00 1.6381228557033978e+01 2 0 0
4710 1 1.2063274780916755e+01 1.8077104218521487e+01 1.7117353311388847e+01 0 3 1
5392 1 7.5156747499492593e-01 2.4100735453153163e+01 2.1192901143442612e+01 2 1 0
6218 1 1.8676462047999523e-01 3.8681493622459356e-01 1.9362021830889535e+01 0 0 1
3517 1 5.2830922988760101e+00 6.9774126082364285e+00 1.5693901858316515e+01 1 -1 0
595 2 0.0000000000000000e+00 1.4208590124756650e+00 3.0030999999999867e+01 0 0 0
597 2 0.0000000000000000e+00 0.0000000000000000e+00 3.0030999999999867e+01 0 0 0
604 2 1.2305000000000001e+00 3.5521475311891644e+00 3.0030999999999867e+01 0 0 0
606 2 1.2305000000000001e+00 2.1312885187134998e+00 3.0030999999999867e+01 0 0 0