LAMMPS data file via write_data, version 16 Mar 2018, timestep = 8000000

4537 atoms
2 atom types

0.0000000000000000e+00 4.9219999999999999e+01 xlo xhi
0.0000000000000000e+00 4.9019635930410494e+01 ylo yhi
6.1436423485195135e-01 3.3325635765152157e+01 zlo zhi

Masses

1 18.015
2 12.01

Atoms # atomic

96 2 0.0000000000000000e+00 2.8417180249513345e+00 2.3749829933041613e+00 0 0 0
98 2 0.0000000000000000e+00 0.0000000000000000e+00 2.3749829933041613e+00 0 0 0
100 2 1.2305000000000001e+00 7.1042950623783474e-01 2.3749829933041613e+00 0 0 0
107 2 1.2305000000000001e+00 2.1312885187134998e+00 2.3749829933041613e+00 0 0 0
109 2 2.4610000000000003e+00 2.8417180249513345e+00 2.3749829933041613e+00 0 0 0
111 2 2.4610000000000003e+00 0.0000000000000000e+00 2.3749829933041613e+00 0 0 0
113 2 3.6915000000000004e+00 7.1042950623783474e-01 2.3749829933041613e+00 0 0 0
128 2 3.6914999999999996e+00 2.1312885187134998e+00 2.3749829933041613e+00 0 0 0
130 2 4.9220000000000006e+00 2.8417180249513332e+00 2.3749829933041613e+00 0 0 0
132 2 4.9220000000000006e+00 0.0000000000000000e+00 2.3749829933041613e+00 0 0 0
134 2 6.1524999999999999e+00 7.1042950623783407e-01 2.3749829933041613e+00 0 0 0
157 2 6.1524999999999999e+00 2.1312885187134989e+00 2.3749829933041613e+00 0 0 0
159 2 7.3829999999999991e+00 2.8417180249513345e+00 2.3749829933041613e+00 0 0 0
161 2 7.3829999999999991e+00 0.0000000000000000e+00 2.3749829933041613e+00 0 0 0
163 2 8.6134999999999984e+00 7.1042950623783407e-01 2.3749829933041613e+00 0 0 0
194 2 8.6134999999999984e+00 2.1312885187135002e+00 2.3749829933041613e+00 0 0 0
196 2 9.8440000000000012e+00 2.8417180249513332e+00 2.3749829933041613e+00 0 0 0
198 2 9.8440000000000012e+00 0.0000000000000000e+00 2.3749829933041613e+00 0 0 0
200 2 1.1074500000000002e+01 7.1042950623783330e-01 2.3749829933041613e+00 0 0 0
239 2 1.1074500000000002e+01 2.1312885187135002e+00 2.3749829933041613e+00 0 0 0
103 2 0.0000000000000000e+00 4.2625770374269996e+00 2.3749829933041613e+00 0 0 0
105 2 1.2305000000000001e+00 4.9730065436648339e+00 2.3749829933041613e+00 0 0 0
120 2 1.2305000000000001e+00 6.3938655561404980e+00 2.3749829933041613e+00 0 0 0
124 2 2.4610000000000003e+00 4.2625770374269996e+00 2.3749829933041613e+00 0 0 0
126 2 3.6914999999999996e+00 4.9730065436648339e+00 2.3749829933041613e+00 0 0 0
149 2 3.6914999999999996e+00 6.3938655561404980e+00 2.3749829933041613e+00 0 0 0
101 2 0.0000000000000000e+00 7.1042950623783341e+00 2.3749829933041613e+00 0 0 0
122 2 2.4610000000000003e+00 7.1042950623783341e+00 2.3749829933041613e+00 0 0 0
153 2 4.9220000000000006e+00 4.2625770374269978e+00 2.3749829933041613e+00 0 0 0
155 2 6.1524999999999999e+00 4.9730065436648339e+00 2.3749829933041613e+00 0 0 0
186 2 6.1524999999999999e+00 6.3938655561404980e+00 2.3749829933041613e+00 0 0 0
190 2 7.3829999999999991e+00 4.2625770374269996e+00 2.3749829933041613e+00 0 0 0
151 2 4.9220000000000006e+00 7.1042950623783341e+00 2.3749829933041613e+00 0 0 0
188 2 7.3830000000000009e+00 7.1042950623783341e+00 2.3749829933041613e+00 0 0 0
192 2 8.6135000000000002e+00 4.9730065436648339e+00 2.3749829933041613e+00 0 0 0
231 2 8.6135000000000002e+00 6.3938655561404980e+00 2.3749829933041613e+00 0 0 0
235 2 9.8440000000000012e+00 4.2625770374270004e+00 2.3749829933041613e+00 0 0 0
237 2 1.1074500000000002e+01 4.9730065436648339e+00 2.3749829933041613e+00 0 0 0
278 2 1.1074500000000002e+01 6.3938655561404980e+00 2.3749829933041613e+00 0 0 0
233 2 9.8440000000000012e+00 7.1042950623783341e+00 2.3749829933041613e+00 0 0 0
116 2 0.0000000000000000e+00 8.5251540748539991e+00 2.3749829933041613e+00 0 0 0
118 2 1.2305000000000001e+00 9.2355835810918343e+00 2.3749829933041613e+00 0 0 0
145 2 2.4610000000000003e+00 8.5251540748539991e+00 2.3749829933041613e+00 0 0 0
147 2 3.6915000000000004e+00 9.2355835810918343e+00 2.3749829933041613e+00 0 0 0
114 2 0.0000000000000000e+00 1.1366872099805333e+01 2.3749829933041613e+00 0 0 0
141 2 1.2305000000000001e+00 1.0656442593567498e+01 2.3749829933041613e+00 0 0 0
143 2 2.4610000000000003e+00 1.1366872099805333e+01 2.3749829933041613e+00 0 0 0
178 2 3.6914999999999996e+00 1.0656442593567499e+01 2.3749829933041613e+00 0 0 0
182 2 4.9220000000000006e+00 8.5251540748539991e+00 2.3749829933041613e+00 0 0 0
184 2 6.1524999999999999e+00 9.2355835810918343e+00 2.3749829933041613e+00 0 0 0
227 2 7.3830000000000009e+00 8.5251540748539991e+00 2.3749829933041613e+00 0 0 0
180 2 4.9220000000000006e+00 1.1366872099805333e+01 2.3749829933041613e+00 0 0 0
223 2 6.1524999999999999e+00 1.0656442593567499e+01 2.3749829933041613e+00 0 0 0
225 2 7.3829999999999991e+00 1.1366872099805333e+01 2.3749829933041613e+00 0 0 0
229 2 8.6134999999999984e+00 9.2355835810918343e+00 2.3749829933041613e+00 0 0 0
274 2 9.8440000000000012e+00 8.5251540748539956e+00 2.3749829933041613e+00 0 0 0
276 2 1.1074500000000002e+01 9.2355835810918343e+00 2.3749829933041613e+00 0 0 0
270 2 8.6134999999999984e+00 1.0656442593567498e+01 2.3749829933041613e+00 0 0 0
272 2 9.8440000000000012e+00 1.1366872099805333e+01 2.3749829933041613e+00 0 0 0
317 2 1.1074500000000002e+01 1.0656442593567498e+01 2.3749829933041613e+00 0 0 0
319 2 1.2304999999999998e+01 1.1366872099805333e+01 2.3749829933041613e+00 0 0 0
97 2 0.0000000000000000e+00 1.4208590124756650e+00 5.5759041363446205e+00 0 0 0
99 2 0.0000000000000000e+00 0.0000000000000000e+00 5.5759041363446205e+00 0 0 0
108 2 1.2305000000000001e+00 2.1312885187134998e+00 5.5759041363446205e+00 0 0 0
110 2 2.4610000000000003e+00 1.4208590124756650e+00 5.5759041363446205e+00 0 0 0
112 2 2.4610000000000003e+00 0.0000000000000000e+00 5.5759041363446205e+00 0 0 0
129 2 3.6914999999999996e+00 2.1312885187134998e+00 5.5759041363446205e+00 0 0 0
425 2 0.0000000000000000e+00 2.8417180249513345e+00 8.7768252793807680e+00 0 0 0
426 2 0.0000000000000000e+00 0.0000000000000000e+00 8.7768252793807680e+00 0 0 0
427 2 1.2305000000000001e+00 7.1042950623783474e-01 8.7768252793807680e+00 0 0 0
431 2 1.2305000000000001e+00 2.1312885187134998e+00 8.7768252793807680e+00 0 0 0
432 2 2.4610000000000003e+00 2.8417180249513345e+00 8.7768252793807680e+00 0 0 0
433 2 2.4610000000000003e+00 0.0000000000000000e+00 8.7768252793807680e+00 0 0 0
434 2 3.6915000000000004e+00 7.1042950623783474e-01 8.7768252793807680e+00 0 0 0
442 2 3.6914999999999996e+00 2.1312885187134998e+00 8.7768252793807680e+00 0 0 0
106 2 1.2305000000000001e+00 3.5521475311891644e+00 5.5759041363446205e+00 0 0 0
127 2 3.6914999999999996e+00 3.5521475311891644e+00 5.5759041363446205e+00 0 0 0
131 2 4.9220000000000006e+00 1.4208590124756650e+00 5.5759041363446205e+00 0 0 0
133 2 4.9220000000000006e+00 0.0000000000000000e+00 5.5759041363446205e+00 0 0 0
158 2 6.1524999999999999e+00 2.1312885187134989e+00 5.5759041363446205e+00 0 0 0
160 2 7.3829999999999991e+00 1.4208590124756659e+00 5.5759041363446205e+00 0 0 0
162 2 7.3829999999999991e+00 0.0000000000000000e+00 5.5759041363446205e+00 0 0 0
443 2 4.9220000000000006e+00 2.8417180249513332e+00 8.7768252793807680e+00 0 0 0
444 2 4.9220000000000006e+00 0.0000000000000000e+00 8.7768252793807680e+00 0 0 0
445 2 6.1524999999999999e+00 7.1042950623783407e-01 8.7768252793807680e+00 0 0 0
457 2 6.1524999999999999e+00 2.1312885187134989e+00 8.7768252793807680e+00 0 0 0
458 2 7.3829999999999991e+00 2.8417180249513345e+00 8.7768252793807680e+00 0 0 0
459 2 7.3829999999999991e+00 0.0000000000000000e+00 8.7768252793807680e+00 0 0 0
156 2 6.1524999999999999e+00 3.5521475311891644e+00 5.5759041363446205e+00 0 0 0
195 2 8.6134999999999984e+00 2.1312885187135002e+00 5.5759041363446205e+00 0 0 0
197 2 9.8440000000000012e+00 1.4208590124756659e+00 5.5759041363446205e+00 0 0 0
199 2 9.8440000000000012e+00 0.0000000000000000e+00 5.5759041363446205e+00 0 0 0
240 2 1.1074500000000002e+01 2.1312885187135002e+00 5.5759041363446205e+00 0 0 0
460 2 8.6134999999999984e+00 7.1042950623783407e-01 8.7768252793807680e+00 0 0 0
476 2 8.6134999999999984e+00 2.1312885187135002e+00 8.7768252793807680e+00 0 0 0
477 2 9.8440000000000012e+00 2.8417180249513332e+00 8.7768252793807680e+00 0 0 0
478 2 9.8440000000000012e+00 0.0000000000000000e+00 8.7768252793807680e+00 0 0 0
479 2 1.1074500000000002e+01 7.1042950623783330e-01 8.7768252793807680e+00 0 0 0
499 2 1.1074500000000002e+01 2.1312885187135002e+00 8.7768252793807680e+00 0 0 0
193 2 8.6134999999999984e+00 3.5521475311891657e+00 5.5759041363446205e+00 0 0 0
238 2 1.1074500000000002e+01 3.5521475311891644e+00 5.5759041363446205e+00 0 0 0
102 2 0.0000000000000000e+00 5.6834360499026637e+00 5.5759041363446205e+00 0 0 0
104 2 0.0000000000000000e+00 4.2625770374269996e+00 5.5759041363446205e+00 0 0 0
121 2 1.2305000000000001e+00 6.3938655561404980e+00 5.5759041363446205e+00 0 0 0
123 2 2.4610000000000003e+00 5.6834360499026637e+00 5.5759041363446205e+00 0 0 0
125 2 2.4610000000000003e+00 4.2625770374269996e+00 5.5759041363446205e+00 0 0 0
150 2 3.6914999999999996e+00 6.3938655561404980e+00 5.5759041363446205e+00 0 0 0
429 2 0.0000000000000000e+00 4.2625770374269996e+00 8.7768252793807680e+00 0 0 0
430 2 1.2305000000000001e+00 4.9730065436648339e+00 8.7768252793807680e+00 0 0 0
438 2 1.2305000000000001e+00 6.3938655561404980e+00 8.7768252793807680e+00 0 0 0
440 2 2.4610000000000003e+00 4.2625770374269996e+00 8.7768252793807680e+00 0 0 0
441 2 3.6914999999999996e+00 4.9730065436648339e+00 8.7768252793807680e+00 0 0 0
453 2 3.6914999999999996e+00 6.3938655561404980e+00 8.7768252793807680e+00 0 0 0
119 2 1.2305000000000001e+00 7.8147245686161639e+00 5.5759041363446205e+00 0 0 0
148 2 3.6914999999999996e+00 7.8147245686161639e+00 5.5759041363446205e+00 0 0 0
428 2 0.0000000000000000e+00 7.1042950623783341e+00 8.7768252793807680e+00 0 0 0
439 2 2.4610000000000003e+00 7.1042950623783341e+00 8.7768252793807680e+00 0 0 0
152 2 4.9220000000000006e+00 5.6834360499026637e+00 5.5759041363446205e+00 0 0 0
154 2 4.9220000000000006e+00 4.2625770374269978e+00 5.5759041363446205e+00 0 0 0
187 2 6.1524999999999999e+00 6.3938655561404980e+00 5.5759041363446205e+00 0 0 0
189 2 7.3829999999999991e+00 5.6834360499026637e+00 5.5759041363446205e+00 0 0 0
191 2 7.3829999999999991e+00 4.2625770374269996e+00 5.5759041363446205e+00 0 0 0
455 2 4.9220000000000006e+00 4.2625770374269978e+00 8.7768252793807680e+00 0 0 0
456 2 6.1524999999999999e+00 4.9730065436648339e+00 8.7768252793807680e+00 0 0 0
472 2 6.1524999999999999e+00 6.3938655561404980e+00 8.7768252793807680e+00 0 0 0
474 2 7.3829999999999991e+00 4.2625770374269996e+00 8.7768252793807680e+00 0 0 0
185 2 6.1524999999999999e+00 7.8147245686161639e+00 5.5759041363446205e+00 0 0 0
454 2 4.9220000000000006e+00 7.1042950623783341e+00 8.7768252793807680e+00 0 0 0
473 2 7.3830000000000009e+00 7.1042950623783341e+00 8.7768252793807680e+00 0 0 0
232 2 8.6135000000000002e+00 6.3938655561404980e+00 5.5759041363446205e+00 0 0 0
234 2 9.8440000000000012e+00 5.6834360499026637e+00 5.5759041363446205e+00 0 0 0
236 2 9.8440000000000012e+00 4.2625770374270004e+00 5.5759041363446205e+00 0 0 0
279 2 1.1074500000000002e+01 6.3938655561404980e+00 5.5759041363446205e+00 0 0 0
475 2 8.6135000000000002e+00 4.9730065436648339e+00 8.7768252793807680e+00 0 0 0
495 2 8.6135000000000002e+00 6.3938655561404980e+00 8.7768252793807680e+00 0 0 0
497 2 9.8440000000000012e+00 4.2625770374270004e+00 8.7768252793807680e+00 0 0 0
498 2 1.1074500000000002e+01 4.9730065436648339e+00 8.7768252793807680e+00 0 0 0
519 2 1.1074500000000002e+01 6.3938655561404980e+00 8.7768252793807680e+00 0 0 0
230 2 8.6135000000000002e+00 7.8147245686161639e+00 5.5759041363446205e+00 0 0 0
277 2 1.1074500000000002e+01 7.8147245686161639e+00 5.5759041363446205e+00 0 0 0
496 2 9.8440000000000012e+00 7.1042950623783341e+00 8.7768252793807680e+00 0 0 0
115 2 0.0000000000000000e+00 9.9460130873296642e+00 5.5759041363446205e+00 0 0 0
117 2 0.0000000000000000e+00 8.5251540748539991e+00 5.5759041363446205e+00 0 0 0
144 2 2.4610000000000003e+00 9.9460130873296642e+00 5.5759041363446205e+00 0 0 0
146 2 2.4610000000000003e+00 8.5251540748539991e+00 5.5759041363446205e+00 0 0 0
436 2 0.0000000000000000e+00 8.5251540748539991e+00 8.7768252793807680e+00 0 0 0
437 2 1.2305000000000001e+00 9.2355835810918343e+00 8.7768252793807680e+00 0 0 0
451 2 2.4610000000000003e+00 8.5251540748539991e+00 8.7768252793807680e+00 0 0 0
452 2 3.6915000000000004e+00 9.2355835810918343e+00 8.7768252793807680e+00 0 0 0
140 2 1.2305000000000001e+00 1.2077301606043163e+01 5.5759041363446205e+00 0 0 0
142 2 1.2305000000000001e+00 1.0656442593567498e+01 5.5759041363446205e+00 0 0 0
177 2 3.6914999999999996e+00 1.2077301606043163e+01 5.5759041363446205e+00 0 0 0
179 2 3.6914999999999996e+00 1.0656442593567499e+01 5.5759041363446205e+00 0 0 0
435 2 0.0000000000000000e+00 1.1366872099805333e+01 8.7768252793807680e+00 0 0 0
449 2 1.2305000000000001e+00 1.0656442593567498e+01 8.7768252793807680e+00 0 0 0
450 2 2.4610000000000003e+00 1.1366872099805333e+01 8.7768252793807680e+00 0 0 0
468 2 3.6914999999999996e+00 1.0656442593567499e+01 8.7768252793807680e+00 0 0 0
181 2 4.9220000000000006e+00 9.9460130873296642e+00 5.5759041363446205e+00 0 0 0
183 2 4.9220000000000006e+00 8.5251540748539991e+00 5.5759041363446205e+00 0 0 0
226 2 7.3830000000000009e+00 9.9460130873296642e+00 5.5759041363446205e+00 0 0 0
228 2 7.3830000000000009e+00 8.5251540748539991e+00 5.5759041363446205e+00 0 0 0
470 2 4.9220000000000006e+00 8.5251540748539991e+00 8.7768252793807680e+00 0 0 0
471 2 6.1524999999999999e+00 9.2355835810918343e+00 8.7768252793807680e+00 0 0 0
493 2 7.3830000000000009e+00 8.5251540748539991e+00 8.7768252793807680e+00 0 0 0
222 2 6.1524999999999999e+00 1.2077301606043163e+01 5.5759041363446205e+00 0 0 0
224 2 6.1524999999999999e+00 1.0656442593567499e+01 5.5759041363446205e+00 0 0 0
469 2 4.9220000000000006e+00 1.1366872099805333e+01 8.7768252793807680e+00 0 0 0
491 2 6.1524999999999999e+00 1.0656442593567499e+01 8.7768252793807680e+00 0 0 0
492 2 7.3829999999999991e+00 1.1366872099805333e+01 8.7768252793807680e+00 0 0 0
273 2 9.8440000000000012e+00 9.9460130873296642e+00 5.5759041363446205e+00 0 0 0
275 2 9.8440000000000012e+00 8.5251540748539956e+00 5.5759041363446205e+00 0 0 0
494 2 8.6134999999999984e+00 9.2355835810918343e+00 8.7768252793807680e+00 0 0 0
517 2 9.8440000000000012e+00 8.5251540748539956e+00 8.7768252793807680e+00 0 0 0
518 2 1.1074500000000002e+01 9.2355835810918343e+00 8.7768252793807680e+00 0 0 0
269 2 8.6135000000000002e+00 1.2077301606043163e+01 5.5759041363446205e+00 0 0 0
271 2 8.6134999999999984e+00 1.0656442593567498e+01 5.5759041363446205e+00 0 0 0
316 2 1.1074500000000002e+01 1.2077301606043163e+01 5.5759041363446205e+00 0 0 0
318 2 1.1074500000000002e+01 1.0656442593567498e+01 5.5759041363446205e+00 0 0 0
515 2 8.6134999999999984e+00 1.0656442593567498e+01 8.7768252793807680e+00 0 0 0
516 2 9.8440000000000012e+00 1.1366872099805333e+01 8.7768252793807680e+00 0 0 0
539 2 1.1074500000000002e+01 1.0656442593567498e+01 8.7768252793807680e+00 0 0 0
540 2 1.2304999999999998e+01 1.1366872099805333e+01 8.7768252793807680e+00 0 0 0
60 1 2.5163697502684181e+00 1.5599079927123018e+00 1.1408050069308207e+01 0 0 0
2122 1 3.9738354837605017e+00 3.9714775699329250e+00 1.1672591523595798e+01 2 2 0
2384 1 6.6580243122776164e+00 3.1369822565488996e+00 1.1735086879300280e+01 0 0 0
850 1 7.9383983010951980e+00 7.2428365057655120e-01 1.1104557742265104e+01 0 3 -1
1374 1 1.0512207583497473e+01 4.4741538160289268e-01 1.2007973304006770e+01 2 1 0
1412 1 2.8002857496715712e+00 6.4233217976626529e+00 1.1532437928118091e+01 1 1 1
1409 1 7.0121516535882673e+00 7.9702337908413909e+00 1.1770182822131563e+01 2 0 -1
2188 1 8.2922165926428768e+00 5.5381234556136523e+00 1.1234286878034601e+01 -1 1 0
2182 1 1.0923928032736445e+01 5.3388643476735522e+00 1.1760864812937145e+01 0 -2 0
845 1 3.1522888611994135e+00 1.0964056563816136e+01 1.1841852580374619e+01 1 4 1
3063 1 5.6369098478958291e-01 1.1409982375429477e+01 1.1141558528329094e+01 1 -1 0
1452 1 4.5005885695299250e+00 8.5789833221451310e+00 1.1297224738046236e+01 2 1 0
2219 1 8.4083182432541062e+00 1.0017584902268911e+01 1.1167095064220614e+01 1 1 1
852 1 1.1157895255219838e+01 9.9396754258007114e+00 1.2019658651400189e+01 0 -1 0
4494 1 2.3277806075705665e+00 1.3268039965011071e+00 1.4233327011628619e+01 -2 -1 0
4516 1 3.7551158753513394e+00 3.7438825382849243e+00 1.4916497315610101e+01 2 1 0
2210 1 6.4797470495102969e+00 3.1216667321594596e+00 1.4358428129905011e+01 3 1 -1
1360 1 7.6825554600463883e+00 9.6572298794278699e-01 1.5380951948977870e+01 -3 1 0
2948 1 1.0390705191490195e+01 3.2020790031218660e-01 1.4739392366222731e+01 -1 -3 0
3826 1 8.7981507923336242e+00 1.0230320397063474e+01 1.5404065887630615e+01 3 0 0
1499 1 2.7931188325025764e+00 6.4144133587092815e+00 1.4214817014341950e+01 -2 0 -1
791 1 1.1906606265216970e+01 2.5627125822196599e+00 1.1096213752182560e+01 1 -3 0
2236 1 8.1443288880133409e+00 5.2616008329761046e+00 1.5151018250888804e+01 0 0 -1
1606 1 1.0956674883940915e+01 4.8379294066951655e+00 1.4584160765952298e+01 -2 -2 1
4488 1 6.1352432092683917e-01 1.1079744249508854e+01 1.5475790736700167e+01 2 -2 -1
20 1 3.4564258397167889e+00 1.0732849290496000e+01 1.4589655079322407e+01 1 0 0
2927 1 7.2404077829198288e+00 7.8378806400553866e+00 1.4621414376829314e+01 -1 0 0
3591 1 4.6731893558001349e+00 8.3564838002886095e+00 1.5205529474288900e+01 2 2 0
3051 1 1.1455625775902496e+01 9.9551407666548126e+00 1.4687255156443390e+01 -2 0 0
3659 1 2.2913618049122261e-01 6.7255787321529912e+00 1.0911451022876006e+01 0 0 -1
3761 1 1.4743913385219833e+00 4.3623760014925477e+00 1.8933237288714938e+01 3 -2 0
2389 1 4.1884287859168827e+00 4.0468794899989335e+00 1.7760776876183506e+01 -1 1 0
2115 1 5.3565535159782778e+00 1.7566534661398083e+00 1.8981114185208721e+01 0 -1 0
3887 1 8.2359046199608965e+00 1.2042523875951312e+00 1.8069067942043134e+01 3 -1 0
797 1 9.8381484202173191e+00 3.2196954574761163e+00 1.8806694478041827e+01 3 -1 0
2103 1 3.5149595061433256e+00 1.0954134287171756e+01 2.2772733146382933e+01 0 1 -1
2937 1 5.6339055632600514e+00 6.1410402917546802e+00 1.8735961116965132e+01 2 -1 0
4382 1 8.2461721802024250e+00 5.4989312514601734e+00 1.8027123253629910e+01 1 2 0
1361 1 9.9021606577505690e+00 7.5970613535122604e+00 1.8996446333000470e+01 -2 -1 -1
3802 1 1.8222541493484015e+00 8.6155651214232947e+00 1.8955009538492973e+01 4 3 1
3804 1 4.9951942314924114e-01 1.0786210561200791e+01 1.8260974712594223e+01 -1 0 0
598 1 4.4543181903684035e+00 8.4802537097102526e+00 1.7870850833945870e+01 1 1 0
642 1 6.1553125993069377e+00 1.0363986468074131e+01 1.8846633584255844e+01 2 2 0
1477 1 8.8409943246367959e+00 1.0162421391884729e+01 1.8247414602828879e+01 2 2 -1
3645 1 2.6178905657697933e+00 1.7932888749439464e+00 2.2437128846955328e+01 1 -1 0
3103 1 7.0484596916022086e+00 3.4096900405211810e+00 2.5112152587505367e+01 1 0 0
1480 1 1.4725571181774384e+00 4.2548301097570045e+00 2.1737623950820186e+01 -1 2 -1
2379 1 5.2425430228302252e+00 1.5484284461362163e+00 2.1562092629161882e+01 0 0 0
4423 1 7.0866981884061735e+00 3.6486861461325688e+00 2.2509845205405732e+01 3 0 0
4524 1 1.1571918498203223e+01 1.0176603445712992e+01 2.2556990862300871e+01 -2 1 0
1451 1 9.5772331561361135e+00 2.9952412115542622e+00 2.1514438002499030e+01 1 0 0
2882 1 1.0617465758342094e+01 7.7379020679088717e-01 2.2491067242308652e+01 1 2 0
3582 1 1.9542094434793038e+00 8.6638090396131506e+00 2.1686336131515056e+01 0 0 0
2312 1 3.2206140201278290e+00 6.0319464465181944e+00 2.2500980610482369e+01 2 1 0
3803 1 6.4788192342562798e+00 1.0385923671886022e+01 2.1749489989346731e+01 0 1 0
1424 1 7.5673768997759892e+00 7.9787967598611633e+00 2.2605399834452911e+01 1 2 0
2840 1 5.8823318406320100e+00 5.9705941146094323e+00 2.1749970316928653e+01 -1 -1 0
3792 1 1.1220197525532283e+01 5.0050426143650819e+00 2.2465335004882753e+01 1 -1 0
3013 1 1.0223348240480794e+01 7.8047783729147469e+00 2.1710785264140974e+01 1 3 0
2186 1 5.3286087403824067e-02 6.5843628813641191e+00 1.8211210846437780e+01 1 1 0
4425 1 3.4367380798564420e+00 6.0324404165855574e+00 2.5088248477546621e+01 2 2 0
3627 1 1.1420136662195588e+01 1.0393022947811716e+01 2.5060110451094467e+01 -1 0 0
3624 1 1.5378556252542954e+00 4.2936732839655694e+00 2.5829190863833130e+01 1 0 0
4377 1 1.4713178498065109e+00 3.8530786714785723e+00 2.8455308918855437e+01 2 1 0
2888 1 4.0081478554412273e+00 3.5696282221337494e+00 2.9371491318168218e+01 0 2 0
2090 1 4.9239110802884625e+00 1.1229954884774549e+00 2.8691712441718380e+01 2 1 -1
4380 1 5.1054955231305303e+00 1.1218782155583109e+00 2.5988284437534876e+01 0 2 0
1407 1 7.7258220844465884e+00 9.0579715873453537e-01 2.9480162394082157e+01 0 3 1
2261 1 9.7409792123507266e+00 3.0152087628328426e+00 2.8852143365606263e+01 -1 0 0
2964 1 9.6375932234308781e+00 3.1364598857026897e+00 2.6002573451137199e+01 2 2 0
3752 1 4.6311607606642289e+00 8.2183024362508821e+00 2.9285739247932415e+01 1 -1 0
2265 1 5.7151954858026848e+00 5.8100532336986017e+00 2.8936058856154187e+01 0 -1 -1
3855 1 6.1742967742773187e+00 5.8383176071006524e+00 2.6012514204129197e+01 0 2 0
72 1 1.0232036260563806e+01 8.0278274040957456e+00 2.6086548699978444e+01 -1 -2 -1
1481 1 9.8745477189424555e+00 7.8139997252949769e+00 2.8829816717277946e+01 0 -1 0
3836 1 2.2361882987753821e+00 8.7103595608884206e+00 2.8249017209205274e+01 -4 -2 0
3649 1 2.2563043676862256e+00 8.3607728183202124e+00 2.5590398759138377e+01 3 1 -1
3869 1 6.5796268673651497e+00 1.0514561477371128e+01 2.5967941444018983e+01 0 3 0
1563 1 6.3431603105693348e+00 1.0373110623579095e+01 2.8721529111397956e+01 0 0 0
751 1 9.0237952109769513e+00 1.0175203014720134e+01 2.9649386663082492e+01 1 2 0
1505 1 3.9052448151035697e+00 3.3781408726827298e+00 3.2193985521131076e+01 1 0 0
52 1 5.1580088668797659e+00 1.1369210120887798e+00 3.2795344476943882e+01 -2 0 0
3594 1 7.9114986795951445e+00 8.9419607101183840e-01 3.2183105631130331e+01 1 0 -1
2354 1 9.6010622418163631e+00 2.9315838774076015e+00 3.2762419565714637e+01 1 3 0
2938 1 1.3606221472370328e+00 3.9893668781669178e+00 3.2892456437370839e+01 1 3 0
3692 1 5.4877430662975817e+00 5.8321475532531446e+00 3.2192197461794322e+01 1 -1 0
4505 1 9.7725191230192419e+00 7.6916611691480643e+00 3.2728919758813021e+01 0 1 0
2278 1 8.4185215601165861e+00 5.5865283822109975e+00 2.9364955986634811e+01 0 -3 -1
4454 1 8.2066872875671617e+00 5.4180261173057396e+00 3.1978916549613434e+01 1 0 -1
669 1 8.8258608389543369e-01 1.1088725699640083e+01 2.9126954644001955e+01 1 2 -1
2963 1 1.8472934062103596e+00 8.8776377125364938e+00 3.2843723425717400e+01 -1 1 0
2087 1 6.2268131183371178e-01 1.1171581921207924e+01 3.1914155973451468e+01 -1 2 0
4486 1 6.1347051885388195e+00 1.0476362741011146e+01 3.2678634269152369e+01 0 0 0
3771 1 4.6273401122834077e+00 8.3001873407352349e+00 3.2026084206840807e+01 -2 1 -1
2208 1 8.8578456793379239e+00 1.0556156363340994e+01 3.2418080289592751e+01 2 -3 0
1345 1 1.0517794579085106e+01 6.6899604574642102e-01 2.5209782207878948e+01 -2 0 1
2953 1 3.8455445084898483e+00 1.1094044731468720e+01 2.5370595057764902e+01 0 1 -1
57 1 5.6946265902364590e-01 6.3702487533701744e+00 3.2092176342753305e+01 1 3 0
634 1 5.2985383720066415e-01 6.5879416092498149e+00 2.9183097744896152e+01 2 3 0
2341 1 7.6150451494936977e+00 8.2205774194378538e+00 2.5309483976275509e+01 2 2 0
3837 1 2.4948149082206252e+00 1.6757229873340869e+00 2.5330837935308054e+01 2 2 0
86 1 1.1041465426020764e+01 5.3081719338560989e+00 2.5156735429045135e+01 -2 -2 0
137 2 0.0000000000000000e+00 1.2787731112280996e+01 2.3749829933041613e+00 0 0 0
139 2 1.2305000000000001e+00 1.3498160618518829e+01 2.3749829933041613e+00 0 0 0
174 2 2.4610000000000003e+00 1.2787731112280996e+01 2.3749829933041613e+00 0 0 0
176 2 3.6915000000000004e+00 1.3498160618518829e+01 2.3749829933041613e+00 0 0 0
135 2 0.0000000000000000e+00 1.5629449137232333e+01 2.3749829933041613e+00 0 0 0
170 2 1.2305000000000001e+00 1.4919019630994494e+01 2.3749829933041613e+00 0 0 0
172 2 2.4610000000000003e+00 1.5629449137232328e+01 2.3749829933041613e+00 0 0 0
215 2 3.6915000000000004e+00 1.4919019630994494e+01 2.3749829933041613e+00 0 0 0
219 2 4.9220000000000006e+00 1.2787731112280996e+01 2.3749829933041613e+00 0 0 0
221 2 6.1524999999999990e+00 1.3498160618518829e+01 2.3749829933041613e+00 0 0 0
266 2 7.3829999999999991e+00 1.2787731112280996e+01 2.3749829933041613e+00 0 0 0
217 2 4.9220000000000006e+00 1.5629449137232333e+01 2.3749829933041613e+00 0 0 0
262 2 6.1524999999999990e+00 1.4919019630994494e+01 2.3749829933041613e+00 0 0 0
264 2 7.3829999999999991e+00 1.5629449137232333e+01 2.3749829933041613e+00 0 0 0
268 2 8.6135000000000002e+00 1.3498160618518835e+01 2.3749829933041613e+00 0 0 0
313 2 9.8440000000000012e+00 1.2787731112280996e+01 2.3749829933041613e+00 0 0 0
315 2 1.1074500000000002e+01 1.3498160618518829e+01 2.3749829933041613e+00 0 0 0
309 2 8.6135000000000002e+00 1.4919019630994494e+01 2.3749829933041613e+00 0 0 0
311 2 9.8440000000000012e+00 1.5629449137232328e+01 2.3749829933041613e+00 0 0 0
351 2 1.1074500000000002e+01 1.4919019630994494e+01 2.3749829933041613e+00 0 0 0
166 2 0.0000000000000000e+00 1.7050308149707998e+01 2.3749829933041613e+00 0 0 0
211 2 2.4610000000000003e+00 1.7050308149707998e+01 2.3749829933041613e+00 0 0 0
164 2 0.0000000000000000e+00 1.9892026174659328e+01 2.3749829933041613e+00 0 0 0
168 2 1.2305000000000001e+00 1.7760737655945832e+01 2.3749829933041613e+00 0 0 0
207 2 1.2305000000000001e+00 1.9181596668421495e+01 2.3749829933041613e+00 0 0 0
209 2 2.4610000000000003e+00 1.9892026174659328e+01 2.3749829933041613e+00 0 0 0
213 2 3.6914999999999996e+00 1.7760737655945832e+01 2.3749829933041613e+00 0 0 0
254 2 3.6914999999999996e+00 1.9181596668421495e+01 2.3749829933041613e+00 0 0 0
258 2 4.9220000000000006e+00 1.7050308149707998e+01 2.3749829933041613e+00 0 0 0
305 2 7.3830000000000009e+00 1.7050308149707998e+01 2.3749829933041613e+00 0 0 0
256 2 4.9220000000000006e+00 1.9892026174659328e+01 2.3749829933041613e+00 0 0 0
260 2 6.1524999999999999e+00 1.7760737655945832e+01 2.3749829933041613e+00 0 0 0
301 2 6.1524999999999999e+00 1.9181596668421495e+01 2.3749829933041613e+00 0 0 0
303 2 7.3829999999999991e+00 1.9892026174659328e+01 2.3749829933041613e+00 0 0 0
347 2 9.8440000000000012e+00 1.7050308149707998e+01 2.3749829933041613e+00 0 0 0
381 2 1.2304999999999998e+01 1.7050308149707998e+01 2.3749829933041613e+00 0 0 0
307 2 8.6134999999999984e+00 1.7760737655945832e+01 2.3749829933041613e+00 0 0 0
343 2 8.6135000000000002e+00 1.9181596668421495e+01 2.3749829933041613e+00 0 0 0
345 2 9.8440000000000012e+00 1.9892026174659335e+01 2.3749829933041613e+00 0 0 0
349 2 1.1074500000000002e+01 1.7760737655945835e+01 2.3749829933041613e+00 0 0 0
377 2 1.1074500000000002e+01 1.9181596668421495e+01 2.3749829933041613e+00 0 0 0
201 2 0.0000000000000000e+00 2.4154603212086325e+01 2.3749829933041613e+00 0 0 0
203 2 0.0000000000000000e+00 2.1312885187134999e+01 2.3749829933041613e+00 0 0 0
205 2 1.2304999999999993e+00 2.2023314693372832e+01 2.3749829933041613e+00 0 0 0
246 2 1.2304999999999993e+00 2.3444173705848499e+01 2.3749829933041613e+00 0 0 0
248 2 2.4610000000000003e+00 2.4154603212086325e+01 2.3749829933041613e+00 0 0 0
250 2 2.4610000000000003e+00 2.1312885187134995e+01 2.3749829933041613e+00 0 0 0
252 2 3.6914999999999996e+00 2.2023314693372832e+01 2.3749829933041613e+00 0 0 0
293 2 3.6915000000000004e+00 2.3444173705848499e+01 2.3749829933041613e+00 0 0 0
295 2 4.9220000000000006e+00 2.4154603212086325e+01 2.3749829933041613e+00 0 0 0
297 2 4.9220000000000006e+00 2.1312885187134995e+01 2.3749829933041613e+00 0 0 0
299 2 6.1524999999999990e+00 2.2023314693372832e+01 2.3749829933041613e+00 0 0 0
335 2 6.1524999999999999e+00 2.3444173705848499e+01 2.3749829933041613e+00 0 0 0
337 2 7.3830000000000009e+00 2.4154603212086336e+01 2.3749829933041613e+00 0 0 0
339 2 7.3829999999999991e+00 2.1312885187134999e+01 2.3749829933041613e+00 0 0 0
341 2 8.6135000000000002e+00 2.2023314693372832e+01 2.3749829933041613e+00 0 0 0
369 2 8.6134999999999984e+00 2.3444173705848499e+01 2.3749829933041613e+00 0 0 0
371 2 9.8440000000000012e+00 2.4154603212086336e+01 2.3749829933041613e+00 0 0 0
373 2 9.8440000000000012e+00 2.1312885187134999e+01 2.3749829933041613e+00 0 0 0
375 2 1.1074500000000002e+01 2.2023314693372832e+01 2.3749829933041613e+00 0 0 0
395 2 1.1074500000000002e+01 2.3444173705848499e+01 2.3749829933041613e+00 0 0 0
138 2 0.0000000000000000e+00 1.2787731112280996e+01 5.5759041363446205e+00 0 0 0
175 2 2.4610000000000003e+00 1.2787731112280996e+01 5.5759041363446205e+00 0 0 0
447 2 0.0000000000000000e+00 1.2787731112280996e+01 8.7768252793807680e+00 0 0 0
448 2 1.2305000000000001e+00 1.3498160618518829e+01 8.7768252793807680e+00 0 0 0
466 2 2.4610000000000003e+00 1.2787731112280996e+01 8.7768252793807680e+00 0 0 0
467 2 3.6915000000000004e+00 1.3498160618518829e+01 8.7768252793807680e+00 0 0 0
136 2 0.0000000000000000e+00 1.4208590124756663e+01 5.5759041363446205e+00 0 0 0
171 2 1.2305000000000001e+00 1.4919019630994494e+01 5.5759041363446205e+00 0 0 0
173 2 2.4610000000000003e+00 1.4208590124756663e+01 5.5759041363446205e+00 0 0 0
216 2 3.6915000000000004e+00 1.4919019630994494e+01 5.5759041363446205e+00 0 0 0
446 2 0.0000000000000000e+00 1.5629449137232333e+01 8.7768252793807680e+00 0 0 0
464 2 1.2305000000000001e+00 1.4919019630994494e+01 8.7768252793807680e+00 0 0 0
465 2 2.4610000000000003e+00 1.5629449137232328e+01 8.7768252793807680e+00 0 0 0
487 2 3.6915000000000004e+00 1.4919019630994494e+01 8.7768252793807680e+00 0 0 0
220 2 4.9220000000000006e+00 1.2787731112280996e+01 5.5759041363446205e+00 0 0 0
267 2 7.3829999999999991e+00 1.2787731112280996e+01 5.5759041363446205e+00 0 0 0
489 2 4.9220000000000006e+00 1.2787731112280996e+01 8.7768252793807680e+00 0 0 0
490 2 6.1524999999999990e+00 1.3498160618518829e+01 8.7768252793807680e+00 0 0 0
513 2 7.3829999999999991e+00 1.2787731112280996e+01 8.7768252793807680e+00 0 0 0