LAMMPS data file via write_data, version 16 Mar 2018, timestep = 8000000

4055 atoms
2 atom types

0.0000000000000000e+00 4.9219999999999999e+01 xlo xhi
0.0000000000000000e+00 4.9019635930410494e+01 ylo yhi
1.1327810746745968e+00 2.6807218925318921e+01 zlo zhi

Masses

1 18.015
2 12.01

Atoms # atomic

53 2 0.0000000000000000e+00 2.8417180249513345e+00 2.7509025534786375e+00 0 0 0
55 2 0.0000000000000000e+00 0.0000000000000000e+00 2.7509025534786375e+00 0 0 0
57 2 1.2305000000000001e+00 7.1042950623783474e-01 2.7509025534786375e+00 0 0 0
64 2 1.2305000000000001e+00 2.1312885187134998e+00 2.7509025534786375e+00 0 0 0
66 2 2.4610000000000003e+00 2.8417180249513345e+00 2.7509025534786375e+00 0 0 0
68 2 2.4610000000000003e+00 0.0000000000000000e+00 2.7509025534786375e+00 0 0 0
70 2 3.6915000000000004e+00 7.1042950623783474e-01 2.7509025534786375e+00 0 0 0
85 2 3.6914999999999996e+00 2.1312885187134998e+00 2.7509025534786375e+00 0 0 0
87 2 4.9220000000000006e+00 2.8417180249513332e+00 2.7509025534786375e+00 0 0 0
89 2 4.9220000000000006e+00 0.0000000000000000e+00 2.7509025534786375e+00 0 0 0
60 2 0.0000000000000000e+00 4.2625770374269996e+00 2.7509025534786375e+00 0 0 0
81 2 2.4610000000000003e+00 4.2625770374269996e+00 2.7509025534786375e+00 0 0 0
110 2 4.9220000000000006e+00 4.2625770374269978e+00 2.7509025534786375e+00 0 0 0
62 2 1.2305000000000001e+00 4.9730065436648339e+00 2.7509025534786375e+00 0 0 0
77 2 1.2305000000000001e+00 6.3938655561404980e+00 2.7509025534786375e+00 0 0 0
83 2 3.6914999999999996e+00 4.9730065436648339e+00 2.7509025534786375e+00 0 0 0
106 2 3.6914999999999996e+00 6.3938655561404980e+00 2.7509025534786375e+00 0 0 0
58 2 0.0000000000000000e+00 7.1042950623783341e+00 2.7509025534786375e+00 0 0 0
73 2 0.0000000000000000e+00 8.5251540748539991e+00 2.7509025534786375e+00 0 0 0
75 2 1.2305000000000001e+00 9.2355835810918343e+00 2.7509025534786375e+00 0 0 0
79 2 2.4610000000000003e+00 7.1042950623783341e+00 2.7509025534786375e+00 0 0 0
102 2 2.4610000000000003e+00 8.5251540748539991e+00 2.7509025534786375e+00 0 0 0
104 2 3.6915000000000004e+00 9.2355835810918343e+00 2.7509025534786375e+00 0 0 0
108 2 4.9220000000000006e+00 7.1042950623783341e+00 2.7509025534786375e+00 0 0 0
139 2 4.9220000000000006e+00 8.5251540748539991e+00 2.7509025534786375e+00 0 0 0
54 2 0.0000000000000000e+00 1.4208590124756650e+00 5.8119009131626447e+00 0 0 0
56 2 0.0000000000000000e+00 0.0000000000000000e+00 5.8119009131626447e+00 0 0 0
65 2 1.2305000000000001e+00 2.1312885187134998e+00 5.8119009131626447e+00 0 0 0
67 2 2.4610000000000003e+00 1.4208590124756650e+00 5.8119009131626447e+00 0 0 0
69 2 2.4610000000000003e+00 0.0000000000000000e+00 5.8119009131626447e+00 0 0 0
86 2 3.6914999999999996e+00 2.1312885187134998e+00 5.8119009131626447e+00 0 0 0
382 2 0.0000000000000000e+00 2.8417180249513345e+00 8.8728992728546174e+00 0 0 0
383 2 0.0000000000000000e+00 0.0000000000000000e+00 8.8728992728546174e+00 0 0 0
384 2 1.2305000000000001e+00 7.1042950623783474e-01 8.8728992728546174e+00 0 0 0
388 2 1.2305000000000001e+00 2.1312885187134998e+00 8.8728992728546174e+00 0 0 0
389 2 2.4610000000000003e+00 2.8417180249513345e+00 8.8728992728546174e+00 0 0 0
390 2 2.4610000000000003e+00 0.0000000000000000e+00 8.8728992728546174e+00 0 0 0
391 2 3.6915000000000004e+00 7.1042950623783474e-01 8.8728992728546174e+00 0 0 0
399 2 3.6914999999999996e+00 2.1312885187134998e+00 8.8728992728546174e+00 0 0 0
88 2 4.9220000000000006e+00 1.4208590124756650e+00 5.8119009131626447e+00 0 0 0
90 2 4.9220000000000006e+00 0.0000000000000000e+00 5.8119009131626447e+00 0 0 0
400 2 4.9220000000000006e+00 2.8417180249513332e+00 8.8728992728546174e+00 0 0 0
401 2 4.9220000000000006e+00 0.0000000000000000e+00 8.8728992728546174e+00 0 0 0
61 2 0.0000000000000000e+00 4.2625770374269996e+00 5.8119009131626447e+00 0 0 0
63 2 1.2305000000000001e+00 3.5521475311891644e+00 5.8119009131626447e+00 0 0 0
82 2 2.4610000000000003e+00 4.2625770374269996e+00 5.8119009131626447e+00 0 0 0
84 2 3.6914999999999996e+00 3.5521475311891644e+00 5.8119009131626447e+00 0 0 0
386 2 0.0000000000000000e+00 4.2625770374269996e+00 8.8728992728546174e+00 0 0 0
397 2 2.4610000000000003e+00 4.2625770374269996e+00 8.8728992728546174e+00 0 0 0
111 2 4.9220000000000006e+00 4.2625770374269978e+00 5.8119009131626447e+00 0 0 0
412 2 4.9220000000000006e+00 4.2625770374269978e+00 8.8728992728546174e+00 0 0 0
59 2 0.0000000000000000e+00 5.6834360499026637e+00 5.8119009131626447e+00 0 0 0
78 2 1.2305000000000001e+00 6.3938655561404980e+00 5.8119009131626447e+00 0 0 0
80 2 2.4610000000000003e+00 5.6834360499026637e+00 5.8119009131626447e+00 0 0 0
107 2 3.6914999999999996e+00 6.3938655561404980e+00 5.8119009131626447e+00 0 0 0
387 2 1.2305000000000001e+00 4.9730065436648339e+00 8.8728992728546174e+00 0 0 0
395 2 1.2305000000000001e+00 6.3938655561404980e+00 8.8728992728546174e+00 0 0 0
398 2 3.6914999999999996e+00 4.9730065436648339e+00 8.8728992728546174e+00 0 0 0
410 2 3.6914999999999996e+00 6.3938655561404980e+00 8.8728992728546174e+00 0 0 0
109 2 4.9220000000000006e+00 5.6834360499026637e+00 5.8119009131626447e+00 0 0 0
74 2 0.0000000000000000e+00 8.5251540748539991e+00 5.8119009131626447e+00 0 0 0
76 2 1.2305000000000001e+00 7.8147245686161639e+00 5.8119009131626447e+00 0 0 0
103 2 2.4610000000000003e+00 8.5251540748539991e+00 5.8119009131626447e+00 0 0 0
105 2 3.6914999999999996e+00 7.8147245686161639e+00 5.8119009131626447e+00 0 0 0
385 2 0.0000000000000000e+00 7.1042950623783341e+00 8.8728992728546174e+00 0 0 0
393 2 0.0000000000000000e+00 8.5251540748539991e+00 8.8728992728546174e+00 0 0 0
394 2 1.2305000000000001e+00 9.2355835810918343e+00 8.8728992728546174e+00 0 0 0
396 2 2.4610000000000003e+00 7.1042950623783341e+00 8.8728992728546174e+00 0 0 0
408 2 2.4610000000000003e+00 8.5251540748539991e+00 8.8728992728546174e+00 0 0 0
409 2 3.6915000000000004e+00 9.2355835810918343e+00 8.8728992728546174e+00 0 0 0
140 2 4.9220000000000006e+00 8.5251540748539991e+00 5.8119009131626447e+00 0 0 0
411 2 4.9220000000000006e+00 7.1042950623783341e+00 8.8728992728546174e+00 0 0 0
427 2 4.9220000000000006e+00 8.5251540748539991e+00 8.8728992728546174e+00 0 0 0
35 1 4.5007644199669201e+00 1.3434931635414591e+00 1.1996956573813543e+01 0 0 0
2733 1 2.0839726470288498e+00 2.0299879623717829e+00 1.1118623612031417e+01 0 2 1
2670 1 1.4209817702956802e+00 4.5729056722498163e+00 1.2126368710285821e+01 1 0 -1
1355 1 3.3326439132932886e+00 6.4604173716393678e+00 1.1100950074746700e+01 0 -1 0
2102 1 2.5369678740828716e+00 9.1829428832385709e+00 1.2065935867002915e+01 1 1 1
3420 1 1.0197121794027912e-01 3.4536193551732769e-01 1.2147428101862523e+01 1 0 0
2086 1 5.7895583742507775e+00 5.9906673719552863e+00 1.2112167004825281e+01 1 1 0
567 1 1.9968233702911478e+00 2.3358492935101247e+00 1.5749242643711836e+01 0 1 -1
3954 1 4.4497536694549220e+00 1.4272996446685571e+00 1.4863993985922219e+01 0 1 -1
2578 1 1.6312036669295784e+00 4.8520023255233218e+00 1.4715129672429297e+01 1 1 0
2593 1 2.9923535766905656e+00 8.8761136422467466e+00 2.2733058985151843e+01 1 1 0
3884 1 3.5450967923130179e+00 6.4616130714900759e+00 1.5698808954437075e+01 0 0 0
3305 1 2.8336257760808952e+00 9.0962049134181164e+00 1.4724612986894252e+01 2 -1 1
3890 1 6.0659797427523845e+00 5.0090279668589428e+00 2.5826875176662270e+01 0 -1 -1
2722 1 1.6304011765436370e+00 2.5587961373189194e+00 1.8391143592912975e+01 1 1 1
1345 1 3.8916921720422297e+00 4.0869067727482884e+00 1.9301563098654118e+01 0 0 -1
755 1 4.0326898001522036e+00 3.5493778426477030e+00 2.2252026891076248e+01 0 1 -1
1367 1 3.6498425266596413e+00 6.6556620539628746e+00 1.8303846404415300e+01 0 1 -1
2700 1 8.3248161795903752e-01 7.4585888240568625e+00 1.9085990985212764e+01 0 0 0
1415 1 5.6022472539573025e+00 8.3883684305646042e+00 1.9268088828750834e+01 0 0 -1
3430 1 8.7621220039685188e-01 7.4328739583514096e+00 2.1607327990583169e+01 1 1 -1
659 1 5.5587665439166489e+00 8.1453477339549973e+00 2.1955310748729978e+01 -1 0 -1
1985 1 1.3265068764776780e+00 4.7322607432885144e+00 2.2512229602177037e+01 1 0 0
2675 1 1.2748094682295015e+00 4.5991883584844198e+00 2.5428001814598254e+01 0 1 0
17 1 4.3012340877340582e+00 1.0945030769694126e+00 2.3219097759284431e+01 0 0 0
3404 1 3.7858377637971770e+00 3.2676348342919481e+00 2.5787542501266024e+01 1 0 0
3924 1 5.9175559819244432e+00 8.0049073233532742e+00 2.5704823000758925e+01 0 0 -1
2684 1 3.1126183111963708e+00 8.6361578669396923e+00 2.5277575232946230e+01 1 0 0
3344 1 7.6906517695525034e-01 7.3839493519671535e+00 2.5972189196423706e+01 -1 0 -1
4028 1 5.9092089510090862e+00 5.5104446620259466e+00 2.3078030283544916e+01 1 1 -1
1253 1 1.5430305004447470e-01 3.6786155793862818e-01 2.5431213403102827e+01 0 -1 0
2576 1 4.2750640978551503e-02 3.0438736069610806e-01 1.4882065070581499e+01 0 1 1
1371 1 2.9486118965586665e+00 2.7321570078703888e-01 2.5755621359523868e+01 1 0 0
71 2 0.0000000000000000e+00 1.1366872099805333e+01 2.7509025534786375e+00 0 0 0
94 2 0.0000000000000000e+00 1.2787731112280996e+01 2.7509025534786375e+00 0 0 0
96 2 1.2305000000000001e+00 1.3498160618518829e+01 2.7509025534786375e+00 0 0 0
98 2 1.2305000000000001e+00 1.0656442593567498e+01 2.7509025534786375e+00 0 0 0
100 2 2.4610000000000003e+00 1.1366872099805333e+01 2.7509025534786375e+00 0 0 0
131 2 2.4610000000000003e+00 1.2787731112280996e+01 2.7509025534786375e+00 0 0 0
133 2 3.6915000000000004e+00 1.3498160618518829e+01 2.7509025534786375e+00 0 0 0
135 2 3.6914999999999996e+00 1.0656442593567499e+01 2.7509025534786375e+00 0 0 0
137 2 4.9220000000000006e+00 1.1366872099805333e+01 2.7509025534786375e+00 0 0 0
176 2 4.9220000000000006e+00 1.2787731112280996e+01 2.7509025534786375e+00 0 0 0
178 2 6.1524999999999990e+00 1.3498160618518829e+01 2.7509025534786375e+00 0 0 0
92 2 0.0000000000000000e+00 1.5629449137232333e+01 2.7509025534786375e+00 0 0 0
123 2 0.0000000000000000e+00 1.7050308149707998e+01 2.7509025534786375e+00 0 0 0
127 2 1.2305000000000001e+00 1.4919019630994494e+01 2.7509025534786375e+00 0 0 0
129 2 2.4610000000000003e+00 1.5629449137232328e+01 2.7509025534786375e+00 0 0 0
168 2 2.4610000000000003e+00 1.7050308149707998e+01 2.7509025534786375e+00 0 0 0
172 2 3.6915000000000004e+00 1.4919019630994494e+01 2.7509025534786375e+00 0 0 0
174 2 4.9220000000000006e+00 1.5629449137232333e+01 2.7509025534786375e+00 0 0 0
215 2 4.9220000000000006e+00 1.7050308149707998e+01 2.7509025534786375e+00 0 0 0
219 2 6.1524999999999990e+00 1.4919019630994494e+01 2.7509025534786375e+00 0 0 0
125 2 1.2305000000000001e+00 1.7760737655945832e+01 2.7509025534786375e+00 0 0 0
164 2 1.2305000000000001e+00 1.9181596668421495e+01 2.7509025534786375e+00 0 0 0
170 2 3.6914999999999996e+00 1.7760737655945832e+01 2.7509025534786375e+00 0 0 0
211 2 3.6914999999999996e+00 1.9181596668421495e+01 2.7509025534786375e+00 0 0 0
72 2 0.0000000000000000e+00 9.9460130873296642e+00 5.8119009131626447e+00 0 0 0
101 2 2.4610000000000003e+00 9.9460130873296642e+00 5.8119009131626447e+00 0 0 0
138 2 4.9220000000000006e+00 9.9460130873296642e+00 5.8119009131626447e+00 0 0 0
95 2 0.0000000000000000e+00 1.2787731112280996e+01 5.8119009131626447e+00 0 0 0
97 2 1.2305000000000001e+00 1.2077301606043163e+01 5.8119009131626447e+00 0 0 0
99 2 1.2305000000000001e+00 1.0656442593567498e+01 5.8119009131626447e+00 0 0 0
132 2 2.4610000000000003e+00 1.2787731112280996e+01 5.8119009131626447e+00 0 0 0
134 2 3.6914999999999996e+00 1.2077301606043163e+01 5.8119009131626447e+00 0 0 0
136 2 3.6914999999999996e+00 1.0656442593567499e+01 5.8119009131626447e+00 0 0 0
392 2 0.0000000000000000e+00 1.1366872099805333e+01 8.8728992728546174e+00 0 0 0
404 2 0.0000000000000000e+00 1.2787731112280996e+01 8.8728992728546174e+00 0 0 0
405 2 1.2305000000000001e+00 1.3498160618518829e+01 8.8728992728546174e+00 0 0 0
406 2 1.2305000000000001e+00 1.0656442593567498e+01 8.8728992728546174e+00 0 0 0
407 2 2.4610000000000003e+00 1.1366872099805333e+01 8.8728992728546174e+00 0 0 0
423 2 2.4610000000000003e+00 1.2787731112280996e+01 8.8728992728546174e+00 0 0 0
424 2 3.6915000000000004e+00 1.3498160618518829e+01 8.8728992728546174e+00 0 0 0
425 2 3.6914999999999996e+00 1.0656442593567499e+01 8.8728992728546174e+00 0 0 0
177 2 4.9220000000000006e+00 1.2787731112280996e+01 5.8119009131626447e+00 0 0 0
426 2 4.9220000000000006e+00 1.1366872099805333e+01 8.8728992728546174e+00 0 0 0
446 2 4.9220000000000006e+00 1.2787731112280996e+01 8.8728992728546174e+00 0 0 0
447 2 6.1524999999999990e+00 1.3498160618518829e+01 8.8728992728546174e+00 0 0 0
93 2 0.0000000000000000e+00 1.4208590124756663e+01 5.8119009131626447e+00 0 0 0
130 2 2.4610000000000003e+00 1.4208590124756663e+01 5.8119009131626447e+00 0 0 0
175 2 4.9220000000000006e+00 1.4208590124756663e+01 5.8119009131626447e+00 0 0 0
124 2 0.0000000000000000e+00 1.7050308149707998e+01 5.8119009131626447e+00 0 0 0
126 2 1.2305000000000001e+00 1.6339878643470165e+01 5.8119009131626447e+00 0 0 0
128 2 1.2305000000000001e+00 1.4919019630994494e+01 5.8119009131626447e+00 0 0 0
169 2 2.4610000000000003e+00 1.7050308149707998e+01 5.8119009131626447e+00 0 0 0
171 2 3.6915000000000004e+00 1.6339878643470165e+01 5.8119009131626447e+00 0 0 0
173 2 3.6915000000000004e+00 1.4919019630994494e+01 5.8119009131626447e+00 0 0 0
403 2 0.0000000000000000e+00 1.5629449137232333e+01 8.8728992728546174e+00 0 0 0
419 2 0.0000000000000000e+00 1.7050308149707998e+01 8.8728992728546174e+00 0 0 0
421 2 1.2305000000000001e+00 1.4919019630994494e+01 8.8728992728546174e+00 0 0 0
422 2 2.4610000000000003e+00 1.5629449137232328e+01 8.8728992728546174e+00 0 0 0
442 2 2.4610000000000003e+00 1.7050308149707998e+01 8.8728992728546174e+00 0 0 0
444 2 3.6915000000000004e+00 1.4919019630994494e+01 8.8728992728546174e+00 0 0 0
216 2 4.9220000000000006e+00 1.7050308149707998e+01 5.8119009131626447e+00 0 0 0
220 2 6.1524999999999990e+00 1.4919019630994494e+01 5.8119009131626447e+00 0 0 0
445 2 4.9220000000000006e+00 1.5629449137232333e+01 8.8728992728546174e+00 0 0 0
466 2 4.9220000000000006e+00 1.7050308149707998e+01 8.8728992728546174e+00 0 0 0
468 2 6.1524999999999990e+00 1.4919019630994494e+01 8.8728992728546174e+00 0 0 0
122 2 0.0000000000000000e+00 1.8471167162183658e+01 5.8119009131626447e+00 0 0 0
165 2 1.2305000000000001e+00 1.9181596668421495e+01 5.8119009131626447e+00 0 0 0
167 2 2.4610000000000003e+00 1.8471167162183658e+01 5.8119009131626447e+00 0 0 0
212 2 3.6914999999999996e+00 1.9181596668421495e+01 5.8119009131626447e+00 0 0 0
420 2 1.2305000000000001e+00 1.7760737655945832e+01 8.8728992728546174e+00 0 0 0
440 2 1.2305000000000001e+00 1.9181596668421495e+01 8.8728992728546174e+00 0 0 0
443 2 3.6914999999999996e+00 1.7760737655945832e+01 8.8728992728546174e+00 0 0 0
464 2 3.6914999999999996e+00 1.9181596668421495e+01 8.8728992728546174e+00 0 0 0
214 2 4.9220000000000006e+00 1.8471167162183658e+01 5.8119009131626447e+00 0 0 0
3242 1 4.6067004674988894e+00 1.0914534535183659e+01 1.1460240662412005e+01 1 1 0
2682 1 3.9592316784546742e+00 1.3400101284280003e+01 1.2173607840692524e+01 1 1 0
1402 1 1.7140415769528234e+00 1.4529939954981716e+01 1.1057210899422847e+01 1 -1 0
705 1 1.4393075158980824e+00 1.6910754170172545e+01 1.2062039258911033e+01 0 0 0
634 1 3.4057780059865168e+00 1.8514598001979010e+01 1.1086212875492560e+01 -1 0 0
1319 1 5.7801437185598639e+00 1.7630952562778695e+01 1.1910624250255880e+01 0 0 0
3373 1 6.0945965184878528e+00 1.5057819588356523e+01 1.1320664814088632e+01 1 -1 -1
49 1 1.7821491802202563e-01 1.0034511955312270e+01 1.1113996553430079e+01 1 1 -1
2095 1 4.9497505765585590e+00 1.0902203633501948e+01 1.5544313567515715e+01 0 1 1
1408 1 4.4449438712608078e+00 1.3588417402842701e+01 1.4709880920324244e+01 0 1 -1
2058 1 1.8459218096906409e+00 1.4238749626084594e+01 1.5689123840407170e+01 2 0 -1
2019 1 1.9321536659203136e+00 1.4477517191092032e+01 1.8322151894761667e+01 1 0 -1
1981 1 4.5816946620520960e-01 1.0039857121586147e+01 1.8094626929347918e+01 0 -1 -1
1357 1 3.2025983376116942e+00 1.8631201451606717e+01 1.5809447142920524e+01 0 -1 0
1272 1 1.2034092022473708e+00 1.6980450900671030e+01 1.4673343304357248e+01 0 0 0
3254 1 5.8584011932291773e+00 1.7632212480398437e+01 2.2769226396695522e+01 0 0 0
1438 1 4.9350164232756857e+00 1.0986982481964073e+01 1.8302616290909071e+01 1 -1 0
1957 1 2.4378618864733155e+00 1.1797841799257323e+01 1.9355462478563393e+01 0 0 1
2735 1 2.5413671836635601e+00 1.1704449229370116e+01 2.2073023394146436e+01 0 0 0
3440 1 1.3750627753074305e+00 1.7135006950193066e+01 2.5506919841169854e+01 1 0 0
3263 1 3.5478125005991994e+00 1.8695563926947607e+01 1.8597281954540982e+01 0 0 0
1418 1 1.5454615967603198e+00 1.6844834158327934e+01 2.2464675268072323e+01 0 0 -1
4 1 4.0989780697492932e+00 1.5949504124692972e+01 2.1786628698177694e+01 -1 1 0
653 1 4.0716860462936451e+00 1.6012360894052893e+01 1.9100424821399788e+01 0 0 0
699 1 5.9880255584239688e+00 1.7648231352848786e+01 2.5680150854446222e+01 0 1 0
2605 1 2.4140934386670017e+00 1.1207022439515468e+01 2.6171437401416977e+01 1 0 -1
6 1 3.8132638973254838e+00 1.6102550402365949e+01 2.6340814354437910e+01 -1 0 1
2734 1 4.3857811306379926e+00 1.3579569141390531e+01 2.3057035957037513e+01 0 0 1
3335 1 4.3525095882850815e+00 1.3189469812261510e+01 2.5709202151038415e+01 1 -1 0
3365 1 6.6718901693836519e-01 1.9592395253487037e+01 2.5688158146249403e+01 0 -1 0
1425 1 5.7213833389080362e+00 1.7863440411851194e+01 1.4723725531083158e+01 0 0 0
30 1 3.7163334407769294e-01 9.8611135419907523e+00 1.5369014990361585e+01 1 0 0
121 2 0.0000000000000000e+00 1.9892026174659328e+01 2.7509025534786375e+00 0 0 0
166 2 2.4610000000000003e+00 1.9892026174659328e+01 2.7509025534786375e+00 0 0 0
213 2 4.9220000000000006e+00 1.9892026174659328e+01 2.7509025534786375e+00 0 0 0
158 2 0.0000000000000000e+00 2.4154603212086325e+01 2.7509025534786375e+00 0 0 0
160 2 0.0000000000000000e+00 2.1312885187134999e+01 2.7509025534786375e+00 0 0 0
162 2 1.2304999999999993e+00 2.2023314693372832e+01 2.7509025534786375e+00 0 0 0
203 2 1.2304999999999993e+00 2.3444173705848499e+01 2.7509025534786375e+00 0 0 0
205 2 2.4610000000000003e+00 2.4154603212086325e+01 2.7509025534786375e+00 0 0 0
207 2 2.4610000000000003e+00 2.1312885187134995e+01 2.7509025534786375e+00 0 0 0
209 2 3.6914999999999996e+00 2.2023314693372832e+01 2.7509025534786375e+00 0 0 0
250 2 3.6915000000000004e+00 2.3444173705848499e+01 2.7509025534786375e+00 0 0 0
252 2 4.9220000000000006e+00 2.4154603212086325e+01 2.7509025534786375e+00 0 0 0
254 2 4.9220000000000006e+00 2.1312885187134995e+01 2.7509025534786375e+00 0 0 0
256 2 6.1524999999999990e+00 2.2023314693372832e+01 2.7509025534786375e+00 0 0 0
774 2 0.0000000000000000e+00 2.5575462224561992e+01 2.7509025534786375e+00 0 0 0
776 2 1.2305000000000001e+00 2.6285891730799833e+01 2.7509025534786375e+00 0 0 0
784 2 1.2305000000000010e+00 2.7706750743275496e+01 2.7509025534786375e+00 0 0 0
788 2 2.4610000000000003e+00 2.5575462224561992e+01 2.7509025534786375e+00 0 0 0
790 2 3.6914999999999991e+00 2.6285891730799833e+01 2.7509025534786375e+00 0 0 0
806 2 3.6914999999999996e+00 2.7706750743275496e+01 2.7509025534786375e+00 0 0 0
810 2 4.9220000000000006e+00 2.5575462224561992e+01 2.7509025534786375e+00 0 0 0
836 2 6.1524999999999990e+00 2.7706750743275496e+01 2.7509025534786375e+00 0 0 0
772 2 0.0000000000000000e+00 2.8417180249513333e+01 2.7509025534786375e+00 0 0 0
786 2 2.4610000000000003e+00 2.8417180249513326e+01 2.7509025534786375e+00 0 0 0
808 2 4.9220000000000006e+00 2.8417180249513336e+01 2.7509025534786375e+00 0 0 0
163 2 1.2305000000000001e+00 2.0602455680897162e+01 5.8119009131626447e+00 0 0 0
210 2 3.6915000000000004e+00 2.0602455680897162e+01 5.8119009131626447e+00 0 0 0
418 2 0.0000000000000000e+00 1.9892026174659328e+01 8.8728992728546174e+00 0 0 0
441 2 2.4610000000000003e+00 1.9892026174659328e+01 8.8728992728546174e+00 0 0 0
465 2 4.9220000000000006e+00 1.9892026174659328e+01 8.8728992728546174e+00 0 0 0
159 2 0.0000000000000000e+00 2.2733744199610655e+01 5.8119009131626447e+00 0 0 0
161 2 0.0000000000000000e+00 2.1312885187134999e+01 5.8119009131626447e+00 0 0 0
204 2 1.2304999999999993e+00 2.3444173705848499e+01 5.8119009131626447e+00 0 0 0
206 2 2.4610000000000003e+00 2.2733744199610655e+01 5.8119009131626447e+00 0 0 0
208 2 2.4610000000000003e+00 2.1312885187134995e+01 5.8119009131626447e+00 0 0 0
251 2 3.6915000000000004e+00 2.3444173705848499e+01 5.8119009131626447e+00 0 0 0
437 2 0.0000000000000000e+00 2.4154603212086325e+01 8.8728992728546174e+00 0 0 0
438 2 0.0000000000000000e+00 2.1312885187134999e+01 8.8728992728546174e+00 0 0 0
439 2 1.2304999999999993e+00 2.2023314693372832e+01 8.8728992728546174e+00 0 0 0
460 2 1.2304999999999993e+00 2.3444173705848499e+01 8.8728992728546174e+00 0 0 0
461 2 2.4610000000000003e+00 2.4154603212086325e+01 8.8728992728546174e+00 0 0 0
462 2 2.4610000000000003e+00 2.1312885187134995e+01 8.8728992728546174e+00 0 0 0
463 2 3.6914999999999996e+00 2.2023314693372832e+01 8.8728992728546174e+00 0 0 0
484 2 3.6915000000000004e+00 2.3444173705848499e+01 8.8728992728546174e+00 0 0 0
253 2 4.9220000000000006e+00 2.2733744199610655e+01 5.8119009131626447e+00 0 0 0
255 2 4.9220000000000006e+00 2.1312885187134995e+01 5.8119009131626447e+00 0 0 0
485 2 4.9220000000000006e+00 2.4154603212086325e+01 8.8728992728546174e+00 0 0 0
486 2 4.9220000000000006e+00 2.1312885187134995e+01 8.8728992728546174e+00 0 0 0
487 2 6.1524999999999990e+00 2.2023314693372832e+01 8.8728992728546174e+00 0 0 0
773 2 0.0000000000000000e+00 2.6996321237037659e+01 5.8119009131626447e+00 0 0 0
775 2 0.0000000000000000e+00 2.5575462224561992e+01 5.8119009131626447e+00 0 0 0
777 2 1.2305000000000001e+00 2.4865032718324155e+01 5.8119009131626447e+00 0 0 0
785 2 1.2305000000000010e+00 2.7706750743275496e+01 5.8119009131626447e+00 0 0 0
787 2 2.4610000000000003e+00 2.6996321237037659e+01 5.8119009131626447e+00 0 0 0
789 2 2.4610000000000003e+00 2.5575462224561992e+01 5.8119009131626447e+00 0 0 0
791 2 3.6914999999999996e+00 2.4865032718324166e+01 5.8119009131626447e+00 0 0 0
807 2 3.6914999999999996e+00 2.7706750743275496e+01 5.8119009131626447e+00 0 0 0
1088 2 0.0000000000000000e+00 2.5575462224561992e+01 8.8728992728546174e+00 0 0 0
1089 2 1.2305000000000001e+00 2.6285891730799833e+01 8.8728992728546174e+00 0 0 0
1093 2 1.2305000000000010e+00 2.7706750743275496e+01 8.8728992728546174e+00 0 0 0
1095 2 2.4610000000000003e+00 2.5575462224561992e+01 8.8728992728546174e+00 0 0 0
1096 2 3.6914999999999991e+00 2.6285891730799833e+01 8.8728992728546174e+00 0 0 0
1104 2 3.6914999999999996e+00 2.7706750743275496e+01 8.8728992728546174e+00 0 0 0
809 2 4.9220000000000006e+00 2.6996321237037659e+01 5.8119009131626447e+00 0 0 0
811 2 4.9220000000000006e+00 2.5575462224561992e+01 5.8119009131626447e+00 0 0 0
813 2 6.1524999999999990e+00 2.4865032718324155e+01 5.8119009131626447e+00 0 0 0
837 2 6.1524999999999990e+00 2.7706750743275496e+01 5.8119009131626447e+00 0 0 0
1106 2 4.9220000000000006e+00 2.5575462224561992e+01 8.8728992728546174e+00 0 0 0
1119 2 6.1524999999999990e+00 2.7706750743275496e+01 8.8728992728546174e+00 0 0 0
783 2 1.2304999999999993e+00 2.9127609755751163e+01 5.8119009131626447e+00 0 0 0
805 2 3.6914999999999991e+00 2.9127609755751152e+01 5.8119009131626447e+00 0 0 0
1087 2 0.0000000000000000e+00 2.8417180249513333e+01 8.8728992728546174e+00 0 0 0
1094 2 2.4610000000000003e+00 2.8417180249513326e+01 8.8728992728546174e+00 0 0 0
835 2 6.1524999999999981e+00 2.9127609755751152e+01 5.8119009131626447e+00 0 0 0
1105 2 4.9220000000000006e+00 2.8417180249513336e+01 8.8728992728546174e+00 0 0 0
1332 1 3.2066245988446171e+00 2.1177269287482861e+01 1.1966366837595256e+01 0 1 0
3917 1 4.9097272153853853e+00 2.3209950230243010e+01 1.1345205035522945e+01 -1 1 0
581 1 2.0026381959108264e+00 2.6644506616449782e+01 1.1239566478563763e+01 1 0 0
3434 1 4.4107887895920710e+00 2.5858731073321270e+01 1.1596884861282552e+01 1 1 0
3361 1 5.3632033217654307e-01 2.2037036112575933e+01 1.1752411083463716e+01 0 0 1
1422 1 1.3238517645172396e+00 2.9331311472617426e+01 1.1870446856066577e+01 1 0 0
3943 1 4.8942895515662785e+00 2.3014949436480563e+01 1.5672484644293016e+01 1 0 0
2648 1 3.2503344869466608e+00 2.1171068959879527e+01 1.4611967679192343e+01 0 1 -1
627 1 4.4394802754850380e+00 2.5658349033207440e+01 2.5371622091908286e+01 0 0 0
2590 1 5.0037983108604962e+00 2.3240070844610173e+01 1.8313429752853974e+01 1 0 -1
2661 1 7.3858932474903194e-01 2.2254978438935360e+01 1.7780920196936975e+01 0 0 0
1265 1 2.0783354500030864e+00 2.6400846226253737e+01 1.5216379351260784e+01 0 -1 -1
1379 1 4.4529910482554627e+00 2.5666131556108290e+01 1.4353815823010068e+01 0 -1 0
3370 1 1.7660498823142148e+00 2.6642326409289204e+01 1.8155231107911817e+01 0 0 -1
2003 1 3.7848616288681831e+00 2.8258875843826797e+01 2.5866354850940063e+01 0 0 0
1978 1 5.3426334262600044e+00 2.0658364564319047e+01 1.9178275072695929e+01 0 2 0
3353 1 5.5523701506236058e+00 2.0240926269946538e+01 2.1732776770732418e+01 1 0 -1
710 1 2.5851917684200427e+00 2.4054014972864554e+01 1.8950203574183863e+01 1 0 0
3885 1 2.3813991263452654e+00 2.3913411380872333e+01 2.1959082556627166e+01 1 -1 0
3996 1 3.1620250352278556e+00 2.1285862688967516e+01 2.2795598462687650e+01 0 1 0
3994 1 3.0655908277642947e+00 2.1239050816347678e+01 2.5534955906504990e+01 0 0 -1
559 1 4.2806277809001543e+00 2.5875358932365721e+01 2.2641707640793360e+01 0 0 0
4054 1 3.6645363662571744e+00 2.8502934032910407e+01 2.1885499844241462e+01 0 0 0
1240 1 3.7802301045750868e+00 2.8287213431325899e+01 1.9233267866793962e+01 1 0 0
1228 1 7.2772031586456321e-01 2.2349884553107167e+01 1.5086590736964400e+01 -1 -1 0
1314 1 2.5706809875193097e+00 2.3990563618136225e+01 2.6077294115088300e+01 0 1 0
719 1 5.5970720853407023e+00 2.0103447164495133e+01 2.6092179997529868e+01 1 1 0
1942 1 1.1621516591085486e+00 2.9168583924521741e+01 2.2335155609558015e+01 0 0 -1
15 1 1.5471449859228381e+00 2.9187587414995644e+01 1.4691022040782123e+01 0 -1 0
2061 1 1.5289682221697687e+00 2.9043432677223677e+01 2.5129559563122125e+01 0 0 -1
1363 1 1.0150427823531050e+00 1.9903471810597829e+01 1.9052871662941907e+01 0 0 0
1419 1 9.6494716929000512e-01 1.9890806356727840e+01 2.1642081884375212e+01 0 0 0
1976 1 1.9233974095769213e-03 2.4979617408120962e+01 1.4327057617742799e+01 0 0 0
780 2 0.0000000000000000e+00 2.9838039261988989e+01 2.7509025534786375e+00 0 0 0
782 2 1.2304999999999993e+00 3.0548468768226829e+01 2.7509025534786375e+00 0 0 0
802 2 2.4610000000000003e+00 2.9838039261988989e+01 2.7509025534786375e+00 0 0 0
804 2 3.6915000000000004e+00 3.0548468768226829e+01 2.7509025534786375e+00 0 0 0
832 2 4.9220000000000006e+00 2.9838039261988989e+01 2.7509025534786375e+00 0 0 0
778 2 0.0000000000000000e+00 3.2679757286940330e+01 2.7509025534786375e+00 0 0 0
794 2 0.0000000000000000e+00 3.4100616299415996e+01 2.7509025534786375e+00 0 0 0
798 2 1.2304999999999993e+00 3.1969327780702493e+01 2.7509025534786375e+00 0 0 0
800 2 2.4610000000000003e+00 3.2679757286940337e+01 2.7509025534786375e+00 0 0 0
824 2 2.4609999999999985e+00 3.4100616299415996e+01 2.7509025534786375e+00 0 0 0
828 2 3.6914999999999996e+00 3.1969327780702493e+01 2.7509025534786375e+00 0 0 0
830 2 4.9220000000000015e+00 3.2679757286940337e+01 2.7509025534786375e+00 0 0 0
862 2 4.9220000000000006e+00 3.4100616299415996e+01 2.7509025534786375e+00 0 0 0
796 2 1.2305000000000010e+00 3.4811045805653833e+01 2.7509025534786375e+00 0 0 0
826 2 3.6915000000000018e+00 3.4811045805653833e+01 2.7509025534786375e+00 0 0 0
792 2 0.0000000000000000e+00 3.6942334324367337e+01 2.7509025534786375e+00 0 0 0
816 2 0.0000000000000000e+00 3.8363193336842990e+01 2.7509025534786375e+00 0 0 0
820 2 1.2304999999999993e+00 3.6231904818129486e+01 2.7509025534786375e+00 0 0 0
822 2 2.4610000000000021e+00 3.6942334324367337e+01 2.7509025534786375e+00 0 0 0
854 2 2.4610000000000003e+00 3.8363193336842990e+01 2.7509025534786375e+00 0 0 0
858 2 3.6914999999999996e+00 3.6231904818129486e+01 2.7509025534786375e+00 0 0 0
860 2 4.9220000000000006e+00 3.6942334324367316e+01 2.7509025534786375e+00 0 0 0
899 2 4.9220000000000006e+00 3.8363193336842990e+01 2.7509025534786375e+00 0 0 0
818 2 1.2305000000000010e+00 3.9073622843080841e+01 2.7509025534786375e+00 0 0 0
856 2 3.6915000000000018e+00 3.9073622843080820e+01 2.7509025534786375e+00 0 0 0
779 2 0.0000000000000000e+00 3.1258898274464656e+01 5.8119009131626447e+00 0 0 0
781 2 0.0000000000000000e+00 2.9838039261988989e+01 5.8119009131626447e+00 0 0 0
801 2 2.4609999999999985e+00 3.1258898274464656e+01 5.8119009131626447e+00 0 0 0
803 2 2.4610000000000003e+00 2.9838039261988989e+01 5.8119009131626447e+00 0 0 0
1091 2 0.0000000000000000e+00 2.9838039261988989e+01 8.8728992728546174e+00 0 0 0
1092 2 1.2304999999999993e+00 3.0548468768226829e+01 8.8728992728546174e+00 0 0 0
1102 2 2.4610000000000003e+00 2.9838039261988989e+01 8.8728992728546174e+00 0 0 0
1103 2 3.6915000000000004e+00 3.0548468768226829e+01 8.8728992728546174e+00 0 0 0
831 2 4.9219999999999979e+00 3.1258898274464656e+01 5.8119009131626447e+00 0 0 0
833 2 4.9220000000000006e+00 2.9838039261988989e+01 5.8119009131626447e+00 0 0 0
1117 2 4.9220000000000006e+00 2.9838039261988989e+01 8.8728992728546174e+00 0 0 0
795 2 0.0000000000000000e+00 3.4100616299415996e+01 5.8119009131626447e+00 0 0 0
797 2 1.2304999999999993e+00 3.3390186793178160e+01 5.8119009131626447e+00 0 0 0
799 2 1.2304999999999993e+00 3.1969327780702493e+01 5.8119009131626447e+00 0 0 0
825 2 2.4609999999999985e+00 3.4100616299415996e+01 5.8119009131626447e+00 0 0 0
827 2 3.6914999999999978e+00 3.3390186793178160e+01 5.8119009131626447e+00 0 0 0
829 2 3.6914999999999996e+00 3.1969327780702493e+01 5.8119009131626447e+00 0 0 0
1090 2 0.0000000000000000e+00 3.2679757286940330e+01 8.8728992728546174e+00 0 0 0
1098 2 0.0000000000000000e+00 3.4100616299415996e+01 8.8728992728546174e+00 0 0 0
1100 2 1.2304999999999993e+00 3.1969327780702493e+01 8.8728992728546174e+00 0 0 0