LAMMPS data file via write_data, version 16 Mar 2018, timestep = 100000

4055 atoms
2 atom types

0.0000000000000000e+00 4.9219999999999999e+01 xlo xhi
0.0000000000000000e+00 4.9019635930410494e+01 ylo yhi
1.7437453283758604e+00 2.6196254671624040e+01 zlo zhi

Masses

1 18.015
2 12.01

Atoms # atomic

53 2 0.0000000000000000e+00 2.8417180249513345e+00 3.2848552373486308e+00 0 0 0
55 2 0.0000000000000000e+00 0.0000000000000000e+00 3.2848552373486308e+00 0 0 0
57 2 1.2305000000000001e+00 7.1042950623783474e-01 3.2848552373486308e+00 0 0 0
64 2 1.2305000000000001e+00 2.1312885187134998e+00 3.2848552373486308e+00 0 0 0
66 2 2.4610000000000003e+00 2.8417180249513345e+00 3.2848552373486308e+00 0 0 0
68 2 2.4610000000000003e+00 0.0000000000000000e+00 3.2848552373486308e+00 0 0 0
70 2 3.6915000000000004e+00 7.1042950623783474e-01 3.2848552373486308e+00 0 0 0
85 2 3.6914999999999996e+00 2.1312885187134998e+00 3.2848552373486308e+00 0 0 0
87 2 4.9220000000000006e+00 2.8417180249513332e+00 3.2848552373486308e+00 0 0 0
89 2 4.9220000000000006e+00 0.0000000000000000e+00 3.2848552373486308e+00 0 0 0
60 2 0.0000000000000000e+00 4.2625770374269996e+00 3.2848552373486308e+00 0 0 0
81 2 2.4610000000000003e+00 4.2625770374269996e+00 3.2848552373486308e+00 0 0 0
110 2 4.9220000000000006e+00 4.2625770374269978e+00 3.2848552373486308e+00 0 0 0
62 2 1.2305000000000001e+00 4.9730065436648339e+00 3.2848552373486308e+00 0 0 0
77 2 1.2305000000000001e+00 6.3938655561404980e+00 3.2848552373486308e+00 0 0 0
83 2 3.6914999999999996e+00 4.9730065436648339e+00 3.2848552373486308e+00 0 0 0
106 2 3.6914999999999996e+00 6.3938655561404980e+00 3.2848552373486308e+00 0 0 0
58 2 0.0000000000000000e+00 7.1042950623783341e+00 3.2848552373486308e+00 0 0 0
73 2 0.0000000000000000e+00 8.5251540748539991e+00 3.2848552373486308e+00 0 0 0
75 2 1.2305000000000001e+00 9.2355835810918343e+00 3.2848552373486308e+00 0 0 0
79 2 2.4610000000000003e+00 7.1042950623783341e+00 3.2848552373486308e+00 0 0 0
102 2 2.4610000000000003e+00 8.5251540748539991e+00 3.2848552373486308e+00 0 0 0
104 2 3.6915000000000004e+00 9.2355835810918343e+00 3.2848552373486308e+00 0 0 0
108 2 4.9220000000000006e+00 7.1042950623783341e+00 3.2848552373486308e+00 0 0 0
139 2 4.9220000000000006e+00 8.5251540748539991e+00 3.2848552373486308e+00 0 0 0
54 2 0.0000000000000000e+00 1.4208590124756650e+00 6.2001709075618558e+00 0 0 0
56 2 0.0000000000000000e+00 0.0000000000000000e+00 6.2001709075618558e+00 0 0 0
65 2 1.2305000000000001e+00 2.1312885187134998e+00 6.2001709075618558e+00 0 0 0
67 2 2.4610000000000003e+00 1.4208590124756650e+00 6.2001709075618558e+00 0 0 0
69 2 2.4610000000000003e+00 0.0000000000000000e+00 6.2001709075618558e+00 0 0 0
86 2 3.6914999999999996e+00 2.1312885187134998e+00 6.2001709075618558e+00 0 0 0
382 2 0.0000000000000000e+00 2.8417180249513345e+00 9.1154865777749379e+00 0 0 0
383 2 0.0000000000000000e+00 0.0000000000000000e+00 9.1154865777749379e+00 0 0 0
384 2 1.2305000000000001e+00 7.1042950623783474e-01 9.1154865777749379e+00 0 0 0
388 2 1.2305000000000001e+00 2.1312885187134998e+00 9.1154865777749379e+00 0 0 0
389 2 2.4610000000000003e+00 2.8417180249513345e+00 9.1154865777749379e+00 0 0 0
390 2 2.4610000000000003e+00 0.0000000000000000e+00 9.1154865777749379e+00 0 0 0
391 2 3.6915000000000004e+00 7.1042950623783474e-01 9.1154865777749379e+00 0 0 0
399 2 3.6914999999999996e+00 2.1312885187134998e+00 9.1154865777749379e+00 0 0 0
88 2 4.9220000000000006e+00 1.4208590124756650e+00 6.2001709075618558e+00 0 0 0
90 2 4.9220000000000006e+00 0.0000000000000000e+00 6.2001709075618558e+00 0 0 0
400 2 4.9220000000000006e+00 2.8417180249513332e+00 9.1154865777749379e+00 0 0 0
401 2 4.9220000000000006e+00 0.0000000000000000e+00 9.1154865777749379e+00 0 0 0
61 2 0.0000000000000000e+00 4.2625770374269996e+00 6.2001709075618558e+00 0 0 0
63 2 1.2305000000000001e+00 3.5521475311891644e+00 6.2001709075618558e+00 0 0 0
82 2 2.4610000000000003e+00 4.2625770374269996e+00 6.2001709075618558e+00 0 0 0
84 2 3.6914999999999996e+00 3.5521475311891644e+00 6.2001709075618558e+00 0 0 0
386 2 0.0000000000000000e+00 4.2625770374269996e+00 9.1154865777749379e+00 0 0 0
397 2 2.4610000000000003e+00 4.2625770374269996e+00 9.1154865777749379e+00 0 0 0
111 2 4.9220000000000006e+00 4.2625770374269978e+00 6.2001709075618558e+00 0 0 0
412 2 4.9220000000000006e+00 4.2625770374269978e+00 9.1154865777749379e+00 0 0 0
59 2 0.0000000000000000e+00 5.6834360499026637e+00 6.2001709075618558e+00 0 0 0
78 2 1.2305000000000001e+00 6.3938655561404980e+00 6.2001709075618558e+00 0 0 0
80 2 2.4610000000000003e+00 5.6834360499026637e+00 6.2001709075618558e+00 0 0 0
107 2 3.6914999999999996e+00 6.3938655561404980e+00 6.2001709075618558e+00 0 0 0
387 2 1.2305000000000001e+00 4.9730065436648339e+00 9.1154865777749379e+00 0 0 0
395 2 1.2305000000000001e+00 6.3938655561404980e+00 9.1154865777749379e+00 0 0 0
398 2 3.6914999999999996e+00 4.9730065436648339e+00 9.1154865777749379e+00 0 0 0
410 2 3.6914999999999996e+00 6.3938655561404980e+00 9.1154865777749379e+00 0 0 0
109 2 4.9220000000000006e+00 5.6834360499026637e+00 6.2001709075618558e+00 0 0 0
74 2 0.0000000000000000e+00 8.5251540748539991e+00 6.2001709075618558e+00 0 0 0
76 2 1.2305000000000001e+00 7.8147245686161639e+00 6.2001709075618558e+00 0 0 0
103 2 2.4610000000000003e+00 8.5251540748539991e+00 6.2001709075618558e+00 0 0 0
105 2 3.6914999999999996e+00 7.8147245686161639e+00 6.2001709075618558e+00 0 0 0
385 2 0.0000000000000000e+00 7.1042950623783341e+00 9.1154865777749379e+00 0 0 0
393 2 0.0000000000000000e+00 8.5251540748539991e+00 9.1154865777749379e+00 0 0 0
394 2 1.2305000000000001e+00 9.2355835810918343e+00 9.1154865777749379e+00 0 0 0
396 2 2.4610000000000003e+00 7.1042950623783341e+00 9.1154865777749379e+00 0 0 0
408 2 2.4610000000000003e+00 8.5251540748539991e+00 9.1154865777749379e+00 0 0 0
409 2 3.6915000000000004e+00 9.2355835810918343e+00 9.1154865777749379e+00 0 0 0
140 2 4.9220000000000006e+00 8.5251540748539991e+00 6.2001709075618558e+00 0 0 0
411 2 4.9220000000000006e+00 7.1042950623783341e+00 9.1154865777749379e+00 0 0 0
427 2 4.9220000000000006e+00 8.5251540748539991e+00 9.1154865777749379e+00 0 0 0
721 1 5.0098521768709352e+00 3.1281732784157392e+00 1.1823628841063156e+01 0 1 0
2624 1 2.0258808709867990e+00 2.6544409888416678e+00 1.1428840942251679e+01 1 0 0
764 1 1.2880747143214140e+00 5.5324829087445258e+00 1.1599132454697454e+01 0 1 0
2629 1 1.7176382549964939e+00 8.3081515248673430e+00 1.1484211565929499e+01 1 1 -1
4009 1 4.6326508630229117e+00 8.8179114440633821e+00 1.2182607273267042e+01 0 1 -1
4033 1 5.1508376644205303e+00 2.6340592433481952e-01 1.1661525390307473e+01 1 0 0
3888 1 1.8190114728954196e+00 8.9272397490141611e+00 1.9101484769694295e+01 -1 1 0
1979 1 4.0762456663543620e+00 3.8565394123659096e+00 1.4592353129498600e+01 1 0 0
662 1 2.5100991590755894e-01 8.3942396152074625e+00 2.1619338833313179e+01 1 1 0
2113 1 4.3986975351447100e-01 4.3776148815470117e+00 1.8219129872319215e+01 0 1 -1
3268 1 2.4902391073282342e+00 2.2310378423087474e+00 1.8720426638230620e+01 1 1 0
687 1 2.7520460563597737e+00 7.8953555615660109e+00 2.5063970559298994e+01 1 -1 0
590 1 5.7598865453941173e+00 8.8259978545030933e+00 1.5024397923611195e+01 1 1 0
3306 1 2.5775434009863223e+00 8.0928641864828457e+00 1.4253146787117739e+01 0 0 0
645 1 4.1828897740307811e+00 7.2913513547839237e+00 1.7018891155223741e+01 1 1 0
3390 1 5.6677365636451915e+00 5.6980347128187319e+00 1.9154060177902743e+01 1 0 0
1400 1 2.6545778986837743e+00 3.9061017570028920e+00 2.1068014623635001e+01 1 1 0
663 1 4.3893276713382390e+00 1.1875051357301622e-01 2.1142387040971286e+01 0 0 0
5 1 5.2031953963883817e+00 2.6011549757396559e+00 2.2351962001351637e+01 1 0 0
550 1 1.1922213906049988e+00 6.8086746716306008e+00 1.6849466354756142e+01 0 0 0
1230 1 2.9223409563858165e+00 8.7132220706072676e+00 2.2346004535342445e+01 0 0 1
3278 1 4.6700512146612621e+00 6.7310559544968718e-01 1.4532490240938211e+01 1 0 -1
4003 1 4.6416124111562755e+00 3.5723785707148217e+00 1.7440461161218128e+01 0 1 1
1368 1 5.4497489346105921e+00 2.6919008700337814e+00 2.5392019121660589e+01 0 0 0
2658 1 4.2119534183214515e+00 6.2705747970276384e+00 2.1835956039302509e+01 1 0 0
1424 1 2.4535661050614248e+00 3.5183922452869725e+00 2.5405792847430781e+01 1 0 0
2574 1 8.8891614786249451e-01 2.1408820464293252e+00 2.2233023286193315e+01 0 1 1
3995 1 2.0570649315662395e-01 5.7436900127508324e+00 2.0712617614888714e+01 1 0 0
2040 1 4.6443560969327171e+00 5.5442570880977078e+00 2.4773926904295330e+01 0 0 0
2687 1 1.3237621776604187e+00 1.2170378484203430e+00 2.4753088581091617e+01 1 0 0
3294 1 1.7511080448832970e+00 5.2160238013839892e+00 1.4372501153887026e+01 -1 0 0
2035 1 2.3080101328653724e-01 7.9925503020793585e+00 2.4435085503290296e+01 2 0 0
677 1 3.9800765011065344e+00 2.8931444890898023e-01 2.5451235585842753e+01 1 1 0
538 1 2.0264134242280356e+00 1.6483982572425449e+00 1.4253539192360021e+01 1 0 -1
3399 1 1.5737853296343474e-01 5.3095903917949965e+00 2.4700244427825709e+01 1 1 -2
1949 1 5.0417903858982918e+00 2.0021609701922927e-01 1.8634579801721316e+01 0 1 -1
71 2 0.0000000000000000e+00 1.1366872099805333e+01 3.2848552373486308e+00 0 0 0
94 2 0.0000000000000000e+00 1.2787731112280996e+01 3.2848552373486308e+00 0 0 0
96 2 1.2305000000000001e+00 1.3498160618518829e+01 3.2848552373486308e+00 0 0 0
98 2 1.2305000000000001e+00 1.0656442593567498e+01 3.2848552373486308e+00 0 0 0
100 2 2.4610000000000003e+00 1.1366872099805333e+01 3.2848552373486308e+00 0 0 0
131 2 2.4610000000000003e+00 1.2787731112280996e+01 3.2848552373486308e+00 0 0 0
133 2 3.6915000000000004e+00 1.3498160618518829e+01 3.2848552373486308e+00 0 0 0
135 2 3.6914999999999996e+00 1.0656442593567499e+01 3.2848552373486308e+00 0 0 0
137 2 4.9220000000000006e+00 1.1366872099805333e+01 3.2848552373486308e+00 0 0 0
176 2 4.9220000000000006e+00 1.2787731112280996e+01 3.2848552373486308e+00 0 0 0
178 2 6.1524999999999990e+00 1.3498160618518829e+01 3.2848552373486308e+00 0 0 0
92 2 0.0000000000000000e+00 1.5629449137232333e+01 3.2848552373486308e+00 0 0 0
123 2 0.0000000000000000e+00 1.7050308149707998e+01 3.2848552373486308e+00 0 0 0
127 2 1.2305000000000001e+00 1.4919019630994494e+01 3.2848552373486308e+00 0 0 0
129 2 2.4610000000000003e+00 1.5629449137232328e+01 3.2848552373486308e+00 0 0 0
168 2 2.4610000000000003e+00 1.7050308149707998e+01 3.2848552373486308e+00 0 0 0
172 2 3.6915000000000004e+00 1.4919019630994494e+01 3.2848552373486308e+00 0 0 0
174 2 4.9220000000000006e+00 1.5629449137232333e+01 3.2848552373486308e+00 0 0 0
215 2 4.9220000000000006e+00 1.7050308149707998e+01 3.2848552373486308e+00 0 0 0
219 2 6.1524999999999990e+00 1.4919019630994494e+01 3.2848552373486308e+00 0 0 0
125 2 1.2305000000000001e+00 1.7760737655945832e+01 3.2848552373486308e+00 0 0 0
164 2 1.2305000000000001e+00 1.9181596668421495e+01 3.2848552373486308e+00 0 0 0
170 2 3.6914999999999996e+00 1.7760737655945832e+01 3.2848552373486308e+00 0 0 0
211 2 3.6914999999999996e+00 1.9181596668421495e+01 3.2848552373486308e+00 0 0 0
72 2 0.0000000000000000e+00 9.9460130873296642e+00 6.2001709075618558e+00 0 0 0
101 2 2.4610000000000003e+00 9.9460130873296642e+00 6.2001709075618558e+00 0 0 0
138 2 4.9220000000000006e+00 9.9460130873296642e+00 6.2001709075618558e+00 0 0 0
95 2 0.0000000000000000e+00 1.2787731112280996e+01 6.2001709075618558e+00 0 0 0
97 2 1.2305000000000001e+00 1.2077301606043163e+01 6.2001709075618558e+00 0 0 0
99 2 1.2305000000000001e+00 1.0656442593567498e+01 6.2001709075618558e+00 0 0 0
132 2 2.4610000000000003e+00 1.2787731112280996e+01 6.2001709075618558e+00 0 0 0
134 2 3.6914999999999996e+00 1.2077301606043163e+01 6.2001709075618558e+00 0 0 0
136 2 3.6914999999999996e+00 1.0656442593567499e+01 6.2001709075618558e+00 0 0 0
392 2 0.0000000000000000e+00 1.1366872099805333e+01 9.1154865777749379e+00 0 0 0
404 2 0.0000000000000000e+00 1.2787731112280996e+01 9.1154865777749379e+00 0 0 0
405 2 1.2305000000000001e+00 1.3498160618518829e+01 9.1154865777749379e+00 0 0 0
406 2 1.2305000000000001e+00 1.0656442593567498e+01 9.1154865777749379e+00 0 0 0
407 2 2.4610000000000003e+00 1.1366872099805333e+01 9.1154865777749379e+00 0 0 0
423 2 2.4610000000000003e+00 1.2787731112280996e+01 9.1154865777749379e+00 0 0 0
424 2 3.6915000000000004e+00 1.3498160618518829e+01 9.1154865777749379e+00 0 0 0
425 2 3.6914999999999996e+00 1.0656442593567499e+01 9.1154865777749379e+00 0 0 0
177 2 4.9220000000000006e+00 1.2787731112280996e+01 6.2001709075618558e+00 0 0 0
426 2 4.9220000000000006e+00 1.1366872099805333e+01 9.1154865777749379e+00 0 0 0
446 2 4.9220000000000006e+00 1.2787731112280996e+01 9.1154865777749379e+00 0 0 0
447 2 6.1524999999999990e+00 1.3498160618518829e+01 9.1154865777749379e+00 0 0 0
93 2 0.0000000000000000e+00 1.4208590124756663e+01 6.2001709075618558e+00 0 0 0
130 2 2.4610000000000003e+00 1.4208590124756663e+01 6.2001709075618558e+00 0 0 0
175 2 4.9220000000000006e+00 1.4208590124756663e+01 6.2001709075618558e+00 0 0 0
124 2 0.0000000000000000e+00 1.7050308149707998e+01 6.2001709075618558e+00 0 0 0
126 2 1.2305000000000001e+00 1.6339878643470165e+01 6.2001709075618558e+00 0 0 0
128 2 1.2305000000000001e+00 1.4919019630994494e+01 6.2001709075618558e+00 0 0 0
169 2 2.4610000000000003e+00 1.7050308149707998e+01 6.2001709075618558e+00 0 0 0
171 2 3.6915000000000004e+00 1.6339878643470165e+01 6.2001709075618558e+00 0 0 0
173 2 3.6915000000000004e+00 1.4919019630994494e+01 6.2001709075618558e+00 0 0 0
403 2 0.0000000000000000e+00 1.5629449137232333e+01 9.1154865777749379e+00 0 0 0
419 2 0.0000000000000000e+00 1.7050308149707998e+01 9.1154865777749379e+00 0 0 0
421 2 1.2305000000000001e+00 1.4919019630994494e+01 9.1154865777749379e+00 0 0 0
422 2 2.4610000000000003e+00 1.5629449137232328e+01 9.1154865777749379e+00 0 0 0
442 2 2.4610000000000003e+00 1.7050308149707998e+01 9.1154865777749379e+00 0 0 0
444 2 3.6915000000000004e+00 1.4919019630994494e+01 9.1154865777749379e+00 0 0 0
216 2 4.9220000000000006e+00 1.7050308149707998e+01 6.2001709075618558e+00 0 0 0
220 2 6.1524999999999990e+00 1.4919019630994494e+01 6.2001709075618558e+00 0 0 0
445 2 4.9220000000000006e+00 1.5629449137232333e+01 9.1154865777749379e+00 0 0 0
466 2 4.9220000000000006e+00 1.7050308149707998e+01 9.1154865777749379e+00 0 0 0
468 2 6.1524999999999990e+00 1.4919019630994494e+01 9.1154865777749379e+00 0 0 0
122 2 0.0000000000000000e+00 1.8471167162183658e+01 6.2001709075618558e+00 0 0 0
165 2 1.2305000000000001e+00 1.9181596668421495e+01 6.2001709075618558e+00 0 0 0
167 2 2.4610000000000003e+00 1.8471167162183658e+01 6.2001709075618558e+00 0 0 0
212 2 3.6914999999999996e+00 1.9181596668421495e+01 6.2001709075618558e+00 0 0 0
420 2 1.2305000000000001e+00 1.7760737655945832e+01 9.1154865777749379e+00 0 0 0
440 2 1.2305000000000001e+00 1.9181596668421495e+01 9.1154865777749379e+00 0 0 0
443 2 3.6914999999999996e+00 1.7760737655945832e+01 9.1154865777749379e+00 0 0 0
464 2 3.6914999999999996e+00 1.9181596668421495e+01 9.1154865777749379e+00 0 0 0
214 2 4.9220000000000006e+00 1.8471167162183658e+01 6.2001709075618558e+00 0 0 0
3401 1 2.3742545075155954e+00 1.4523459481292635e+01 1.2108082530026229e+01 1 0 -1
3272 1 5.0375994669546635e+00 1.3675511036546375e+01 1.2180368676748497e+01 1 0 1
2661 1 1.8352403522007048e+00 1.7233553225168560e+01 1.1618614444107248e+01 0 0 0
1316 1 3.4799423621387455e+00 1.9232032001424106e+01 1.1584472467159499e+01 0 2 0
540 1 5.7727293353060434e+00 1.1248223046772052e+01 1.1472682630666009e+01 0 0 0
2754 1 3.4118814231456424e-01 1.2687182138061390e+01 1.1458052887650760e+01 0 0 -1
1229 1 1.9139290999719498e+00 1.4022852597297158e+01 1.4900153447128680e+01 0 -1 -1
1273 1 5.0198952012705877e+00 1.4434738054781397e+01 2.5180106601930817e+01 0 0 0
742 1 4.2997731363045357e+00 1.0027417168141367e+01 1.7908401297174848e+01 0 0 0
4050 1 2.0042763795263969e+00 1.8668787405938861e+01 1.7723647663302710e+01 -1 0 -1
635 1 2.3270866820893025e-03 1.3927146485654321e+01 2.1120625391184305e+01 0 1 0
2652 1 9.3145385350038779e-01 1.6220915246032174e+01 1.6132655693303256e+01 0 0 0
4053 1 2.0565267137404666e+00 1.8580919119172968e+01 1.4626464695274494e+01 0 0 -1
2011 1 4.2406398632868845e+00 1.0368926467348022e+01 2.5183488019589888e+01 0 0 0
574 1 2.8054897861072416e+00 1.4217232381788556e+01 1.8231469610668547e+01 0 0 0
3350 1 2.8662943978263771e+00 1.2807213080774735e+01 2.4471350907485920e+01 1 0 0
2708 1 4.7354624481995895e+00 1.2558128739942717e+01 1.9597000084627332e+01 0 1 0
740 1 4.8408749301578053e+00 1.1123955556379826e+01 2.2137735236571835e+01 1 1 -1
3317 1 2.7318239428562170e+00 1.3626424270937100e+01 2.1787374717178480e+01 2 0 0
542 1 4.0800156950625155e+00 1.6789961573704712e+01 1.7880577349547757e+01 0 0 0
1981 1 1.8199012350654609e+00 1.7451511448635603e+01 2.2437476333462342e+01 0 -1 -1
4030 1 4.3379439374370863e+00 1.6963780219776584e+01 2.5301214953934483e+01 1 -1 1
4 1 3.9507023969255113e+00 1.2306425948917143e+01 1.6318667647749294e+01 -1 1 0
3391 1 3.6829058906781280e+00 1.6255074438448677e+01 2.0781715213556673e+01 0 1 0
3937 1 1.8214642985173353e+00 1.8211766888976303e+01 2.5107696281885843e+01 0 0 -1
1928 1 5.9604824212501342e+00 1.7647854014734069e+01 2.1249232223546507e+01 1 0 -1
759 1 7.6965357601920914e-02 1.3848257835288464e+01 2.4901149151343887e+01 0 0 0
1269 1 2.4957282818755289e-01 1.3728846569210496e+01 1.8318406799816330e+01 0 0 -1
561 1 1.9717739900784181e-02 1.0823482483070276e+01 1.7658843164684793e+01 0 0 -1
669 1 2.3982018334888977e-01 9.8242593839452397e+00 1.5127149975877169e+01 0 0 0
121 2 0.0000000000000000e+00 1.9892026174659328e+01 3.2848552373486308e+00 0 0 0
166 2 2.4610000000000003e+00 1.9892026174659328e+01 3.2848552373486308e+00 0 0 0
213 2 4.9220000000000006e+00 1.9892026174659328e+01 3.2848552373486308e+00 0 0 0
158 2 0.0000000000000000e+00 2.4154603212086325e+01 3.2848552373486308e+00 0 0 0
160 2 0.0000000000000000e+00 2.1312885187134999e+01 3.2848552373486308e+00 0 0 0
162 2 1.2304999999999993e+00 2.2023314693372832e+01 3.2848552373486308e+00 0 0 0
203 2 1.2304999999999993e+00 2.3444173705848499e+01 3.2848552373486308e+00 0 0 0
205 2 2.4610000000000003e+00 2.4154603212086325e+01 3.2848552373486308e+00 0 0 0
207 2 2.4610000000000003e+00 2.1312885187134995e+01 3.2848552373486308e+00 0 0 0
209 2 3.6914999999999996e+00 2.2023314693372832e+01 3.2848552373486308e+00 0 0 0
250 2 3.6915000000000004e+00 2.3444173705848499e+01 3.2848552373486308e+00 0 0 0
252 2 4.9220000000000006e+00 2.4154603212086325e+01 3.2848552373486308e+00 0 0 0
254 2 4.9220000000000006e+00 2.1312885187134995e+01 3.2848552373486308e+00 0 0 0
256 2 6.1524999999999990e+00 2.2023314693372832e+01 3.2848552373486308e+00 0 0 0
774 2 0.0000000000000000e+00 2.5575462224561992e+01 3.2848552373486308e+00 0 0 0
776 2 1.2305000000000001e+00 2.6285891730799833e+01 3.2848552373486308e+00 0 0 0
784 2 1.2305000000000010e+00 2.7706750743275496e+01 3.2848552373486308e+00 0 0 0
788 2 2.4610000000000003e+00 2.5575462224561992e+01 3.2848552373486308e+00 0 0 0
790 2 3.6914999999999991e+00 2.6285891730799833e+01 3.2848552373486308e+00 0 0 0
806 2 3.6914999999999996e+00 2.7706750743275496e+01 3.2848552373486308e+00 0 0 0
810 2 4.9220000000000006e+00 2.5575462224561992e+01 3.2848552373486308e+00 0 0 0
836 2 6.1524999999999990e+00 2.7706750743275496e+01 3.2848552373486308e+00 0 0 0
772 2 0.0000000000000000e+00 2.8417180249513333e+01 3.2848552373486308e+00 0 0 0
786 2 2.4610000000000003e+00 2.8417180249513326e+01 3.2848552373486308e+00 0 0 0
808 2 4.9220000000000006e+00 2.8417180249513336e+01 3.2848552373486308e+00 0 0 0
163 2 1.2305000000000001e+00 2.0602455680897162e+01 6.2001709075618558e+00 0 0 0
210 2 3.6915000000000004e+00 2.0602455680897162e+01 6.2001709075618558e+00 0 0 0
418 2 0.0000000000000000e+00 1.9892026174659328e+01 9.1154865777749379e+00 0 0 0
441 2 2.4610000000000003e+00 1.9892026174659328e+01 9.1154865777749379e+00 0 0 0
465 2 4.9220000000000006e+00 1.9892026174659328e+01 9.1154865777749379e+00 0 0 0
159 2 0.0000000000000000e+00 2.2733744199610655e+01 6.2001709075618558e+00 0 0 0
161 2 0.0000000000000000e+00 2.1312885187134999e+01 6.2001709075618558e+00 0 0 0
204 2 1.2304999999999993e+00 2.3444173705848499e+01 6.2001709075618558e+00 0 0 0
206 2 2.4610000000000003e+00 2.2733744199610655e+01 6.2001709075618558e+00 0 0 0
208 2 2.4610000000000003e+00 2.1312885187134995e+01 6.2001709075618558e+00 0 0 0
251 2 3.6915000000000004e+00 2.3444173705848499e+01 6.2001709075618558e+00 0 0 0
437 2 0.0000000000000000e+00 2.4154603212086325e+01 9.1154865777749379e+00 0 0 0
438 2 0.0000000000000000e+00 2.1312885187134999e+01 9.1154865777749379e+00 0 0 0
439 2 1.2304999999999993e+00 2.2023314693372832e+01 9.1154865777749379e+00 0 0 0
460 2 1.2304999999999993e+00 2.3444173705848499e+01 9.1154865777749379e+00 0 0 0
461 2 2.4610000000000003e+00 2.4154603212086325e+01 9.1154865777749379e+00 0 0 0
462 2 2.4610000000000003e+00 2.1312885187134995e+01 9.1154865777749379e+00 0 0 0
463 2 3.6914999999999996e+00 2.2023314693372832e+01 9.1154865777749379e+00 0 0 0
484 2 3.6915000000000004e+00 2.3444173705848499e+01 9.1154865777749379e+00 0 0 0
253 2 4.9220000000000006e+00 2.2733744199610655e+01 6.2001709075618558e+00 0 0 0
255 2 4.9220000000000006e+00 2.1312885187134995e+01 6.2001709075618558e+00 0 0 0
485 2 4.9220000000000006e+00 2.4154603212086325e+01 9.1154865777749379e+00 0 0 0
486 2 4.9220000000000006e+00 2.1312885187134995e+01 9.1154865777749379e+00 0 0 0
487 2 6.1524999999999990e+00 2.2023314693372832e+01 9.1154865777749379e+00 0 0 0
773 2 0.0000000000000000e+00 2.6996321237037659e+01 6.2001709075618558e+00 0 0 0
775 2 0.0000000000000000e+00 2.5575462224561992e+01 6.2001709075618558e+00 0 0 0
777 2 1.2305000000000001e+00 2.4865032718324155e+01 6.2001709075618558e+00 0 0 0
785 2 1.2305000000000010e+00 2.7706750743275496e+01 6.2001709075618558e+00 0 0 0
787 2 2.4610000000000003e+00 2.6996321237037659e+01 6.2001709075618558e+00 0 0 0
789 2 2.4610000000000003e+00 2.5575462224561992e+01 6.2001709075618558e+00 0 0 0
791 2 3.6914999999999996e+00 2.4865032718324166e+01 6.2001709075618558e+00 0 0 0
807 2 3.6914999999999996e+00 2.7706750743275496e+01 6.2001709075618558e+00 0 0 0
1088 2 0.0000000000000000e+00 2.5575462224561992e+01 9.1154865777749379e+00 0 0 0
1089 2 1.2305000000000001e+00 2.6285891730799833e+01 9.1154865777749379e+00 0 0 0
1093 2 1.2305000000000010e+00 2.7706750743275496e+01 9.1154865777749379e+00 0 0 0
1095 2 2.4610000000000003e+00 2.5575462224561992e+01 9.1154865777749379e+00 0 0 0
1096 2 3.6914999999999991e+00 2.6285891730799833e+01 9.1154865777749379e+00 0 0 0
1104 2 3.6914999999999996e+00 2.7706750743275496e+01 9.1154865777749379e+00 0 0 0
809 2 4.9220000000000006e+00 2.6996321237037659e+01 6.2001709075618558e+00 0 0 0
811 2 4.9220000000000006e+00 2.5575462224561992e+01 6.2001709075618558e+00 0 0 0
813 2 6.1524999999999990e+00 2.4865032718324155e+01 6.2001709075618558e+00 0 0 0
837 2 6.1524999999999990e+00 2.7706750743275496e+01 6.2001709075618558e+00 0 0 0
1106 2 4.9220000000000006e+00 2.5575462224561992e+01 9.1154865777749379e+00 0 0 0
1119 2 6.1524999999999990e+00 2.7706750743275496e+01 9.1154865777749379e+00 0 0 0
783 2 1.2304999999999993e+00 2.9127609755751163e+01 6.2001709075618558e+00 0 0 0
805 2 3.6914999999999991e+00 2.9127609755751152e+01 6.2001709075618558e+00 0 0 0
1087 2 0.0000000000000000e+00 2.8417180249513333e+01 9.1154865777749379e+00 0 0 0
1094 2 2.4610000000000003e+00 2.8417180249513326e+01 9.1154865777749379e+00 0 0 0
835 2 6.1524999999999981e+00 2.9127609755751152e+01 6.2001709075618558e+00 0 0 0
1105 2 4.9220000000000006e+00 2.8417180249513336e+01 9.1154865777749379e+00 0 0 0
1423 1 4.1933744080038542e+00 2.5479142504748872e+01 1.1281490867396021e+01 0 0 0
705 1 1.7626453593845601e+00 2.1715410882421132e+01 1.1648032297285143e+01 0 0 0
2685 1 4.4213553993182666e+00 2.2671300861582043e+01 1.1956260899316792e+01 0 -1 0
1287 1 1.4486432366632220e+00 2.6291583647567887e+01 1.2107408732085675e+01 0 0 1
729 1 2.4704267371102654e-02 2.3804180162156957e+01 1.2058180221810602e+01 0 1 0
2580 1 3.3240972697401455e-01 2.0441554910917048e+01 1.3846492249744767e+01 0 0 0
52 1 5.9176568065613875e+00 2.7834153404132604e+01 1.1598783176112338e+01 1 0 1
628 1 7.3810628953832758e-01 2.4885743631456041e+01 2.5356126309645767e+01 0 0 -1
602 1 4.2714652746497608e+00 2.3714894552505800e+01 1.4501629163362765e+01 1 1 -1
2077 1 9.2812873122751860e-01 2.4670547639351984e+01 2.1094538823526634e+01 1 0 0
700 1 6.2516191173854818e-01 2.7127442113958583e+01 1.4752182206519386e+01 0 0 0
3444 1 1.4734626071655157e+00 1.9715500068016482e+01 2.0493136428480298e+01 0 0 0
2604 1 2.3675783792559089e+00 2.3329582612758550e+01 1.6445570935308524e+01 0 -1 0
1433 1 2.6408650819898019e+00 2.6958889771826406e+01 2.5064825632022071e+01 1 -1 0
3994 1 3.3382542685793233e+00 2.5705798370455604e+01 1.8123137555652114e+01 0 0 -1
3895 1 5.7268708582761807e+00 2.4064539731864649e+01 1.8642355994221155e+01 1 0 1
3260 1 5.6670435232012624e+00 2.0335937251437361e+01 2.2081175678383339e+01 1 0 -1
736 1 3.6758330025112564e+00 2.0961317425581260e+01 1.7533376007385947e+01 1 0 1
2007 1 3.6513256867507113e+00 2.1313774153502131e+01 2.0282366949162132e+01 -1 0 0
1341 1 3.2713895794451937e+00 2.3381015466123579e+01 2.2102057759541132e+01 0 0 0
2014 1 9.9604989306472491e-01 2.0901257282972455e+01 2.4808384449417971e+01 0 0 0
2684 1 4.6381007490158277e+00 2.8116116714087330e+01 1.8985701465141865e+01 1 0 0
3951 1 5.7788154186309795e+00 2.6605587881398606e+01 2.5180248666559997e+01 0 0 0
3991 1 5.1793266323265232e+00 2.7012929359809011e+01 2.1597921009124647e+01 0 0 0
2597 1 2.2998235556761221e-01 2.4881995585696171e+01 1.8259812664381180e+01 1 0 0
4013 1 2.2837624384622308e+00 2.7039389409862206e+01 2.2210622793624808e+01 0 0 -1
2686 1 2.9819479471515842e+00 2.2677486689867518e+01 2.4859630588527253e+01 0 0 0
3352 1 3.2339469628484876e+00 2.7409939727305268e+01 1.5507901368469867e+01 1 0 -1
2749 1 5.4272401695822596e+00 2.6457019528117492e+01 1.4006994504466361e+01 1 0 0
688 1 4.3134566472344380e+00 2.0109797326625856e+01 1.4338030397325163e+01 1 -1 -1
2734 1 5.4244388665964776e+00 2.1174114640014917e+01 2.4875510756543314e+01 0 0 1
3253 1 5.7674846818226770e+00 2.2342476532607627e+01 1.6264856622089766e+01 1 -1 0
3894 1 5.8116128545241832e+00 2.4450437595731984e+01 2.1557553923405131e+01 1 0 0
3262 1 6.0308010583084721e+00 2.9406453016758405e+01 1.7047206964592860e+01 0 0 -1
780 2 0.0000000000000000e+00 2.9838039261988989e+01 3.2848552373486308e+00 0 0 0
782 2 1.2304999999999993e+00 3.0548468768226829e+01 3.2848552373486308e+00 0 0 0
802 2 2.4610000000000003e+00 2.9838039261988989e+01 3.2848552373486308e+00 0 0 0
804 2 3.6915000000000004e+00 3.0548468768226829e+01 3.2848552373486308e+00 0 0 0
832 2 4.9220000000000006e+00 2.9838039261988989e+01 3.2848552373486308e+00 0 0 0
778 2 0.0000000000000000e+00 3.2679757286940330e+01 3.2848552373486308e+00 0 0 0
794 2 0.0000000000000000e+00 3.4100616299415996e+01 3.2848552373486308e+00 0 0 0
798 2 1.2304999999999993e+00 3.1969327780702493e+01 3.2848552373486308e+00 0 0 0
800 2 2.4610000000000003e+00 3.2679757286940337e+01 3.2848552373486308e+00 0 0 0
824 2 2.4609999999999985e+00 3.4100616299415996e+01 3.2848552373486308e+00 0 0 0
828 2 3.6914999999999996e+00 3.1969327780702493e+01 3.2848552373486308e+00 0 0 0
830 2 4.9220000000000015e+00 3.2679757286940337e+01 3.2848552373486308e+00 0 0 0
862 2 4.9220000000000006e+00 3.4100616299415996e+01 3.2848552373486308e+00 0 0 0
796 2 1.2305000000000010e+00 3.4811045805653833e+01 3.2848552373486308e+00 0 0 0
826 2 3.6915000000000018e+00 3.4811045805653833e+01 3.2848552373486308e+00 0 0 0
792 2 0.0000000000000000e+00 3.6942334324367337e+01 3.2848552373486308e+00 0 0 0
816 2 0.0000000000000000e+00 3.8363193336842990e+01 3.2848552373486308e+00 0 0 0
820 2 1.2304999999999993e+00 3.6231904818129486e+01 3.2848552373486308e+00 0 0 0
822 2 2.4610000000000021e+00 3.6942334324367337e+01 3.2848552373486308e+00 0 0 0
854 2 2.4610000000000003e+00 3.8363193336842990e+01 3.2848552373486308e+00 0 0 0
858 2 3.6914999999999996e+00 3.6231904818129486e+01 3.2848552373486308e+00 0 0 0
860 2 4.9220000000000006e+00 3.6942334324367316e+01 3.2848552373486308e+00 0 0 0
899 2 4.9220000000000006e+00 3.8363193336842990e+01 3.2848552373486308e+00 0 0 0
818 2 1.2305000000000010e+00 3.9073622843080841e+01 3.2848552373486308e+00 0 0 0
856 2 3.6915000000000018e+00 3.9073622843080820e+01 3.2848552373486308e+00 0 0 0
779 2 0.0000000000000000e+00 3.1258898274464656e+01 6.2001709075618558e+00 0 0 0
781 2 0.0000000000000000e+00 2.9838039261988989e+01 6.2001709075618558e+00 0 0 0
801 2 2.4609999999999985e+00 3.1258898274464656e+01 6.2001709075618558e+00 0 0 0
803 2 2.4610000000000003e+00 2.9838039261988989e+01 6.2001709075618558e+00 0 0 0
1091 2 0.0000000000000000e+00 2.9838039261988989e+01 9.1154865777749379e+00 0 0 0
1092 2 1.2304999999999993e+00 3.0548468768226829e+01 9.1154865777749379e+00 0 0 0
1102 2 2.4610000000000003e+00 2.9838039261988989e+01 9.1154865777749379e+00 0 0 0
1103 2 3.6915000000000004e+00 3.0548468768226829e+01 9.1154865777749379e+00 0 0 0
831 2 4.9219999999999979e+00 3.1258898274464656e+01 6.2001709075618558e+00 0 0 0
833 2 4.9220000000000006e+00 2.9838039261988989e+01 6.2001709075618558e+00 0 0 0
1117 2 4.9220000000000006e+00 2.9838039261988989e+01 9.1154865777749379e+00 0 0 0
795 2 0.0000000000000000e+00 3.4100616299415996e+01 6.2001709075618558e+00 0 0 0
797 2 1.2304999999999993e+00 3.3390186793178160e+01 6.2001709075618558e+00 0 0 0
799 2 1.2304999999999993e+00 3.1969327780702493e+01 6.2001709075618558e+00 0 0 0
825 2 2.4609999999999985e+00 3.4100616299415996e+01 6.2001709075618558e+00 0 0 0
827 2 3.6914999999999978e+00 3.3390186793178160e+01 6.2001709075618558e+00 0 0 0
829 2 3.6914999999999996e+00 3.1969327780702493e+01 6.2001709075618558e+00 0 0 0
1090 2 0.0000000000000000e+00 3.2679757286940330e+01 9.1154865777749379e+00 0 0 0