
# Create simulation box and atoms

read_data data.ML_graphite_m500atm_240K
  orthogonal box = (0 0 1.84677) to (49.22 49.0196 26.0932)
  8 by 5 by 2 MPI processor grid
  reading atoms ...
  4055 atoms
  reading velocities ...
  4055 velocities
group water type 1
1295 atoms in group water
group graphite type 2
2760 atoms in group graphite

# Define potential

pair_style sw
pair_coeff * * MLC_e.sw mW C


# Fix graphite atoms in place

fix 5 graphite setforce 0.0 0.0 0.0
velocity graphite set 0.0 0.0 0.0


# Equilibration of molecular water

# Add velocity/set timestep

velocity	    water create ${TEMP} ${SEED} rot yes dist gaussian
velocity	    water create 240 ${SEED} rot yes dist gaussian
velocity	    water create 240 20035 rot yes dist gaussian
timestep	    5.0

# Define output

compute			1 water msd
compute			3 water temp
thermo	    	50
thermo_style	custom step temp press vol etotal ke pe c_1[4] c_3

# Neighbor lists

neigh_modify    delay 0 every 1 check yes

# Set fixes

fix             1 water momentum 10 linear 1 1 1 rescale
fix             2 water nve
fix             3 water temp/csvr ${TEMP} ${TEMP} 500.0 ${SEED}
fix             3 water temp/csvr 240 ${TEMP} 500.0 ${SEED}
fix             3 water temp/csvr 240 240 500.0 ${SEED}
fix             3 water temp/csvr 240 240 500.0 20035
fix             4 water press/berendsen z ${PRES} ${PRES} 1000.0 modulus 20000
fix             4 water press/berendsen z -500 ${PRES} 1000.0 modulus 20000
fix             4 water press/berendsen z -500 -500 1000.0 modulus 20000

# Run 0.5 ns equilibration

dump		    1 all atom 2000 ${DIR}/eq.${NAME}-${TEMP}.dump
dump		    1 all atom 2000 run_7/eq.${NAME}-${TEMP}.dump
dump		    1 all atom 2000 run_7/eq.het_freeze_7-${TEMP}.dump
dump		    1 all atom 2000 run_7/eq.het_freeze_7-240.dump

reset_timestep  0

run	            100000
Neighbor list info ...
  update every 1 steps, delay 0 steps, check yes
  max neighbors/atom: 2000, page size: 100000
  master list distance cutoff = 6.67472
  ghost atom cutoff = 6.67472
  binsize = 3.33736, bins = 15 15 8
  1 neighbor lists, perpetual/occasional/extra = 1 0 0
  (1) pair sw, perpetual
      attributes: full, newton on
      pair build: full/bin/atomonly
      stencil: full/bin/3d
      bin: standard
Per MPI rank memory allocation (min/avg/max) = 4.096 | 4.284 | 4.472 Mbytes
Step Temp Press Volume TotEng KinEng PotEng c_1[4] c_3 
       0    76.605821   -1210.2423    58500.543   -12658.119    925.72037   -13583.839            0          240 
      50     76.49003   -1236.7423    58504.052    -12655.68    924.32112   -13580.001   0.48872414    239.63723 
     100    76.386955   -1021.8499    58532.378   -12640.742    923.07554   -13563.818   0.79486439    239.31431 
     150    77.223165   -1158.7631    58503.283   -12618.609    933.18047    -13551.79   0.90721357    241.93409 
     200    78.136487   -1460.4457     58418.38   -12664.948    944.21724   -13609.166    1.0750841    244.79545 
     250    74.949838     -1280.46    58362.227   -12693.143    905.70913   -13598.852    1.3027085    234.81193 
     300    78.530871   -979.71618    58350.719   -12670.681    948.98306   -13619.664    1.4733487    246.03103 
     350    73.455467   -873.92069    58400.181   -12692.946    887.65084   -13580.597    1.7190112    230.13019 
     400    77.788696   -1079.2715    58415.125   -12655.742    940.01446   -13595.756    1.8787849    243.70585 
     450    75.037682   -1562.4567    58411.925   -12654.684    906.77065   -13561.454    2.0305266    235.08714 
     500    75.645345   -983.11951    58400.948   -12656.783    914.11378   -13570.897    2.1820538     236.9909 
     550    76.249446   -998.00812     58428.45   -12639.872    921.41386   -13561.286    2.3433744     238.8835 
     600    75.468364   -1390.6328    58508.225   -12637.722     911.9751   -13549.697    2.5517963    236.43643 
     650    76.385995   -1338.0407    58538.737   -12633.484    923.06394   -13556.548    2.7834217     239.3113 
     700    78.408449   -1138.0792    58550.215   -12644.621    947.50369   -13592.125    2.9230576    245.64749 
     750     75.96882   -907.76066     58570.45   -12650.488    918.02272    -13568.51    3.0206114    238.00433 
     800    78.142203   -1218.5507      58531.9   -12659.613    944.28631   -13603.899    3.1469892    244.81336 
     850    77.489788   -1201.6938    58501.354   -12655.955     936.4024   -13592.357    3.3404249     242.7694 
     900    76.307098   -1065.6078    58455.477   -12695.769    922.11053    -13617.88    3.6125968    239.06412 
     950     77.40604   -1145.5577    58441.223   -12691.354    935.39037   -13626.744    3.7822113    242.50702 
    1000    74.672739   -1159.7368    58434.175   -12731.924    902.36061   -13634.285    3.9213922    233.94381 
    1050    74.565622   -959.21109      58471.5   -12729.202    901.06618   -13630.268     4.103136    233.60822 
    1100    75.357007   -1038.4454    58524.915   -12718.834    910.62945   -13629.464    4.2268303    236.08756 
    1150    75.195627   -1212.6303    58537.532   -12729.142    908.67929   -13637.821    4.3209038    235.58197 
    1200    73.951591   -900.35846    58473.906   -12736.255     893.6461   -13629.901    4.4185487     231.6845 
    1250    74.168828    -1242.569    58461.671   -12692.718    896.27124   -13588.989    4.6088276    232.36509 
    1300    74.746073   -779.59734    58456.043    -12691.58    903.24679   -13594.826    4.8295191    234.17355 
    1350    74.106531   -1230.9715    58489.926   -12690.586    895.51843   -13586.104    5.0256539    232.16992 
    1400    76.063434   -1064.5497    58459.767   -12702.431    919.16605   -13621.597    5.1421003    238.30074 
    1450    74.629213   -1411.6705    58448.424   -12727.696    901.83463   -13629.531    5.2450394    233.80744 
    1500    74.407578   -1183.8047    58400.538   -12679.559    899.15635   -13578.715    5.3526457    233.11308 
    1550    76.762408   -953.30172    58354.683   -12634.992     927.6126   -13562.605    5.5412154    240.49057 
    1600    75.978323   -961.66351    58408.538   -12646.145    918.13755   -13564.282    5.6461116     238.0341 
    1650    79.139069   -1008.2638    58437.108   -12661.071    956.33265   -13617.403    5.7719073    247.93646 
    1700    78.431378   -686.75566    58450.526    -12656.62    947.78077     -13604.4    5.9902894    245.71933 
    1750    77.195974   -915.76004     58510.08   -12674.449    932.85189     -13607.3    6.1569696     241.8489 
    1800    76.895285   -1108.5877    58520.737   -12663.471    929.21831   -13592.689    6.1962324    240.90687 
    1850    74.179546   -929.66604    58476.981   -12683.292    896.40076   -13579.693    6.3019128    232.39867 
    1900    73.868338   -725.78796    58466.467   -12720.005    892.64007   -13612.645    6.5392302    231.42368 
    1950    74.509471   -908.07692    58448.115   -12721.134    900.38764   -13621.522    6.7031756     233.4323 
    2000    77.706734   -953.85426    58413.888   -12716.688    939.02402   -13655.712    6.6596534    243.44907 
    2050    75.465247   -1398.1118     58419.39   -12716.955    911.93744   -13628.892    6.7585009    236.42667 
    2100    76.806876   -907.67774    58369.285   -12725.455    928.14995   -13653.605    6.9091381    240.62989 
    2150    75.120178    -1071.022     58376.04   -12733.929    907.76755   -13641.697    7.1470523    235.34559 
    2200    73.100607   -960.00592    58378.067   -12721.155    883.36264   -13604.518    7.4050671    229.01844 
    2250    74.500415     -1375.49    58378.324   -12713.517    900.27821   -13613.795    7.5053949    233.40393 
    2300    74.950258   -1264.2822    58284.263   -12706.049    905.71421   -13611.763     7.597332    234.81325 
    2350    73.917485    -1089.644    58247.226   -12727.065    893.23397   -13620.299    7.9144275    231.57766 
    2400    72.586086   -1773.7967    58193.931   -12719.882    877.14506   -13597.027    8.1353102    227.40648 
    2450    75.418006    -1081.776    58160.166   -12700.398    911.36657   -13611.765    8.5172513    236.27867 
    2500    76.273272   -1372.5327    58177.326   -12676.957    921.70177   -13598.659    8.7184527    238.95815 
    2550    74.951879   -997.85405    58188.311    -12674.48     905.7338   -13580.214    8.8519924    234.81833 
    2600    76.719967   -1316.5587    58175.823   -12630.455    927.09973   -13557.554    8.8711294    240.35761 
    2650    78.012882   -807.82584    58191.394   -12632.601    942.72357   -13575.324    8.9912647    244.40821 
    2700    77.214803   -1432.9445    58189.269   -12622.236    933.07942   -13555.315    9.0660782    241.90789 
    2750    77.359979    -1459.887     58151.79   -12625.721    934.83377   -13560.554    9.2925164    242.36272 
    2800    78.782169   -1295.8113    58105.735   -12609.612     952.0198   -13561.631    9.6003872    246.81833 
    2850    73.809579   -1183.1057    58053.358   -12626.841       891.93   -13518.771    9.5202671    231.23959 
    2900    74.267855   -1176.1046    58044.123   -12647.769     897.4679   -13545.236    9.6042346    232.67533 
    2950     77.55501   -969.70338    58012.211   -12674.463    937.19056   -13611.653    9.8993083    242.97373 
    3000    77.203408   -1303.5172    57954.599    -12664.08    932.94172   -13597.021    10.208148    241.87219 
    3050    75.640689   -919.22017    57870.755   -12629.315    914.05751   -13543.373    10.641685    236.97632 
    3100    79.688321   -888.08958     57914.41    -12596.08    962.96993    -13559.05    10.783712    249.65723 
    3150    77.023664   -977.91107    57935.544   -12587.345    930.76967   -13518.115    10.909579    241.30907 
    3200    76.986326   -1093.2894    57906.264   -12599.463    930.31846   -13529.782    11.063397    241.19209 
    3250    77.339365   -1192.7612    57873.136    -12605.18    934.58466   -13539.765    11.375198    242.29813 
    3300    75.947017   -1482.7191    57851.176   -12670.571    917.75925    -13588.33    11.352678    237.93602 
    3350    76.979057   -1043.4231    57820.526   -12663.566    930.23063   -13593.797    11.375327    241.16932 
    3400    77.167513   -1102.1746    57865.245   -12598.331    932.50797   -13530.839    11.620215    241.75974 
    3450    75.322309   -1362.0338     57878.98   -12631.048    910.21014   -13541.258    12.009217    235.97886 
    3500    75.172618   -1103.4279    57883.809   -12628.025    908.40125   -13536.426    12.151778    235.50989 
    3550    78.018059   -644.57026     57840.08   -12636.923    942.78613   -13579.709    12.284725    244.42443 
    3600    78.487396   -1085.2918    57808.728   -12630.644     948.4577   -13579.101    12.469561    245.89483 
    3650    77.036142   -768.91107    57840.551   -12642.435    930.92045   -13573.355    12.608034    241.34816 
    3700     78.80141   -631.98784    57861.466   -12653.088    952.25231    -13605.34    12.804035    246.87861 
    3750    76.096368   -1282.2216    57933.531    -12648.06    919.56404   -13567.624    13.148963    238.40392 
    3800    77.110799   -634.49755    57995.891   -12611.523    931.82262   -13543.346    13.137123    241.58206 
    3850    79.038748   -1046.3199    58045.012   -12590.613    955.12035   -13545.733    13.246523    247.62217 
    3900    76.329769   -1165.3847    58033.392   -12599.104    922.38449   -13521.489    13.433381    239.13515 
    3950    75.630761   -1037.1165     58009.12   -12578.429    913.93754   -13492.367    13.713861    236.94521 
    4000     77.52005   -1312.2443    57965.454   -12593.267     936.7681   -13530.035    13.747796    242.86421 
    4050    79.057205   -852.83866    57926.963   -12612.299    955.34339   -13567.643    14.078419    247.67999 
    4100    78.074087   -1130.8809    57942.901   -12624.303     943.4632   -13567.766    14.412772    244.59996 
    4150    78.220635   -1056.1672    57994.035    -12660.42     945.2341   -13605.654    14.424144    245.05908 
    4200    72.920715   -1123.2987    57975.491   -12683.602    881.18879    -13564.79    14.623582    228.45485 
    4250    74.262511    -1207.151    58002.905   -12673.739    897.40332   -13571.143    14.994547    232.65859 
    4300    74.629216   -954.66352    58028.189   -12706.849    901.83467   -13608.684     15.16079    233.80745 
    4350    77.715198   -1315.0545    57993.659   -12692.361    939.12631   -13631.488    15.292655    243.47559 
    4400    76.433969   -998.18984    57961.775   -12690.522    923.64367   -13614.166    15.357804     239.4616 
    4450    78.802627   -433.56186    57965.785   -12657.304    952.26702   -13609.571    15.640202    246.88242 
    4500    76.550439   -922.53729    57981.091   -12638.938    925.05111    -13563.99    15.933101    239.82649 
    4550    77.022623   -793.14403     58043.08   -12681.501    930.75708   -13612.259    15.850193    241.30581 
    4600    74.939441   -751.11857    58102.565   -12720.719    905.58348   -13626.302    15.997633    234.77936 
    4650    74.189931   -745.96046    58120.319   -12727.919    896.52625   -13624.446     16.20781     232.4312 
    4700    74.944612   -975.35442    58145.211   -12739.596    905.64597   -13645.242    16.250033    234.79556 
    4750    74.834615    -628.6469    58152.395   -12724.512    904.31676   -13628.828    16.486159    234.45095 
    4800    73.861926    -594.9454     58189.52   -12723.454    892.56258   -13616.017    16.808951    231.40359 
    4850    74.943542   -597.49146    58232.828   -12698.998    905.63305   -13604.631    16.799472    234.79221 
    4900    78.606548   -991.75336    58244.031    -12687.51    949.89756   -13637.407     16.90729    246.26812 
    4950    75.537608   -814.82874    58299.176   -12726.537    912.81186   -13639.349    17.187008    236.65337 
    5000    75.567903   -1024.1609    58378.608   -12715.401    913.17795   -13628.579    17.386298    236.74828 
    5050    73.727149   -683.99989    58365.279   -12724.298     890.9339   -13615.232    17.253866    230.98135 
    5100    77.151443     -1359.69    58392.413   -12707.035    932.31377   -13639.349    17.464959    241.70939 
    5150    74.631091   -843.73757    58399.555   -12699.654    901.85732   -13601.511    17.718791    233.81332 
    5200    77.029778   -846.84367    58402.754    -12678.89    930.84355   -13609.733    17.759685    241.32822 
    5250    73.905863   -1006.0596    58405.735   -12694.974    893.09353   -13588.067    17.673835    231.54124 
    5300    72.994928   -1277.2712    58379.086   -12693.846    882.08559   -13575.931    17.917313    228.68735 
    5350    76.399084    -1464.146    58275.324   -12711.026    923.22212   -13634.249    17.972808    239.35231 
    5400    76.004553   -1241.4202    58249.195   -12705.538    918.45452   -13623.993    18.234712    238.11627 
    5450    74.261268   -871.67534    58199.491   -12700.612    897.38831   -13598.001    18.466243     232.6547 
    5500     77.53168   -900.97331    58196.332   -12716.941    936.90864    -13653.85    18.641518    242.90064 
    5550    72.802546   -869.69311    58243.816   -12717.856    879.76081   -13597.616    18.846974    228.08464 
    5600    75.752041   -914.41791    58218.232   -12689.118    915.40311   -13604.522    18.913539    237.32517 
    5650    75.992523   -1289.6914    58149.677   -12693.552    918.30915   -13611.861    19.136109    238.07859 
    5700    75.512882   -1105.2614      58147.6   -12703.647    912.51306    -13616.16    19.138422    236.57591 
    5750    75.344954   -914.87865    58095.023   -12739.178    910.48379   -13649.662    19.217883     236.0498 
    5800    78.408825   -1061.1448    58129.437   -12712.885    947.50823   -13660.393    19.509129    245.64867 
    5850    73.981221    -902.2316    58148.203   -12740.594    894.00416   -13634.598    19.752902    231.77733 
    5900    74.950051   -794.65814    58172.791   -12725.378     905.7117    -13631.09     19.91788     234.8126 
    5950    74.103345   -999.43193    58208.159   -12729.093    895.47993   -13624.573    20.024867    232.15994 
    6000    74.747844   -639.31319    58203.942   -12702.362    903.26819    -13605.63    20.154964     234.1791 
    6050    78.286706   -702.48957    58218.536   -12700.473    946.03252   -13646.506    20.297469    245.26608 
    6100    76.658966   -1073.5857    58235.659   -12708.366    926.36258   -13634.729    20.433559     240.1665 
    6150    75.235167   -1336.5772    58267.955   -12673.894     909.1571   -13583.051    20.639054    235.70585 
    6200    76.524407   -993.68333    58264.352   -12700.589    924.73655   -13625.326    20.875715    239.74494 
    6250    76.886533   -980.18072    58247.362   -12669.164    929.11255   -13598.277    21.018329    240.87945 
    6300    74.245134   -1229.4601    58286.533   -12651.691    897.19334   -13548.885    21.326716    232.60415 
    6350    77.787663    -959.5216    58324.024   -12670.787    940.00199   -13610.789    21.449887    243.70262 
    6400    76.532464   -1115.6082    58291.639   -12685.163     924.8339   -13609.997     21.77888    239.77018 
    6450    74.171434   -1164.8374    58287.974   -12701.169    896.30274   -13597.472    21.973306    232.37326 
    6500    75.500833     -967.892     58291.14     -12665.8    912.36746   -13578.168    22.208244    236.53816 
    6550    75.745264   -1153.4643    58261.178   -12639.241    915.32122   -13554.563    22.493316    237.30394 
    6600    79.350914    -1088.022    58201.227   -12640.755    958.89262   -13599.648    22.909951    248.60016 
    6650    78.034482   -1046.9069    58115.127    -12613.09     942.9846   -13556.075    23.175926    244.47588 
    6700    78.971173   -868.19876    58099.652   -12635.032    954.30376   -13589.335    23.407271    247.41046 
    6750    76.764031    -635.6099    58145.988   -12659.255    927.63221   -13586.887       23.518    240.49566 
    6800    76.066318   -834.38854    58185.514    -12634.72     919.2009   -13553.921     23.63897    238.30978 
    6850    75.991628   -964.25161    58199.149   -12662.084    918.29833   -13580.383    23.778496    238.07578 
    6900    78.870791   -1299.8062    58198.609   -12641.904    953.09072   -13594.995    23.970654    247.09597 
    6950    76.198903   -821.52902    58189.739   -12637.716    920.80309   -13558.519    24.147027    238.72516 
    7000     74.64543   -1124.2785    58192.295   -12640.509     902.0306    -13542.54    24.360061    233.85825 
    7050    75.018425   -896.54623    58161.079   -12642.298    906.53795   -13548.836    24.472891    235.02681 
    7100     79.42881   -892.03279    58164.628   -12605.753    959.83393   -13565.587    24.714878     248.8442 
    7150    76.889279   -1002.8402    58175.819   -12596.531    929.14573   -13525.677    25.129558    240.88805 
    7200    77.840513   -1373.9636    58173.761   -12615.785    940.64063   -13556.425    25.143757    243.86819 
    7250     76.29966    -1260.707    58142.634   -12607.715    922.02065   -13529.736    25.283011    239.04082 
    7300    79.379308   -1073.9894    58116.819   -12602.967    959.23575   -13562.203     25.33218    248.68912 
    7350    77.469254   -1142.3236    58153.799   -12605.045    936.15427   -13541.199    25.527516    242.70507 
    7400    78.556235    -1071.738    58143.835   -12613.684    949.28957   -13562.974    25.977434    246.11049 
    7450    76.610505   -1192.8795    58081.532    -12601.36    925.77697   -13527.137    26.191422    240.01467 
    7500    78.370703   -1075.0651    58003.181   -12618.137    947.04755   -13565.185    26.529909    245.52923 
    7550    79.227352   -1111.4419    57943.365   -12608.896    957.39948   -13566.296    26.754698    248.21305 
    7600    79.003376   -968.88982     57944.74   -12589.203    954.69291   -13543.896    27.020765    247.51135 
    7650    78.601756    -642.6733    57967.931   -12621.866    949.83965   -13571.706    26.990326    246.25311 
    7700    76.980139   -748.07445    58045.382   -12614.728    930.24369   -13544.972    27.389151    241.17271 
    7750    79.549645   -930.90561    58131.521   -12609.447    961.29413   -13570.742    27.600656    249.22277 
    7800    77.973985   -1133.6533    58116.751   -12628.854    942.25354   -13571.108     27.59041    244.28635 
    7850    77.413216   -882.88305    58152.972   -12609.196    935.47709   -13544.673    27.850035     242.5295 
    7900    79.118873   -797.39743    58151.022   -12618.344    956.08859   -13574.433    28.317389    247.87319 
    7950    78.463027   -1091.2398    58145.627   -12613.362    948.16322   -13561.525    28.532101    245.81848 
    8000    78.273727   -896.98556    58162.404   -12624.726    945.87568   -13570.602    28.732512    245.22542 
    8050    79.243009   -953.56638    58217.638   -12609.826    957.58868   -13567.415    29.058481     248.2621 
    8100    73.756852   -1157.3024    58221.827    -12611.65    891.29284   -13502.943    29.249424     231.0744 
    8150    77.669064   -1084.3132    58266.853   -12614.844    938.56881   -13553.412    29.829631    243.33106 
    8200    78.561436   -1223.3034    58269.131    -12626.01    949.35241   -13575.362    29.867133    246.12679 
    8250    77.369604   -936.52059    58261.277   -12636.827    934.95007   -13571.777    29.837342    242.39287 
    8300    77.422409    -1004.284     58258.97   -12633.904    935.58819   -13569.493    29.995348    242.55831 
    8350    78.362474   -945.10745    58260.096   -12656.459    946.94812   -13603.407     30.11393    245.50345 
    8400    77.271277   -766.73407    58325.364   -12642.474    933.76187   -13576.236    30.526925    242.08482 
    8450    76.690839   -1156.5555    58362.041   -12635.657    926.74774   -13562.405    30.606532    240.26635 
    8500    80.078247   -944.32211    58354.769   -12589.545    967.68186   -13557.227     30.62387    250.87883 
    8550    79.191516   -1314.2556    58397.244   -12591.701    956.96643   -13548.667    30.495952    248.10078 
    8600    78.214701   -860.43202    58428.861   -12613.904     945.1624   -13559.066    30.405945    245.04049 
    8650    76.689519   -1121.0152    58421.442   -12629.521    926.73179   -13556.253    30.799528    240.26222 
    8700    77.421442   -1064.9406    58422.063   -12659.052     935.5765   -13594.628    31.224915    242.55528 
    8750     76.53188   -1524.4215    58391.956   -12656.635    924.82684   -13581.462    31.452141    239.76835 
    8800    76.892194    -1349.605    58337.695    -12682.57    929.18096   -13611.751    31.661144    240.89718 
    8850    75.663774   -1267.2834    58320.488   -12701.644    914.33647    -13615.98    31.671323    237.04864 
    8900     75.12191   -1205.0582    58336.389   -12716.809    907.78848   -13624.597    31.971361    235.35102 
    8950    76.388008    -758.6137    58318.535   -12691.806    923.08827   -13614.895    32.246497    239.31761 
    9000    73.360711   -1102.9016     58327.45   -12700.861    886.50579   -13587.367    32.429243    229.83332 
    9050    78.208622   -999.79957    58291.241   -12680.921    945.08894    -13626.01    32.502978    245.02145 
    9100    78.150568   -1128.5392    58300.415   -12668.031     944.3874   -13612.418    32.685694    244.83957 
    9150    76.909352   -1191.3915    58310.153   -12650.633     929.3883   -13580.021    32.961843    240.95094 
    9200    79.043239   -780.13754    58318.755    -12665.48    955.17462   -13620.654    33.260278    247.63624 
    9250    77.953259   -1257.3266     58314.39   -12670.947    942.00308    -13612.95    33.394563    244.22142 
    9300    80.091618   -1320.0312    58292.709    -12661.45    967.84344   -13629.293    33.689786    250.92073 
    9350    79.454993   -1213.1402    58255.097   -12663.697    960.15034   -13623.847    33.876467    248.92623 
    9400    78.374186    -1014.869    58253.724   -12693.553    947.08965   -13640.643    33.941838    245.54015 
    9450    76.454765   -658.40042    58282.881   -12710.952    923.89497   -13634.847    34.379434    239.52675 
    9500    75.484127   -864.60846    58347.929    -12718.26    912.16558   -13630.425    34.679707    236.48582 
    9550    74.999346   -865.09061    58358.877    -12695.64     906.3074   -13601.947    34.473572    234.96704 
    9600    74.682057   -748.82736     58314.54   -12721.075    902.47321   -13623.548    34.650846      233.973 
    9650    75.396619   -934.88754    58278.479   -12726.328    911.10812   -13637.436    34.775713    236.21166 
    9700    75.135219   -1137.3654    58256.159   -12710.565    907.94931   -13618.515    35.003201    235.39272 
    9750    77.445363   -942.10888    58267.375   -12698.651    935.86556   -13634.516    35.213142    242.63022 
    9800    76.645676   -1269.1592     58267.39   -12706.808    926.20198    -13633.01     35.42331    240.12486 
    9850    74.659162   -848.93984    58286.592   -12703.035    902.19654   -13605.232    35.222868    233.90127 
    9900    74.840608   -966.07336    58310.608   -12706.193    904.38917   -13610.582    35.417757    234.46973 
    9950    74.886021   -1073.4285    58283.766   -12727.275    904.93795   -13632.212     35.48593      234.612 
   10000     75.07721    -876.2264    58296.071   -12751.466    907.24831   -13658.714    35.828823    235.21098 
   10050    73.038901   -1007.7558     58317.25   -12744.879    882.61697   -13627.496    36.106659    228.82512 
   10100    74.563513   -867.62428     58276.69   -12747.136     901.0407   -13648.177    36.129028    233.60161 
   10150    72.883092   -920.29034    58269.934   -12725.869    880.73415   -13606.603    36.377918    228.33698 
   10200    77.714534   -1167.0848    58251.983   -12747.705    939.11828   -13686.824    36.617223    243.47351 
   10250    71.734186   -750.36779    58277.041    -12736.33    866.85054    -13603.18      36.7103    224.73755 
   10300    75.312241   -819.74379    58328.566   -12705.547    910.08847   -13615.635    36.795581    235.94731 
   10350    73.587741   -970.42245    58335.951   -12727.744    889.24927   -13616.993    37.128041    230.54459 
   10400    76.132065   -877.51966    58331.764   -12704.335    919.99539   -13624.331    37.619862    238.51576 
   10450    73.892968   -977.98077    58340.885   -12713.095     892.9377   -13606.032    37.738354    231.50085 
   10500    74.439016   -1317.8022    58368.249   -12710.568    899.53625   -13610.104     37.78581    233.21157 
   10550    76.872204   -906.92279    58431.353   -12707.742    928.93939   -13636.682     37.92158    240.83455 
   10600    75.388666    -538.7942    58487.366   -12727.164    911.01201   -13638.176    38.376965    236.18675 
   10650    75.429956   -894.35139    58528.975   -12748.209    911.51097    -13659.72     38.36503    236.31611 
   10700    74.612326   -1006.7114    58488.089   -12741.203    901.63056   -13642.833    38.777678    233.75453 
   10750    76.808803   -754.65787    58477.072   -12724.061    928.17324   -13652.234    38.808849    240.63592 
   10800    77.279054   -1396.9892    58463.845   -12739.816    933.85585   -13673.672    39.151138    242.10918 
   10850    74.544907   -1090.2693     58482.96   -12752.325    900.81585   -13653.141    39.363962    233.54332 
   10900     74.91281   -790.25582    58437.219   -12751.499    905.26168   -13656.761    39.520668    234.69593 
   10950    74.767534   -951.81363    58415.546   -12751.847    903.50613   -13655.353    39.739044    234.24079 
   11000    73.831627   -747.38298    58405.388   -12776.485    892.19644   -13668.681    39.845067    231.30867 
   11050    77.896573   -1055.2924    58385.863   -12771.346    941.31807   -13712.664    39.768073    244.04382 
   11100    76.520043   -696.72622    58438.951   -12754.836     924.6838    -13679.52    39.878832    239.73126 
   11150    78.953951   -890.72385    58416.781   -12735.173    954.09564   -13689.269    40.140752     247.3565 
   11200    76.159579   -772.56864     58437.18   -12733.677    920.32788   -13654.005    40.557411    238.60196 
   11250    75.172049   -1148.6378     58492.15   -12718.806    908.39437     -13627.2    40.712911    235.50811 
   11300    78.708339    -807.5621    58531.274   -12696.554    951.12762   -13647.681    40.947572    246.58702 
   11350    77.755969   -957.24404    58543.168   -12697.411    939.61899    -13637.03    41.277629    243.60332 
   11400    75.609545   -875.11003     58569.15    -12686.63    913.68116   -13600.312    41.410527    236.87874 
   11450    76.621413   -1467.3721    58564.537   -12698.452    925.90879   -13624.361     41.60252    240.04885 
   11500      74.7922   -1066.3968    58539.721    -12714.76    903.80419   -13618.564    41.988666    234.31807 
   11550    74.848645   -1216.2775    58501.249     -12706.3    904.48629   -13610.786     42.36994    234.49491 
   11600    76.943855   -1106.3066    58460.721   -12712.224    929.80523   -13642.029    42.467766    241.05903 
   11650    76.593477   -831.92781    58492.251   -12689.464     925.5712   -13615.035    42.517952    239.96133 
   11700     76.21592   -1080.1681    58454.392   -12702.609    921.00872   -13623.618     42.69343    238.77847 
   11750    77.789599   -1159.8666    58449.295   -12714.919    940.02538   -13654.944    42.666063    243.70868 
   11800    75.203225   -951.10453    58499.737   -12718.079     908.7711    -13626.85    42.502436    235.60578 
   11850    77.620067    -570.9673    58509.964   -12683.683    937.97672    -13621.66    42.505046    243.17755 
   11900    77.414347   -1226.4629    58576.319   -12697.064    935.49076   -13632.554     42.67916    242.53305 
   11950    75.798468   -879.89664    58563.294   -12690.615    915.96415   -13606.579    42.942167    237.47063 
   12000    73.806696   -1062.7276    58556.523   -12717.295    891.89517    -13609.19    43.110039    231.23056 
   12050    75.507322   -1260.8465      58517.1   -12679.451    912.44587   -13591.897     43.01277    236.55849 
   12100    78.218964   -996.49028    58479.421   -12647.475    945.21391   -13592.689    43.456634    245.05385 
   12150     75.82204   -1193.0181    58492.224   -12672.075      916.249   -13588.324    43.708811    237.54448 
   12200    74.932798   -1074.0333    58489.395   -12697.644    905.50321   -13603.148    43.997247    234.75855 
   12250    76.210349    -937.6848    58498.716   -12699.294     920.9414   -13620.235     44.41618    238.76102 
   12300    76.321927   -1078.7444    58526.451   -12672.057    922.28973   -13594.347    44.745888    239.11058 
   12350    77.144948   -706.32441    58594.729    -12672.07    932.23529   -13604.306    44.936301    241.68904 
   12400    76.793941   -595.45128    58592.511   -12640.038    927.99364   -13568.032    45.483946    240.58936 
   12450     75.03832    -1010.875    58609.582    -12634.92    906.77836   -13541.699    45.699922    235.08914 
   12500    77.165592   -1022.7389    58579.238   -12640.614    932.48475   -13573.099    45.839599    241.75372 
   12550    75.422668   -1242.1814    58541.697   -12636.631     911.4229   -13548.054    45.747579    236.29327 
   12600    78.273187   -1134.6132    58495.613   -12607.618    945.86916   -13553.487    45.834405    245.22373 
   12650    80.507586   -1312.3322    58468.416   -12590.205    972.87008   -13563.075    46.045865    252.22392 
   12700    77.111521   -1314.4199    58440.478   -12627.874    931.83135   -13559.706    46.155662    241.58432 
   12750    78.782266   -1028.7536    58419.792   -12655.262    952.02097   -13607.283    46.258702    246.81863 
   12800    77.682068   -650.84481    58350.143   -12672.798    938.72596   -13611.524    46.077496     243.3718 
   12850    75.452352   -1234.9706    58311.853   -12688.471    911.78161   -13600.253    46.309161    236.38627 
   12900    75.681752   -1267.3862    58251.326   -12674.925    914.55373   -13589.479    46.506584    237.10496 
   12950    77.761546   -1137.8936    58233.003   -12683.039    939.68638   -13622.725    46.721727    243.62079 
   13000    76.414678   -807.53126    58251.471   -12705.537    923.41055   -13628.948    46.859313    239.40116 
   13050    76.193658   -766.45221    58200.422   -12712.573    920.73971   -13633.313     46.83573    238.70873 
   13100    78.853743   -579.10734    58222.232   -12685.091    952.88471   -13637.976    46.629499    247.04256 
   13150    75.625739   -679.31158    58184.283   -12686.364    913.87685   -13600.241    46.944432    236.92948 
   13200    75.676486   -981.79858    58233.098   -12673.163    914.49009   -13587.653    47.044563    237.08846 
   13250    74.615222   -996.38405    58232.551   -12680.423    901.66556   -13582.089    47.110587    233.76361 
   13300    78.682623   -887.15831    58207.837   -12651.989    950.81686   -13602.806     47.43221    246.50645 
   13350    77.395461   -773.05225    58168.309   -12654.237    935.26254   -13589.499    47.817393    242.47388 
   13400    81.408199   -791.96904     58162.33   -12628.515    983.75328   -13612.268    47.748775    255.04547 
   13450    77.636795   -796.01392    58140.601   -12613.039    938.17886   -13551.218    48.142915    243.22996 
   13500    79.445438   -1114.2811    58152.274   -12630.466    960.03488   -13590.501    48.310487    248.89629 
   13550    75.752774   -1085.9962    58133.952   -12641.894    915.41197   -13557.306    48.656751    237.32747 
   13600    80.049803   -1323.1284    58127.763   -12630.509    967.33814   -13597.848    48.420031    250.78972 
   13650     78.21373   -828.92649    58173.215   -12613.613    945.15067   -13558.763    48.544939    245.03745 
   13700     81.88903   -907.83046    58237.692   -12600.742    989.56374   -13590.306    48.829095    256.55188 
   13750    77.219762   -1161.4539    58308.825   -12605.095    933.13936   -13538.234    49.326097    241.92343 
   13800    79.776716    -737.4763    58354.469   -12626.933    964.03811   -13590.971    49.717994    249.93416 
   13850    76.455397   -1192.1048    58396.958   -12650.435     923.9026   -13574.337    50.263838    239.52873 
   13900    79.058704   -928.54209    58401.012   -12654.727     955.3615   -13610.089    50.669934    247.68469 
   13950    76.661935   -1114.0471    58417.914   -12702.857    926.39846   -13629.255    51.190267     240.1758 
   14000    77.719814   -888.66375    58443.376   -12667.223    939.18209   -13606.405    51.390737    243.49005 
   14050    76.097949   -846.39384     58442.88   -12661.096    919.58314   -13580.679    51.466504    238.40888 
   14100     77.70176   -688.35631    58466.746   -12644.714    938.96392   -13583.678    51.600288    243.43349 
   14150    76.464273   -812.18245    58467.926   -12646.583    924.00987   -13570.592     51.65001    239.55654 
   14200    77.492475   -1003.6123      58503.2   -12645.192    936.43487   -13581.627    51.737709    242.77781 
   14250    75.467488   -742.65383    58542.739   -12678.147    911.96452   -13590.111    51.533764    236.43369 
   14300    73.652106   -1231.8046    58561.838   -12727.608    890.02707   -13617.635    51.597572    230.74624 
   14350    75.337768   -930.04095    58554.881   -12735.203    910.39695     -13645.6     51.80108    236.02729 
   14400    73.775374   -1384.7439    58470.565    -12764.87    891.51666   -13656.387    52.001243    231.13243 
   14450    75.138398   -1113.4521    58447.767   -12777.804    907.98772   -13685.792    52.364043    235.40268 
   14500    75.859686   -781.77688    58475.912    -12757.76    916.70392   -13674.464    52.781735    237.66242 
   14550    75.081188    -1001.892    58537.397   -12728.928    907.29638   -13636.224    53.064654    235.22344 
   14600    75.480423   -919.97891    58554.397    -12753.42    912.12083   -13665.541    53.252413    236.47422 
   14650    77.047995   -1038.5339    58543.506   -12738.165    931.06369   -13669.229    53.327359     241.3853 
   14700     74.90926   -854.21802    58600.498   -12753.719    905.21877   -13658.938    53.015393    234.68481 
   14750    74.452876   -1122.6049    58610.284   -12729.484    899.70374   -13629.188    52.893355    233.25499 
   14800    75.779118   -1191.5473    58592.628   -12717.652    915.73032   -13633.382    53.337669       237.41 
   14850    75.218493   -878.21103    58597.217   -12725.988    908.95562   -13634.943    53.433485    235.65361 
   14900    75.431138   -1263.6396    58604.504   -12726.045    911.52525    -13637.57    53.755397    236.31981 
   14950    74.306785    -1133.052    58615.483   -12750.329    897.93834   -13648.267    53.994005     232.7973 
   15000    71.402099    -838.1062    58601.562   -12778.375    862.83753   -13641.212    54.128169    223.69715 
   15050    73.363467    -1010.974    58620.183   -12764.923    886.53909   -13651.462    54.019091    229.84196 
   15100    76.008591    -1065.944    58600.408   -12739.805    918.50331   -13658.309    54.133231    238.12892 
   15150    75.456316   -1146.1126    58620.021   -12764.379    911.82951   -13676.208    54.076065    236.39869 
   15200    77.202468   -1078.6605      58584.1   -12740.799    932.93037   -13673.729    54.357438    241.86925 
   15250    73.389858   -1228.4876    58586.529   -12760.739    886.85801   -13647.597    54.776653    229.92464 
   15300    74.786375   -920.87025    58571.863    -12749.32     903.7338   -13653.054    54.934024    234.29982 
   15350      77.2468   -1103.0346     58548.72   -12738.349    933.46609   -13671.815    54.899281    242.00814 
   15400    74.863678   -1104.5487    58588.403   -12723.482    904.66796    -13628.15    54.861257      234.542 
   15450    73.734504   -1009.2245    58575.494   -12721.212    891.02278   -13612.235    55.081896    231.00439 
   15500    77.144711    -1121.132     58549.12   -12714.828    932.23242    -13647.06    55.243508     241.6883 
   15550    76.097096   -964.81272    58495.411    -12700.06    919.57283   -13619.633    55.409594     238.4062 
   15600    76.867912   -1193.8843    58456.238    -12705.96    928.88753   -13634.848    55.563825    240.82111 
   15650    76.196219   -799.93123    58466.641    -12698.18    920.77065   -13618.951    55.869377    238.71675 
   15700    75.337654   -820.00453    58465.646   -12685.259    910.39557   -13595.654    56.090334    236.02693 
   15750    75.124265   -1452.8912    58493.221   -12666.269    907.81694   -13574.086    56.010589     235.3584 
   15800    78.573554   -1140.8715    58469.593   -12655.395    949.49885   -13604.894    56.003444    246.16475 
   15850    79.309346   -1384.6405    58391.846   -12632.574    958.39032   -13590.964    55.844125    248.46993 
   15900    76.195103   -1290.7035    58363.077   -12661.337    920.75716   -13582.095     55.81337    238.71325 
   15950    77.790428   -1243.0223    58339.332   -12669.662     940.0354   -13609.697    55.926787    243.71128 
   16000    78.569256   -731.86253      58285.7   -12647.445    949.44692   -13596.892    55.556319    246.15129 
   16050    79.736038   -1241.3003    58325.358   -12657.177    963.54655   -13620.724    55.501479    249.80672 
   16100    76.041206   -1075.0307    58350.227   -12648.948    918.89744   -13567.846    55.350936     238.2311 
   16150    78.326286   -970.25857    58325.489   -12658.099    946.51082    -13604.61    55.405922    245.39008 
   16200    75.722134   -1103.2957    58351.316   -12681.074    915.04171   -13596.115    55.892997    237.23148 
   16250     78.09999   -903.12142    58374.481    -12665.61     943.7762   -13609.387    56.150139    244.68111 
   16300    76.327401   -953.40972    58341.102   -12670.255    922.35587   -13592.611    56.261639    239.12773 
   16350    79.110928   -1245.2428    58332.461   -12672.789    955.99258   -13628.781    56.844175     247.8483 
   16400    76.189998   -1000.0715    58321.306   -12639.774    920.69547   -13560.469    57.392071    238.69726 
   16450    78.016191   -942.03652    58306.371   -12666.587    942.76356   -13609.351    57.396413    244.41858 
   16500    77.032468   -718.07754    58321.458   -12687.618    930.87606   -13618.495    57.858362    241.33665 
   16550    77.383362   -998.56835    58318.435    -12712.62    935.11633   -13647.737    58.035661    242.43597 
   16600     75.47624   -1223.5368    58275.688   -12687.739    912.07027   -13599.809     58.46046    236.46111 
   16650    76.877218   -1081.2099    58217.938   -12680.465    928.99998   -13609.465     58.45211    240.85026 
   16700    76.658166   -1155.3299    58212.582   -12685.279    926.35292   -13611.632    58.586964    240.16399 
   16750    75.813803   -1020.8476    58174.236   -12685.704    916.14946   -13601.854    58.861487    237.51867 
   16800     75.26624   -1705.9972    58114.346   -12693.683    909.53259   -13603.215    59.045518     235.8032 
   16850    73.884277   -1054.1413    58035.508   -12687.872    892.83268   -13580.705    59.212798    231.47362 
   16900    73.733339    -1312.956    58001.764   -12705.246     891.0087   -13596.255    59.207261    231.00074 
   16950    76.963453   -1223.0072    58009.014   -12677.052    930.04206   -13607.094    59.284649    241.12043 
   17000    75.605988   -1119.7018    58001.085   -12686.389    913.63818   -13600.027    59.643853     236.8676 
   17050    76.074673   -1149.4625    57976.737   -12699.845    919.30186   -13619.147    59.297993    238.33595 
   17100    73.479177   -1302.2214    57970.894   -12688.837    887.93735   -13576.774    59.528514    230.20447 
   17150    75.787627   -889.61261    57990.721   -12720.506    915.83314   -13636.339    60.000174    237.43666 
   17200    75.732717   -1175.2538    58043.928   -12719.462     915.1696   -13634.631    60.070675    237.26463 
   17250    77.107816   -1113.6793    58085.433   -12716.057    931.78657   -13647.843    60.189141    241.57271 
   17300    75.946494    -1110.949     58171.14   -12703.818    917.75292   -13621.571    60.777109    237.93438 
   17350    76.902197   -723.21897    58202.611   -12724.109    929.30183   -13653.411    60.645477    240.92852 
   17400    73.415642   -1267.1427    58159.607   -12701.201    887.16959    -13588.37    60.545473    230.00542 
   17450    76.179798   -922.82218    58169.093   -12693.807    920.57222   -13614.379    60.065486     238.6653 
   17500      77.4771    -1132.424    58180.599   -12696.706    936.24908   -13632.956    59.866683    242.72965 
   17550    75.324832   -859.30156      58260.2    -12724.46    910.24063   -13634.701    60.014676    235.98676 
   17600    75.736238   -1077.7775    58249.772   -12705.094    915.21215   -13620.306    60.047789    237.27566 
   17650    75.975055   -1177.9211    58273.914   -12729.117    918.09806   -13647.215    60.087935    238.02386 
   17700    72.490856   -1320.8349    58230.855   -12735.374    875.99428   -13611.368    60.325144    227.10814 
   17750    73.592662   -892.65259    58210.177   -12721.776    889.30874   -13611.084    60.124603    230.56001 
   17800    77.226811    -1273.677    58174.676   -12712.244    933.22453   -13645.468    60.173571    241.94551 
   17850    78.911803    -994.3826    58128.196   -12714.288    953.58632   -13667.874    60.377593    247.22446 
   17900    75.054642     -1258.76    58126.845   -12753.241     906.9756   -13660.217    60.385051    235.14028 
   17950    76.075028   -1035.2035     58120.51   -12708.903    919.30615   -13628.209    60.238056    238.33707 
   18000    75.171005   -1036.7624    58054.215   -12684.532    908.38176   -13592.913    60.887545    235.50483 
   18050    75.601315   -1042.0581    58051.035   -12705.837    913.58171   -13619.419    60.944864    236.85296 
   18100    75.104881    -844.3748    58079.435   -12684.749     907.5827   -13592.332    61.039876    235.29767 
   18150     77.17233   -780.01854    58096.913   -12693.611    932.56617   -13626.178    61.192929    241.77483 
   18200    75.072925   -1365.9729    58124.006   -12703.537    907.19654   -13610.733    61.394835    235.19756 
   18250    75.988328   -1192.5275     58108.32   -12650.127    918.25845   -13568.385    61.566333    238.06544 
   18300    78.924493   -1335.7263    58105.443   -12669.918    953.73967   -13623.658    61.465086    247.26422 
   18350    74.720213   -996.89252    58037.685   -12704.875    902.93429   -13607.809    61.275701    234.09254 
   18400    76.824465   -1190.0099    58028.962   -12692.456     928.3625   -13620.819     61.91113    240.68499 
   18450    75.774156   -706.02508    58056.898   -12666.294    915.67036   -13581.964    62.078649    237.39446 
   18500    79.879044   -951.70423    58089.439   -12682.247    965.27466   -13647.521    62.319998    250.25475 
   18550     76.89142    -1145.027     58152.12   -12672.289     929.1716   -13601.461    62.640592    240.89476 
   18600    74.053175   -912.48311    58198.249   -12692.555    894.87367   -13587.428    63.248369    232.00276 
   18650    76.889373   -1162.3801    58265.319    -12698.87    929.14687   -13628.017    63.764245    240.88835 
   18700    77.573191   -1207.2619    58266.146   -12692.791    937.41026   -13630.201    63.969653    243.03069 
   18750    77.277398   -1580.8726    58257.773   -12684.253    933.83584   -13618.088     64.30716      242.104 
   18800    75.735675   -631.66393    58271.515   -12700.809    915.20535   -13616.015    64.799525     237.2739 
   18850    77.669391    -1069.909    58213.871   -12716.029    938.57276   -13654.602    65.108857    243.33208 
   18900    77.829941   -1007.6866    58252.499   -12695.946    940.51287   -13636.459    65.301792    243.83507 
   18950    79.857998   -559.56383    58291.571    -12672.35    965.02033    -13637.37    65.304197    250.18881 
   19000    75.399122   -1152.2604    58382.664   -12709.885    911.13837   -13621.023    65.729449    236.21951 
   19050    77.164526   -972.78928     58403.65   -12682.705    932.47187   -13615.177    65.807617    241.75038 
   19100    73.865744   -1396.4909    58431.066   -12670.118    892.60872   -13562.727    65.976106    231.41555 
   19150    76.492071   -1089.9806    58415.758   -12682.809    924.34579   -13607.155    65.974136    239.64363 
   19200    78.238266   -1116.8458    58431.106    -12669.47    945.44717   -13614.917    65.743454    245.11432 
   19250    77.827499   -951.87586    58458.325   -12688.853    940.48338   -13629.337    65.944795    243.82742 
   19300    77.845691   -632.61616    58514.761   -12680.821     940.7032   -13621.524    66.407072    243.88441 
   19350     78.73798   -644.47494    58592.939   -12699.974    951.48581    -13651.46    66.829117    246.67988 
   19400    78.706452   -1169.2582    58614.164   -12707.534    951.10482   -13658.639    67.350468    246.58111 
   19450    78.439188   -666.68947    58697.785   -12690.995    947.87514    -13638.87    67.301632    245.74379 
   19500     78.61616   -1231.9126    58777.738   -12679.164    950.01371   -13629.177    67.415157    246.29823 
   19550    75.565877   -720.81736    58776.858   -12709.879    913.15346   -13623.032    67.383588    236.74194 
   19600    76.566885   -1112.2992    58806.768    -12701.47    925.24985    -13626.72    67.702178    239.87801 
   19650    79.052249   -1023.7828    58873.001   -12691.267     955.2835   -13646.551     67.49567    247.66447 
   19700    76.186297    -1232.555    58860.229   -12697.914    920.65076   -13618.564    67.647097    238.68566 
   19750    80.530794   -1117.7104    58832.334   -12683.089    973.15054    -13656.24    68.175617    252.29663 
   19800    76.323164   -1223.4032    58874.542   -12702.759    922.30468   -13625.064    68.264173    239.11446 
   19850    77.728955   -1391.1692    58874.753   -12675.159    939.29255   -13614.451    68.695773    243.51869 
   19900     75.63593   -1133.8917    58883.387   -12687.223    914.00001   -13601.223    68.949151    236.96141 
   19950    77.428593   -1265.4735    58938.556   -12701.229    935.66291   -13636.892    69.136397    242.57768 
   20000    75.532064   -1216.2523    58940.274   -12706.062    912.74486   -13618.807    69.555214      236.636 
   20050    75.814163    -1082.172    58961.251   -12713.466    916.15381    -13629.62    69.696106     237.5198 
   20100    76.566874   -1548.9493    58998.038    -12694.42    925.24972    -13619.67    69.970035    239.87798 
   20150    78.601732   -1269.2078    59029.778   -12657.512    949.83937   -13607.351    69.936575    246.25303 
   20200    76.553777   -1402.7741    59048.199   -12664.265    925.09145   -13589.356    70.091338    239.83695 
   20250    78.311509    -1182.862    59024.213   -12673.311    946.33224   -13619.643    70.156555    245.34378 
   20300    77.758113   -1323.6907    58948.454   -12700.859    939.64489   -13640.504    70.456465    243.61004 
   20350    79.092404   -1276.2466    58908.296   -12696.563    955.76874   -13652.332    70.136833    247.79027 
   20400    77.522605   -1264.9859    58832.853   -12705.058    936.79897   -13641.857    69.954088    242.87221 
   20450    75.640167   -1690.2339    58773.252   -12742.727     914.0512   -13656.778     69.90069    236.97468 
   20500     74.23316   -1473.3047    58738.598   -12718.148    897.04864   -13615.196    70.526706    232.56664 
   20550    74.336165   -1090.4513    58684.144   -12740.533    898.29337   -13638.826    70.683729    232.88934 
   20600    75.426191   -1043.5654     58649.02   -12726.292    911.46548   -13637.758     70.94193    236.30431 
   20650    76.891096   -1378.3999    58636.029   -12726.166    929.16769   -13655.334    71.124541    240.89374 
   20700    76.582585   -972.27793    58643.585   -12718.509    925.43958   -13643.949    71.561304     239.9272 
   20750    73.680557    -1084.442    58648.758   -12727.794    890.37088   -13618.165    72.026566    230.83538 
   20800    75.547099   -995.65887    58711.566    -12737.94    912.92655   -13650.867     72.19691    236.68311 
   20850    73.821556   -1320.3186    58707.487   -12740.636    892.07474   -13632.711    72.528828    231.27712 
   20900    76.949707   -1220.3063    58656.278   -12742.014    929.87595    -13671.89     72.29212    241.07737 
   20950    75.150981    -1103.863    58579.627   -12768.454    908.13978   -13676.594    72.107547     235.4421 
   21000    74.353499   -764.29622    58577.743    -12794.51    898.50284   -13693.013     71.94459    232.94365 
   21050    72.986986   -1180.3321    58577.524   -12773.472    881.98962   -13655.462    72.009384    228.66247 
   21100    76.977812   -919.02014    58531.643   -12755.255    930.21558    -13685.47    72.356907    241.16542 
   21150    76.487055   -868.64167    58539.034   -12748.409    924.28517   -13672.694    72.618465    239.62791 
   21200    74.653055   -844.21558    58519.367   -12737.991    902.12274   -13640.114      72.4507    233.88214 
   21250    77.870594   -932.19052    58566.628   -12726.886    941.00414    -13667.89    72.491872    243.96243 
   21300    76.342579   -799.26239    58655.319   -12743.121    922.53929    -13665.66    72.496799    239.17528 
   21350     76.73066    -863.2097    58740.519   -12726.879    927.22894   -13654.108    72.823873    240.39111 
   21400    76.045011   -1157.4421    58796.858   -12768.352    918.94342   -13687.296    72.966551    238.24302 
   21450    75.480968   -982.90641    58843.325   -12762.894    912.12742   -13675.021     73.26135    236.47592 
   21500    75.120623   -932.12749    58874.067   -12765.742    907.77293   -13673.515    74.073587    235.34699 
   21550    77.473923   -800.07602    58878.811   -12731.433    936.21068   -13667.644    74.194244    242.71969 
   21600    78.597082   -1136.1878    58873.416   -12720.052    949.78317   -13669.836    74.268044    246.23846 
   21650    73.765048   -882.44015    58886.524   -12752.806    891.39188   -13644.198    74.528729    231.10008 
   21700    74.610302   -887.10123    58821.411   -12733.636    901.60611   -13635.242    74.489261     233.7482 
   21750    77.277145   -1020.3482    58788.187   -12692.506    933.83278   -13626.339    74.745619     242.1032 
   21800    78.999142   -1271.5459    58787.948   -12713.077    954.64174   -13667.719    74.612371    247.49808 
   21850    74.833251   -1519.4175    58747.427   -12719.863    904.30026   -13624.163    74.660665    234.44668 
   21900    75.085047    -989.9718    58739.276   -12735.838    907.34303   -13643.181    74.538827    235.23553 
   21950    75.090259   -1191.8642    58688.321   -12751.542      907.406   -13658.948    74.354348    235.25186 
   22000    77.111012   -788.43653     58678.93   -12736.549    931.82519   -13668.374    74.387619    241.58272 
   22050    75.465232   -760.02778    58718.384   -12732.452    911.93725   -13644.389      74.1393    236.42662 
   22100    74.864017   -785.14606    58763.243   -12744.569    904.67205   -13649.241     74.03655    234.54306 
   22150    77.318062   -944.68848    58738.225   -12715.733    934.32723    -13650.06    74.454961    242.23139 
   22200    76.779472   -1036.3732    58773.879   -12738.016     927.8188   -13665.835    75.159091    240.54403 
   22250    78.943211    -1036.794    58752.585    -12733.39    953.96586   -13687.356     75.62017    247.32286 
   22300    76.722178   -1566.8338    58686.924   -12726.654    927.12645    -13653.78    76.007879    240.36454 
   22350    75.861896   -853.67957    58662.778   -12740.108    916.73063   -13656.838    76.200695    237.66934 
   22400    78.132131   -1220.5166    58679.086   -12714.533     944.1646   -13658.698     76.49053    244.78181 
   22450    76.643496   -1213.0315    58660.769   -12760.006    926.17563   -13686.181    76.539248    240.11803 
   22500    74.056596   -1122.4419    58642.561   -12746.253    894.91501   -13641.168    76.741909    232.01348 
   22550    76.635091   -735.91575    58635.868   -12773.257    926.07406   -13699.332    76.985036     240.0917 
   22600       74.359   -1141.1388    58631.834   -12782.036    898.56932   -13680.605     76.96203    232.96088 
   22650    74.867128   -664.30717    58675.488   -12761.906    904.70964   -13666.616    77.360095    234.55281 
   22700    75.852083   -949.56504    58679.264   -12772.882    916.61204   -13689.494    77.532419     237.6386 
   22750    77.065499     -973.021    58645.483   -12741.833    931.27521   -13673.108    77.819201    241.44014 
   22800    75.426458   -1166.0648    58693.967   -12715.872    911.46871   -13627.341    77.441283    236.30515 
   22850    77.979338   -986.37444    58711.351   -12713.997    942.31823   -13656.315    77.530166    244.30312 
   22900    77.916074   -1541.4008    58673.814   -12739.589    941.55372   -13681.143    77.661463    244.10492 
   22950    77.213363   -1066.5227    58622.674     -12721.8    933.06203   -13654.862    77.560449    241.90338 
   23000    76.543111   -1108.5647    58629.447   -12728.126    924.96257   -13653.088    77.590981    239.80353 
   23050    77.587158   -1182.5006    58642.761   -12713.813    937.57905   -13651.392    77.651338    243.07445 
   23100    77.257786   -1299.3673    58603.923   -12731.301    933.59884     -13664.9    78.134153    242.04255 
   23150    76.497164   -1061.0634    58614.208   -12717.649    924.40733   -13642.056    78.472912    239.65958 
   23200    75.775591   -1076.4478     58671.03   -12730.526     915.6877   -13646.214    79.143782    237.39895 
   23250    77.286261   -1287.2742     58686.39   -12718.253    933.94294   -13652.196     79.94189    242.13176 
   23300    75.144664   -1046.7068    58692.968   -12718.997    908.06345   -13627.061    80.130785    235.42231 
   23350    74.455472   -1127.7291     58685.04   -12675.672    899.73511   -13575.407    80.325183    233.26313 
   23400      78.1292   -1202.9672    58663.703   -12632.867    944.12919   -13576.996    79.958546    244.77263 
   23450    80.407438   -819.71988    58614.878   -12634.011    971.65988   -13605.671    80.466843    251.91017 
   23500    81.098052   -1243.3151    58544.319   -12622.305     980.0054    -13602.31    80.404754     254.0738 
   23550    81.702842   -902.32744    58585.393   -12603.526    987.31381    -13590.84    80.771484    255.96856 
   23600    80.433211   -713.02229    58573.558   -12607.703    971.97132   -13579.674    80.969264    251.99091 
   23650     77.39434   -828.49993    58576.843   -12637.905    935.24899   -13573.154    81.386443    242.47037 
   23700     78.46879   -1143.4674    58632.678     -12672.5    948.23286   -13620.733    81.608443    245.83653 
   23750    76.478274   -1168.9763    58673.141   -12667.967    924.17906   -13592.146    81.682441     239.6004 
   23800    79.428771   -675.63173    58731.631   -12693.561    959.83346   -13653.395    82.122004    248.84408 
   23850    77.662984   -965.40242    58772.173   -12694.137    938.49534   -13632.632    82.348994    243.31201 
   23900    78.266718   -845.47302    58817.515   -12690.555    945.79099   -13636.346    82.732394    245.20346 
   23950    78.198271     -952.786    58814.583   -12695.156    944.96386    -13640.12    82.485344    244.98902 
   24000    79.522338   -1211.0927    58814.298   -12714.543    960.96416   -13675.507    82.431466    249.13722 
   24050    77.118642   -1251.8471    58788.969   -12729.545     931.9174   -13661.462    82.281128    241.60663 
   24100    80.596902   -1173.6138    58744.434   -12703.396     973.9494   -13677.345    82.438278    252.50374 
   24150     74.03194   -859.13535    58714.913   -12707.765    894.61706   -13602.382    82.255671    231.93623 
   24200    77.786586   -922.22762    58668.037   -12723.102    939.98897   -13663.091    82.760772    243.69924 
   24250     80.88576   -870.87148    58721.825   -12700.361    977.44002   -13677.801    82.660216    253.40871 
   24300    74.633961   -885.03712    58778.404   -12741.702    901.89201   -13643.594    83.189015    233.82232 
   24350    74.179701   -885.05042    58828.712   -12752.963    896.40263   -13649.366    83.092267    232.39916 
   24400    75.943836   -1077.1331    58760.909   -12733.483     917.7208   -13651.203    82.929788    237.92605 
   24450     76.55201   -1214.2639     58768.41   -12712.432     925.0701   -13637.503    83.154053    239.83141 
   24500    75.654714   -1056.2473    58759.506   -12737.488      914.227   -13651.715    83.138471    237.02026 
   24550    73.828496   -1274.7176    58786.733   -12749.991     892.1586    -13642.15    82.923726    231.29886 
   24600     76.48826   -691.99129    58831.165   -12756.359    924.29973   -13680.659    83.081429    239.63169 
   24650    77.778096   -844.45007    58899.491   -12717.952    939.88638   -13657.838    83.224558    243.67264 
   24700    79.904253   -760.66645    58952.822    -12691.34    965.57929   -13656.919    83.270279    250.33373 
   24750     76.35813   -901.21105    58961.596   -12692.479    922.72721   -13615.207    83.251581      239.224 
   24800    77.921765   -917.08083    58982.566   -12705.739     941.6225   -13647.362    83.257173    244.12275 
   24850    76.097978    -1327.277    58996.593   -12735.027    919.58349    -13654.61    83.309553    238.40897 
   24900    79.957967   -1003.5007    58968.086   -12720.273    966.22838   -13686.501    83.032184    250.50201 
   24950    77.733073   -923.58459     58970.04   -12743.733    939.34231   -13683.075    83.262053    243.53159 
   25000     78.80605   -894.94568    58983.131   -12706.505    952.30838   -13658.813    83.466268    246.89314 
   25050    75.396745   -1061.0823    58935.007   -12753.357    911.10964   -13664.467     83.28305    236.21206 
   25100    75.018302   -919.85732    58956.926   -12779.613    906.53646    -13686.15      83.5833    235.02643 
   25150    76.280059   -959.60463    58968.016   -12759.277     921.7838    -13681.06    84.048012    238.97941 
   25200    75.583738   -867.65694    58948.989   -12766.997     913.3693   -13680.366    83.754474    236.79789 
   25250    76.570107   -705.38263    58919.471   -12729.959    925.28879   -13655.248    83.459127    239.88811 
   25300     77.27698    -1013.466    58931.369     -12730.6    933.83079   -13664.431    83.498084    242.10269 
   25350    77.570289   -652.72892    58971.121   -12758.711    937.37519   -13696.086    83.364126     243.0216 
   25400    78.244501   -956.39397    58956.558   -12769.813    945.52251   -13715.335    83.741991    245.13385 
   25450     74.10616   -919.27828    58955.498   -12788.973    895.51395   -13684.487     83.82107    232.16876 
   25500    75.605213   -817.08549    58947.196   -12778.925    913.62882   -13692.554    84.425272    236.86517 
   25550     76.38458   -682.76045    58982.536   -12768.713    923.04684    -13691.76     84.68025    239.30687 
   25600    74.749433   -938.55124    58971.812   -12749.768    903.28739   -13653.055    84.886627    234.18408 
   25650     73.54107   -1108.2225    58959.244   -12786.944    888.68529   -13675.629    85.127525    230.39838 
   25700    77.221039   -1032.2792    58997.288   -12755.608    933.15479   -13688.763     85.11063    241.92743 
   25750    77.215725   -596.89081     59018.45    -12766.17    933.09056   -13699.261    85.195032    241.91078 
   25800    78.105936   -853.38485    59059.461   -12758.063    943.84806   -13701.911    85.358391    244.69974 
   25850    76.270436   -936.64693    59108.308   -12736.457     921.6675   -13658.125    85.401164    238.94926 
   25900    78.072995   -883.24882    59137.185   -12744.491       943.45   -13687.941     85.72107    244.59654 
   25950    78.207173   -831.77376    59159.144   -12726.686    945.07143   -13671.758     85.82327    245.01691 
   26000    77.267354   -1088.1479    59198.657   -12767.404    933.71446   -13701.118    85.869897    242.07253 
   26050    75.410551   -879.53958    59221.874   -12776.502    911.27648   -13687.779    86.254467    236.25531 
   26100    74.233118     -749.121    59252.155    -12761.27    897.04814   -13658.318    86.371417    232.56651 
   26150    76.401888   -1316.1025    59330.194   -12779.995      923.256   -13703.251    86.511072    239.36109 
   26200    74.154741   -938.93897    59314.254   -12749.774    896.10101   -13645.875     86.54943    232.32096 
   26250    75.469823   -821.46923    59324.207   -12763.904    911.99274   -13675.897    87.148676    236.44101 
   26300    77.768604   -1070.8059    59366.639   -12738.186    939.77167   -13677.957    87.141307    243.64291 
   26350    80.396263   -841.92996     59352.73    -12724.55    971.52484   -13696.075    86.762055    251.87516 
   26400    78.217664   -903.40094    59386.158    -12711.43     945.1982   -13656.628    86.773441    245.04978 
   26450    79.644251   -1057.7757    59387.309   -12736.963    962.43737   -13699.401    86.588076    249.51916 
   26500    75.443711   -798.87501    59428.349   -12754.357    911.67719   -13666.035    86.871104     236.3592 
   26550    75.359733   -1087.2799    59469.874   -12769.054    910.66238   -13679.717    86.744331     236.0961 
   26600    75.313807   -1098.1073    59511.454   -12768.739     910.1074   -13678.847    86.901635    235.95222 
   26650    74.729826   -1369.1126    59509.397   -12790.524    903.05046   -13693.575    86.917222    234.12265 
   26700    75.699671   -1091.9334     59495.59   -12789.192    914.77027   -13703.962    87.159807     237.1611 
   26750    77.880482   -1641.7301    59402.042    -12754.27    941.12363   -13695.394    87.712714    243.99341 
   26800    74.729486   -733.75415    59380.727   -12769.526    903.04635   -13672.572    87.985949    234.12159 
   26850    78.750918   -1124.8286    59389.854   -12748.835    951.64216   -13700.477    87.736225    246.72042 
   26900    76.356549   -1194.4711    59431.979   -12729.086    922.70811   -13651.794     87.78115    239.21905 
   26950    78.370095    -930.0642    59422.066   -12739.477    947.04022   -13686.517    88.165356    245.52733 
   27000    79.721288   -822.96345    59464.229    -12728.16     963.3683   -13691.528    88.432298    249.76051 
   27050    78.516926   -915.88952    59464.261   -12765.552    948.81455   -13714.367    88.753314    245.98734 
   27100    78.294622   -1132.8763    59481.102   -12739.832    946.12818    -13685.96     89.39601    245.29088 
   27150    76.319159   -782.72248    59456.692   -12758.529    922.25629   -13680.785    88.795948    239.10191 
   27200    77.907633   -976.72312     59472.34   -12735.308    941.45172    -13676.76    88.671612    244.07847 
   27250    79.173007   -1109.5062    59479.942   -12728.788    956.74276   -13685.531    88.840373    248.04279 
   27300    78.204015   -1647.5779    59474.717   -12739.952    945.03327   -13684.985    88.798929    245.00701 
   27350    76.583005   -1243.8493    59407.343   -12754.341    925.44465   -13679.785    88.490047    239.92852 
   27400    77.366685   -1605.1842    59375.214   -12738.518     934.9148   -13673.433    88.276206    242.38373 
   27450    75.846311   -1273.8753    59398.315   -12765.508     916.5423    -13682.05    88.619457    237.62052 
   27500    78.167107   -753.58753     59422.58   -12762.299    944.58726   -13706.886    89.196603    244.89138 
   27550    75.627229   -773.10252     59444.65    -12773.79    913.89486   -13687.684    89.535822    236.93415 
   27600    77.673026   -1156.2859    59465.161   -12739.491    938.61669   -13678.107    89.797644    243.34347 
   27650    76.951552   -999.63478    59480.986   -12760.488    929.89824   -13690.386    89.901894    241.08315 
   27700    76.377271   -884.95171    59509.959    -12764.95    922.95852   -13687.908    90.094804    239.28397 
   27750    74.682197   -1187.3686    59475.772   -12789.472     902.4749   -13691.947    90.115757    233.97344 
   27800     75.58334   -1037.1909     59485.46   -12761.307    913.36449   -13674.672    89.714218    236.79665 
   27850    74.743265   -903.62197    59448.315    -12763.75    903.21286   -13666.963    89.535801    234.16476 
   27900    79.009866   -846.54181    59455.013   -12734.191    954.77134   -13688.962     89.57142    247.53168 
   27950    77.756665   -784.37613    59462.475    -12740.06    939.62739   -13679.687    89.801384     243.6055 
   28000    79.701332   -1054.2542    59507.558   -12736.496    963.12715   -13699.623    89.785211    249.69799 
   28050     76.59504   -878.25884    59535.019   -12717.547    925.59009   -13643.137     89.73637    239.96622 
   28100     76.09127   -1092.6504    59527.344   -12749.922    919.50243   -13669.425    90.039516    238.38795 
   28150    80.239322   -949.68406    59529.185   -12706.992    969.62834    -13676.62    90.460842    251.38347 
   28200    78.584411   -1065.4414    59510.851   -12734.899    949.63005   -13684.529     90.49451    246.19876 
   28250    78.403584   -1315.0386    59477.839   -12724.593    947.44489   -13672.038    90.354295    245.63225 
   28300    76.289512   -856.43567     59414.23   -12740.471    921.89802   -13662.369    90.048855    239.00903 
   28350    75.497428   -1239.7452    59314.455   -12790.145    912.32631   -13702.471    90.294835    236.52749 
   28400    76.363011   -1168.7147    59258.015   -12820.638     922.7862   -13743.424    90.335115     239.2393 
   28450    78.396622   -640.12945    59261.941   -12811.077    947.36077   -13758.437    90.010506    245.61044 
   28500    75.705274   -1090.8186    59244.943   -12773.475    914.83798   -13688.313    90.026003    237.17866 
   28550    78.336184   -1064.0368    59218.367   -12752.968    946.63043   -13699.599    90.184206    245.42109 
   28600    75.341406   -1329.0179    59228.298   -12765.868    910.44091   -13676.309    90.368397    236.03869 
   28650    75.057813   -1186.4551    59195.009    -12788.23    907.01392   -13695.244    89.904031    235.15021 
   28700    76.698926   -1499.2812    59160.407   -12799.636    926.84547   -13726.481    89.983974    240.29169 
   28750    73.904506   -1239.6225     59098.14   -12802.914    893.07712   -13695.991    89.799507    231.53699 
   28800      76.1708   -1301.2907    59072.663   -12807.972    920.46348   -13728.436    89.550254    238.63711 
   28850    75.653985    -1113.025    59038.717   -12802.952    914.21819    -13717.17    89.727213    237.01797 
   28900     76.65731   -768.82436    59086.968   -12770.904    926.34257   -13697.247    90.263787    240.16131 
   28950    76.048557   -1185.4176    59070.295   -12774.188    918.98627   -13693.174    90.243997    238.25413 
   29000    72.898013   -702.31214    59083.953   -12772.479    880.91446   -13653.393    90.498325    228.38373 
   29050    74.472377   -869.28609    59072.291   -12771.643    899.93939   -13671.583    90.606299    233.31609 
   29100    75.157916   -1197.1094    59071.693   -12742.513    908.22359   -13650.736    91.051325    235.46383 
   29150    76.666238   -1368.6161    59050.135   -12742.309    926.45046   -13668.759    91.206795    240.18928 
   29200    75.346869   -1384.0728    59037.966    -12745.98    910.50693   -13656.487    91.801703     236.0558 
   29250    77.649925   -1211.9963     58976.53    -12742.95    938.33752   -13681.287    91.945677    243.27109 
   29300    75.934816   -1184.9898    58965.314   -12758.706     917.6118   -13676.317    92.177324    237.89779 
   29350    74.635241   -948.40974    58950.375   -12766.329    901.90747   -13668.236    92.137307    233.82633 
   29400    76.127573   -1069.2366    58944.955   -12757.479    919.94112   -13677.421    91.922917    238.50169 
   29450    77.339055   -1390.8752    58931.586   -12752.441    934.58091   -13687.022    91.937228    242.29716 
   29500    74.978294   -1137.1829    58909.362   -12782.739      906.053   -13688.792    91.956727    234.90109 
   29550    75.161998   -559.26778    58909.611   -12735.098    908.27291   -13643.371    91.698846    235.47661 
   29600    77.413488   -1149.7395    58938.697   -12727.717    935.48037   -13663.198    91.797387    242.53035 
   29650    76.175316   -1055.3081    59017.955   -12700.085    920.51805   -13620.603    91.788685    238.65126 
   29700    75.583432   -1102.5333    59053.694    -12717.33    913.36561   -13630.695    91.607782    236.79693 
   29750     75.87677   -1447.9591    59025.606   -12715.096    916.91036   -13632.006    91.602432    237.71594 
   29800    80.035109   -927.82227    59020.243   -12684.352    967.16058   -13651.513    91.823195    250.74369 
   29850    78.736975   -1272.6305    59008.848     -12686.4    951.47366   -13637.873    92.061555    246.67674 
   29900    80.845397   -1063.7265    58989.191   -12660.886    976.95227   -13637.838    92.500144    253.28226 
   29950    81.047548   -887.00406    58988.264   -12690.099     979.3951   -13669.494     92.32343    253.91558 
   30000    77.923137    -1481.824    58999.779   -12686.234    941.63908   -13627.874    92.509983    244.12705 
   30050    78.581264   -1268.3745    59011.774   -12687.508    949.59202   -13637.101    92.670917    246.18891 
   30100    77.175498   -1229.0263    58947.894   -12691.807    932.60446   -13624.412    92.776712    241.78475 
   30150    76.331513   -1502.1355    58907.072   -12726.797    922.40557   -13649.202    93.290025    239.14061 
   30200    74.873279   -1398.1768     58886.11   -12702.388    904.78398   -13607.172    93.876984    234.57208 
   30250    75.374252   -1235.0053    58867.935   -12708.273    910.83784   -13619.111    94.171005    236.14159 
   30300    78.553929   -1170.1668    58931.483   -12682.998     949.2617    -13632.26    94.828056    246.10327 
   30350    75.143145   -1271.9341    58909.472   -12665.545    908.04509    -13573.59    94.780227    235.41755 
   30400    77.788943   -1170.2352     58904.82   -12679.204    940.01745   -13619.222    94.300161    243.70663 
   30450    83.013032    -1256.347    58893.647   -12670.192    1003.1464   -13673.339    93.890313    260.07329 
   30500    78.238258   -1289.1982    58905.186   -12669.927    945.44706   -13615.374    93.938247    245.11429 
   30550    74.592006   -912.27009    58932.119   -12677.667    901.38502   -13579.052    94.343281    233.69088 
   30600    77.070372    -988.8768    58943.343   -12687.165    931.33409   -13618.499    94.376133     241.4554 
   30650    78.003241   -969.09146    58948.434   -12691.806    942.60707   -13634.413    94.394294      244.378 
   30700    77.833435   -1358.4766    58957.806   -12681.648     940.5551   -13622.203    94.503134    243.84602 
   30750    78.900059   -1117.0017    58934.216   -12695.256    953.44441   -13648.701    94.713543    247.18767 
   30800    76.230827   -1226.2588    58947.466   -12699.622    921.18886    -13620.81    94.878339    238.82517 
   30850     76.77852   -1226.7753    58889.574   -12693.793    927.80729     -13621.6    95.137604    240.54105 
   30900    75.698183   -1450.5408    58817.918   -12726.503    914.75228   -13641.256    95.558895    237.15644 
   30950    74.461031    -1388.484    58786.781   -12738.932    899.80228   -13638.734    95.526642    233.28054 
   31000    75.926688   -1321.3028    58753.986   -12715.334    917.51358   -13632.847    95.820531    237.87233 
   31050    78.388497   -1009.0942    58709.921   -12704.775    947.26258   -13652.038    95.638504    245.58498 
   31100     77.29031   -1156.0124    58771.885    -12671.14    933.99187   -13605.132    95.831543    242.14445 
   31150    77.048239   -1011.1853    58747.102   -12649.209    931.06664   -13580.275    95.507856    241.38606 
   31200    78.495589   -1397.7934    58683.592   -12653.712    948.55671   -13602.268    95.112597    245.92049 
   31250    79.374498   -961.73765    58719.198   -12674.827    959.17762   -13634.005    95.121521    248.67405 
   31300    75.190945   -1095.2815    58760.358   -12686.454    908.62272   -13595.076    95.380693    235.56731 
   31350     77.11086   -1110.1853    58815.475   -12701.678    931.82336   -13633.501    96.046645    241.58225 
   31400    77.405649   -1062.5355    58834.211   -12706.207    935.38565   -13641.592    96.509058     242.5058 
   31450    77.092996   -1277.9786    58835.939   -12705.961    931.60749   -13637.569    96.689979    241.52628 
   31500    76.727083   -1327.7005    58868.026   -12708.137    927.18572   -13635.323    97.215451     240.3799 
   31550    75.855773   -1288.1606    58871.851   -12691.903    916.65663    -13608.56    96.958303    237.65016 
   31600    79.941974   -1193.5215     58858.18   -12686.425    966.03511    -13652.46    97.269533     250.4519 
   31650    78.759078    -1049.549    58821.729   -12694.306    951.74076   -13646.047    97.434809    246.74598 
   31700    77.873324   -969.53025    58818.362    -12687.38    941.03713   -13628.417     97.49104    243.97099 
   31750    79.531322   -997.49496    58764.645   -12686.337    961.07272    -13647.41    97.172296    249.16536 
   31800    75.256518   -822.61264     58755.35   -12725.216    909.41512   -13634.631    97.100657    235.77274 
   31850    77.039062    -1284.029    58755.843     -12735.3    930.95573   -13666.255     97.33726    241.35731 
   31900    76.704993   -1257.3517    58755.834   -12735.121    926.91878    -13662.04    97.330649     240.3107 
   31950    72.691831   -910.17651    58695.902   -12750.671    878.42291   -13629.094    97.421433    227.73778 
   32000    73.965311    -862.0833    58698.757   -12750.102    893.81191   -13643.914    97.662649    231.72749 
   32050     75.05379   -890.72837    58682.898   -12761.639     906.9653   -13668.604    97.437441    235.13761 
   32100    76.616343    -1034.865     58701.05   -12729.946    925.84752   -13655.794    97.416288    240.03296 
   32150    74.107432    -1140.116    58703.492   -12733.001    895.52932    -13628.53    97.415463    232.17274 
   32200    75.079856   -947.59244    58725.758   -12744.762     907.2803   -13652.042    97.763877    235.21927 
   32250    71.085649   -898.58678    58710.405   -12789.438    859.01348   -13648.452    97.928132    222.70574 
   32300    75.118794   -1124.5153    58667.182   -12758.655    907.75082   -13666.406    97.953426    235.34126 
   32350    75.089794   -1168.5759    58646.962   -12777.574    907.40038   -13684.975    98.073006    235.25041 
   32400    76.350076   -853.77047    58623.943   -12762.479    922.62989   -13685.109    97.964504    239.19877 
   32450     74.12684   -885.24672    58643.884   -12746.413    895.76386   -13642.177    97.998278    232.23355 
   32500    73.448665    -1470.713    58621.605   -12742.674    887.56865   -13630.242    98.239996    230.10888 
   32550    73.581925   -718.49923    58620.472   -12746.624    889.17899   -13635.803      98.6016    230.52637 
   32600    72.686972   -1059.2368    58612.533   -12764.795    878.36419    -13643.16    98.367821    227.72255 
   32650    74.731874   -953.81447    58590.158   -12740.148    903.07521   -13643.223    98.459855    234.12907 
   32700    76.408035   -1000.1426    58564.524   -12707.623    923.33028   -13630.954    98.579091    239.38035 
   32750    78.245624   -1220.1597    58560.493   -12714.888    945.53608   -13660.424    99.093134    245.13737 
   32800     73.82182   -1261.8552    58538.683   -12734.195    892.07793   -13626.273    99.436568    231.27794 
   32850    74.720405   -1458.9973    58503.773   -12748.353    902.93661   -13651.289    99.909141    234.09314 
   32900    75.589486   -1038.4205    58532.757   -12745.753    913.43877   -13659.191    100.18892     236.8159 
   32950    74.524129   -1295.6213    58551.209   -12759.174    900.56477   -13659.739    100.17225    233.47822 
   33000    73.261525   -1125.5103    58491.423    -12744.67    885.30721   -13629.977    100.09089    229.52258 
   33050    76.156111   -1393.6185    58481.544   -12732.483    920.28597   -13652.769     99.60177    238.59109 
   33100    74.255932   -651.77819    58467.689   -12696.956    897.32382    -13594.28    99.111809    232.63798 
   33150    76.388123   -1404.8382    58466.824   -12693.264    923.08966   -13616.353    99.073169    239.31797 
   33200    79.137375   -1036.2119    58424.319   -12666.064    956.31218   -13622.376    99.226549    247.93116 
   33250    78.754712    -1275.834    58451.207   -12662.403      951.688   -13614.091    98.937797     246.7323 
   33300    76.522514   -871.84343    58532.657   -12690.501    924.71367   -13615.215    99.104413      239.739 
   33350      74.2835   -1079.7726    58594.017   -12688.549    897.65696   -13586.206    98.825014    232.72435 
   33400    78.367273   -938.82061    58631.178   -12685.464    947.00611    -13632.47    99.260524    245.51849 
   33450    75.290575   -1251.2801    58585.649   -12669.865    909.82666   -13579.691    99.185642    235.87944 
   33500    77.055033   -911.69228    58589.564    -12655.27    931.14873   -13586.418     99.12893    241.40734 
   33550    77.599827   -1423.3868    58546.963   -12657.623    937.73213   -13595.356    99.370645    243.11414 
   33600     79.99594   -1288.3037    58529.065   -12609.204    966.68725   -13575.891    99.345532    250.62097 
   33650    80.247301   -1070.9774    58488.914    -12608.39    969.72475   -13578.115    99.115284    251.40847 
   33700    78.406548   -1300.6134    58451.596   -12594.189    947.48072    -13541.67    99.179047    245.64153 
   33750    79.203035   -1108.2705    58376.743   -12633.826    957.10562   -13590.931    99.478755    248.13686 
   33800    76.508727   -1367.7902    58320.694    -12654.67    924.54706   -13579.217    99.313717    239.69581 
   33850    76.702203   -1339.7283    58298.483   -12685.091    926.88506   -13611.976    99.416604    240.30196 
   33900    77.141206   -892.28761    58326.156   -12681.213    932.19007   -13613.403    99.701069    241.67732 
   33950    75.918821   -1246.0101    58342.246   -12679.597    917.41852   -13597.016    99.274464    237.84768 
[...]
   92000    74.550163   -993.28139    58639.058   -12780.144    900.87937   -13681.023    256.00768    233.55978 
   92050    74.587918   -582.70293    58684.675   -12770.494    901.33562    -13671.83    255.37136    233.67807 
   92100    74.623196   -1196.4574    58660.381   -12753.864    901.76192   -13655.626    255.92613    233.78859 
   92150    75.085011   -954.70051    58646.945   -12744.165    907.34259   -13651.508    255.87576    235.23542 
   92200    75.287632   -802.30962    58645.535   -12767.234    909.79111   -13677.025    256.04777    235.87022 
   92250    75.902379   -655.30913    58669.857   -12766.884    917.21982   -13684.104    256.07792    237.79617 
   92300     74.40945   -1081.6917    58695.348   -12778.209    899.17897   -13677.388    255.86422    233.11894 
   92350    76.250624     -665.117    58689.685   -12749.739     921.4281   -13671.168    255.91408     238.8872 
   92400    76.246745   -961.07835    58670.811   -12738.992    921.38121   -13660.373     256.0192    238.87504 
   92450    76.352082   -585.69141     58680.35   -12728.027    922.65413   -13650.682    255.44072    239.20505 
   92500    75.790786   -962.05581    58628.423   -12729.696    915.87131   -13645.568    255.41612    237.44656 
   92550    75.321542   -623.48991    58636.421   -12746.244    910.20087   -13656.445    255.29505    235.97645 
   92600     75.17902   -1063.0479    58606.374   -12751.981    908.47861    -13660.46    255.61341    235.52994 
   92650    74.012787   -667.80644    58555.578   -12779.823    894.38561   -13674.209    255.68101    231.87623 
   92700    73.147801   -764.06025    58570.783   -12754.162    883.93295   -13638.095    256.54353     229.1663 
   92750    75.102896   -651.62208    58556.558   -12706.272    907.55872    -13613.83    256.86302    235.29145 
   92800    77.399184   -930.95243    58598.021   -12682.473    935.30753   -13617.781    257.26636    242.48554 
   92850    76.073712   -1150.2062    58601.529    -12711.72    919.29025    -13631.01     257.9344    238.33294 
   92900    76.208162   -897.60014    58570.761   -12679.906    920.91497   -13600.821    258.34277    238.75416 
   92950    76.783211   -866.13655    58583.057   -12673.191    927.86398   -13601.055    258.27573    240.55575 
   93000        73.03   -885.15305    58621.354   -12702.132    882.50941   -13584.642     258.3735    228.79723 
   93050    75.430114   -1331.8547    58613.429   -12690.424    911.51288   -13601.937    258.63468     236.3166 
   93100    76.190081   -1049.4427    58539.712   -12676.998    920.69648   -13597.694    259.35161    238.69752 
   93150    73.371423   -1032.2339    58548.725   -12681.438    886.63524   -13568.073    258.93528    229.86688 
   93200    74.964055   -879.25155    58528.834   -12697.304    905.88093   -13603.185     258.5805    234.85648 
   93250    75.173822   -1034.4022    58514.818   -12661.462     908.4158   -13569.878    258.32491    235.51366 
   93300    75.943833   -1181.6081    58539.207   -12676.566    917.72077   -13594.287    258.96961    237.92604 
   93350    74.905684   -831.37088    58543.679   -12695.449    905.17556   -13600.625    258.95377     234.6736 
   93400     75.50438   -857.67116    58576.804    -12689.26    912.41033   -13601.671    258.89011    236.54927 
   93450    76.582142   -1155.9097    58538.701   -12673.558    925.43422   -13598.992    259.27403    239.92581 
   93500      76.8819   -828.01336    58586.236   -12683.241    929.05656   -13612.297    259.13107    240.86493 
   93550    77.016637   -524.75668    58590.185   -12668.217    930.68474   -13598.901    259.46187    241.28705 
   93600    78.928453   -955.55213    58651.728   -12628.102    953.78753   -13581.889    259.64133    247.27662 
   93650    77.932432   -807.91381    58654.231   -12647.074     941.7514   -13588.825    258.80155    244.15617 
   93700    75.645081   -841.48831    58705.731   -12688.543    914.11059   -13602.653    260.48046    236.99008 
   93750    75.320793   -746.30658    58742.212    -12721.83    910.19182   -13632.022     261.0033    235.97411 
   93800    76.106877   -973.55895    58771.355   -12732.481    919.69103   -13652.172    260.95239    238.43685 
   93850    73.565945   -1059.8098    58809.292   -12755.107    888.98588   -13644.093     260.7369    230.47631 
   93900    74.263944   -887.09318    58873.945   -12724.125    897.42064   -13621.546    260.68283    232.66308 
   93950    74.094139   -611.06046    58907.602   -12725.818    895.36869   -13621.187    260.96273     232.1311 
   94000    73.893877   -852.55726    58983.947   -12717.518    892.94868   -13610.467    261.08832    231.50369 
   94050     74.24481   -970.01037    58973.278    -12747.72    897.18943    -13644.91     260.8549    232.60314 
   94100    73.102345   -1078.4588    59009.664    -12751.39    883.38365   -13634.774    261.02229    229.02389 
   94150    73.403275   -1228.9734    59024.054   -12712.167    887.02015   -13599.187    260.94433    229.96668 
   94200    75.561112   -1073.9334    59033.199   -12720.733    913.09588   -13633.829    260.83394    236.72701 
   94250    76.538475   -1183.9753    58988.855   -12708.257    924.90654   -13633.164    260.43184    239.78901 
   94300    75.558329   -1126.1003    58984.243   -12714.065    913.06225   -13627.127    260.36932    236.71829 
   94350    75.114543    -1172.527    59010.365   -12730.013    907.69946   -13637.713    260.71538    235.32794 
   94400    77.392284   -1086.2703    59047.587   -12699.107    935.22415   -13634.331    260.91249    242.46393 
   94450    76.772615   -1051.1444    59058.225   -12692.349    927.73593   -13620.085    261.17257    240.52255 
   94500     81.28277   -812.42539    59059.509   -12668.181    982.23757   -13650.419    260.63434    254.65251 
   94550    74.191437   -873.03066    59097.039   -12707.599    896.54445   -13604.143    260.71468    232.43592 
   94600    75.685568   -1006.0322    59101.849   -12707.033    914.59984   -13621.633    261.48043    237.11692 
   94650    77.556438   -993.17688    59118.771   -12674.497    937.20781   -13611.705    261.47141    242.97821 
   94700    77.338188   -998.92111    59127.776   -12688.293    934.57044   -13622.863    262.13693    242.29445 
   94750     76.69493   -938.62998    59093.523   -12650.884    926.79717   -13577.682    261.85362    240.27917 
   94800    77.429744    -964.0392    59113.144   -12650.806    935.67681   -13586.483    261.57945    242.58128 
   94850    80.169521   -1117.3989    59081.923   -12642.129    968.78484   -13610.914    260.99436    251.16479 
   94900    77.191282   -1099.1736    59015.679   -12663.082     932.7952   -13595.877    261.37651     241.8342 
   94950    75.202078   -1420.2892    58958.685   -12688.886    908.75725   -13597.643    261.71535    235.60218 
   95000    75.073943   -864.97314    58940.683   -12694.765    907.20883   -13601.974    261.57081    235.20074 
   95050     76.58444    -947.2033    58902.569   -12691.133    925.46199   -13616.595    261.84112    239.93301 
   95100    77.068643   -1046.0455    58870.486   -12712.514     931.3132   -13643.827     261.3627    241.44998 
   95150    75.391065    -1628.626    58863.004   -12722.842      911.041   -13633.883    261.00106    236.19426 
   95200    74.535159   -1041.8307    58813.367   -12730.588    900.69806   -13631.287    260.96935    233.51278 
   95250    74.335781   -1203.0127    58810.503    -12733.28    898.28873   -13631.569    260.65894    232.88814 
   95300    76.853281   -1147.4697    58783.682   -12732.612    928.71073   -13661.323    260.45416    240.77527 
   95350     72.90176   -1225.9522    58783.242   -12729.248    880.95973   -13610.208    260.66775    228.39547 
   95400    74.722834   -1094.0708    58753.777   -12714.945    902.96596   -13617.911    260.16558    234.10075 
   95450    77.465099   -1269.8618    58754.697   -12708.291    936.10405   -13644.395      259.932    242.69205 
   95500    74.750845   -1172.7634    58718.841    -12704.61    903.30446   -13607.915    260.22499    234.18851 
   95550    75.612897   -1114.1355    58689.294   -12701.512    913.72166   -13615.234    260.54541    236.88925 
   95600    76.507885   -1166.5452    58678.117   -12677.416    924.53689   -13601.953    261.01084    239.69317 
   95650    78.753857   -1191.9696    58660.517   -12673.553    951.67766   -13625.231    261.14906    246.72962 
   95700    75.459905   -1284.6715    58631.027    -12677.13    911.87288   -13589.003    261.59813    236.40993 
   95750    78.132852   -1339.6595    58631.365   -12684.751    944.17332   -13628.925    261.21136    244.78407 
   95800    77.998067   -1226.6297    58614.006   -12687.647    942.54454   -13630.191     261.2996    244.36179 
   95850     79.32893   -1125.3926    58624.055   -12685.362    958.62697   -13643.989    261.93895    248.53129 
   95900     78.05659   -1220.8897    58613.157   -12658.196    943.25175   -13601.448    262.05513    244.54514 
   95950    76.527032   -1126.6023    58617.094   -12686.916    924.76827   -13611.685    261.68707    239.75316 
   96000    77.350051   -1211.1635    58633.461    -12668.07    934.71379   -13602.784    261.76869    242.33161 
   96050    77.621346   -1256.9721    58605.459   -12675.062    937.99218   -13613.054     262.0443    243.18156 
   96100    77.263348   -1208.8488    58554.974   -12709.521    933.66605   -13643.187     262.0915    242.05998 
   96150    76.653632   -1060.9919    58525.777   -12734.292    926.29812    -13660.59    262.28196    240.14979 
   96200    77.803168   -1269.3354    58541.336   -12702.614    940.18935   -13642.803    262.69121    243.75119 
   96250    76.991899     -935.785    58511.103   -12711.563    930.38582   -13641.949    262.97584    241.20955 
   96300    75.834653   -1203.5687    58513.166   -12683.557    916.40141   -13599.959    262.81662    237.58399 
   96350    76.578086   -869.46749    58540.536   -12699.688    925.38521   -13625.073    263.11528    239.91311 
   96400    75.969126   -1384.0632    58580.556   -12670.665    918.02641   -13588.691     262.7338    238.00528 
   96450    76.429958   -1081.2843    58561.134   -12675.054     923.5952   -13598.649    263.22396    239.44903 
   96500    75.692229   -1232.4969    58547.588   -12700.807    914.68033   -13615.487    263.42541    237.13779 
   96550    73.814363   -1257.7637     58510.52   -12748.985    891.98782   -13640.973    262.70318    231.25458 
   96600     74.85275   -908.01234     58474.57   -12741.144     904.5359    -13645.68    262.82801    234.50777 
   96650    73.105104   -977.29018    58475.575   -12730.965    883.41698   -13614.382    263.14614    229.03253 
   96700    76.275911   -984.70316    58500.814   -12725.861    921.73366   -13647.595    263.49696    238.96642 
   96750    76.645077   -616.78212    58514.362   -12728.685    926.19474    -13654.88    263.08315    240.12298 
   96800    72.966791   -882.16613     58580.08   -12706.132    881.74558   -13587.878    263.48974     228.5992 
   96850    77.029365   -1004.1057    58653.196   -12727.441    930.83856    -13658.28    263.29744    241.32693 
   96900    74.954314   -1295.9234    58643.916   -12728.635    905.76322   -13634.399    263.90448    234.82596 
   96950     73.82501   -874.72468    58647.868   -12726.975    892.11647   -13619.091    263.68742    231.28794 
   97000    76.515654   -1229.3741    58639.353   -12711.044    924.63077   -13635.675    264.22458    239.71751 
   97050    76.673701   -1147.1707    58633.019   -12742.678    926.54064   -13669.219    264.38229    240.21266 
   97100     74.01762   -1156.8184    58666.469    -12725.69    894.44402   -13620.134    264.83791    231.89137 
   97150    75.742244   -1273.1518    58650.552   -12716.051    915.28472   -13631.336       265.13    237.29448 
   97200    72.571544   -1485.4355    58558.286    -12750.11    876.96934    -13627.08     264.7552    227.36093 
   97250    73.596738   -1109.0027    58503.302   -12734.146    889.35799   -13623.504    264.48764    230.57278 
   97300    74.777995   -1109.1803    58489.571   -12710.108    903.63254   -13613.741    265.33468    234.27356 
   97350    76.195271   -1485.6923    58480.644   -12682.209    920.75919   -13602.968    265.14687    238.71378 
   97400    76.074387   -912.96905    58458.772   -12678.307    919.29841   -13597.605    265.08359    238.33506 
   97450    79.321864    -1301.689    58443.843   -12640.535    958.54159   -13599.077    265.60208    248.50915 
   97500    79.353764   -880.89178     58473.42   -12608.868    958.92707   -13567.795    265.59738    248.60909 
   97550    78.712559   -796.67338    58545.919   -12634.129    951.17862   -13585.307    265.38891    246.60024 
   97600    79.843527   -800.02501    58581.109     -12661.3    964.84546   -13626.145    265.86186    250.14348 
   97650    75.702771   -1225.3843    58628.787   -12685.884    914.80772   -13600.691    266.48417    237.17081 
   97700    75.783761   -1187.5182    58592.711   -12664.686    915.78643   -13580.473    266.56082    237.42455 
   97750    76.571693   -1317.7202    58619.904    -12649.14    925.30796   -13574.448    267.08703    239.89308 
   97800    74.463776   -776.94343    58655.055   -12663.997    899.83546   -13563.833    267.81467    233.28914 
   97850    74.520371   -972.44915      58714.7   -12691.325    900.51936   -13591.844    268.21857    233.46645 
   97900    76.378284   -858.26866    58696.421   -12655.294    922.97076   -13578.265    267.92359    239.28714 
   97950     79.61568   -1202.6712    58674.749   -12670.524    962.09211   -13632.616     268.0871    249.42965 
   98000    76.627041   -865.49215    58652.886   -12684.931    925.97679   -13610.908    268.38576    240.06648 
   98050    75.539246    -1344.093    58602.449   -12720.617    912.83165   -13633.449    268.47396     236.6585 
   98100    76.276618   -1400.4867    58516.688   -12728.312    921.74221   -13650.055    268.56446    238.96863 
   98150     74.41873   -1261.2166    58495.285   -12716.378    899.29111    -13615.67    268.50925    233.14801 
   98200    77.174645   -1005.7008    58514.161   -12714.859    932.59415   -13647.453    268.43813    241.78208 
   98250    74.665329   -1254.0856    58523.008   -12706.073    902.27106   -13608.344    268.18271    233.92059 
   98300     74.93048   -793.49435    58559.133   -12721.923     905.4752   -13627.399    268.44958    234.75129 
   98350     76.18741   -1225.3429    58589.847   -12725.442     920.6642   -13646.106     269.5152    238.68915 
   98400    77.523672   -1166.5497    58598.287   -12703.518    936.81187    -13640.33    269.41385    242.87555 
   98450    77.835503   -1199.7095    58632.987   -12675.506    940.58009   -13616.086    269.63222    243.85249 
   98500    78.391398   -932.41599    58700.356   -12679.024    947.29764   -13626.321    269.96165    245.59407 
   98550    78.934398   -929.22259    58719.202   -12666.316    953.85937   -13620.175    270.28413    247.29525 
   98600    78.841845   -967.79362    58761.505   -12655.114    952.74094   -13607.855    270.00355    247.00529 
   98650     77.88503   -1026.1772    58779.022   -12668.663    941.17859   -13609.842    270.02366    244.00766 
   98700    78.983102   -1274.7187    58819.734    -12686.56    954.44791   -13641.008     270.5521    247.44783 
   98750    76.696366   -1002.1506    58844.568   -12706.879    926.81453   -13633.693    269.79588    240.28367 
   98800    75.472082   -1278.7989    58851.449   -12757.871    912.02003   -13669.891    269.98897    236.44808 
   98850    76.597219   -1246.0637    58906.463    -12740.02    925.61642   -13665.636    270.23282    239.97305 
   98900     74.34299   -1311.5632    58939.326   -12740.324    898.37586     -13638.7    270.52116    232.91073 
   98950    74.635203    -961.1193    58915.201   -12775.707    901.90702   -13677.614    270.49886    233.82621 
   99000    74.925215    -995.2112    58928.189   -12779.674    905.41158   -13685.085    270.47095    234.73479 
   99050     75.66301   -1273.2929     58899.81   -12784.548    914.32724   -13698.875    270.60528    237.04625 
   99100    75.032121   -1171.2637    58881.491    -12758.84    906.70346   -13665.544    271.06032    235.06972 
   99150    76.266675   -1070.2791     58883.09   -12762.706    921.62206   -13684.328     271.2826    238.93748 
   99200    75.024275   -1029.1573    58878.661    -12744.53    906.60864   -13651.138    270.88089    235.04514 
   99250    76.406377   -1174.1456     58915.53   -12727.407    923.31024   -13650.718    271.05785    239.37516 
   99300    75.205393   -975.88075    58905.392   -12768.365    908.79731   -13677.162    271.15241    235.61257 
   99350    75.493515    -1006.412    58884.698   -12744.725    912.27903   -13657.004    271.59605    236.51523 
   99400    75.160161   -785.76985    58872.313   -12734.748    908.25071   -13642.998    271.64711    235.47086 
   99450    75.820109   -1279.7071    58817.517   -12728.142    916.22566   -13644.367    272.24413    237.53843 
   99500    76.045962   -1077.2921    58849.841    -12724.08    918.95491   -13643.035    272.00041      238.246 
   99550    78.222245   -926.82456     58856.88   -12719.944    945.25357   -13665.198    271.51008    245.06413 
   99600     75.91473   -1088.7689    58838.377   -12721.219    917.36908   -13638.588    271.62874    237.83487 
   99650     75.76759   -869.98132    58780.749   -12730.231    915.59101   -13645.822    271.51457    237.37389 
   99700    74.628244   -974.21367    58796.814   -12748.304    901.82292   -13650.127    272.17865    233.80441 
   99750    75.955535   -849.27534    58764.728   -12744.705    917.86218   -13662.567    272.54541     237.9627 
   99800    76.715203    -940.9066    58850.076   -12721.902    927.04216   -13648.944    272.88859    240.34268 
   99850    73.965184   -716.77517    58840.953   -12740.795    893.81037   -13634.606    273.56465    231.72709 
   99900    78.887925   -805.90224    58894.339   -12711.112    953.29778    -13664.41    273.89291    247.14965 
   99950    76.994383   -901.08367    58940.911   -12746.898    930.41583   -13677.314    274.22678    241.21733 
  100000    73.810282   -1269.1756    58997.706   -12777.373     891.9385   -13669.311    274.35153     231.2418 
Loop time of 80.6946 on 80 procs for 100000 steps with 4055 atoms

Performance: 535.352 ns/day, 0.045 hours/ns, 1239.240 timesteps/s
99.5% CPU use with 80 MPI tasks x no OpenMP threads

MPI task timing breakdown:
Section |  min time  |  avg time  |  max time  |%varavg| %total
---------------------------------------------------------------
Pair    | 46.444     | 50.601     | 54.783     |  29.1 | 62.71
Neigh   | 0.44295    | 1.0498     | 1.9123     |  58.5 |  1.30
Comm    | 16.045     | 20.599     | 25.35      |  54.6 | 25.53
Output  | 0.12714    | 0.13057    | 0.25861    |   4.0 |  0.16
Modify  | 6.5167     | 7.3727     | 8.4583     |  14.0 |  9.14
Other   |            | 0.9421     |            |       |  1.17

Nlocal:    50.6875 ave 87 max 20 min
Histogram: 23 17 0 0 0 0 2 14 17 7
Nghost:    714.35 ave 747 max 675 min
Histogram: 5 12 6 6 4 8 6 8 16 9
Neighs:    0 ave 0 max 0 min
Histogram: 80 0 0 0 0 0 0 0 0 0
FullNghs:  5561.15 ave 11046 max 1069 min
Histogram: 40 0 0 0 0 0 0 8 19 13

Total # of neighbors = 444892
Ave neighs/atom = 109.714
Neighbor list builds = 5491
Dangerous builds = 0

write_data		${DIR}/data.eq-${NAME}-${TEMP}
write_data		run_7/data.eq-${NAME}-${TEMP}
write_data		run_7/data.eq-het_freeze_7-${TEMP}
write_data		run_7/data.eq-het_freeze_7-240
undump          1

reset_timestep  0

unfix           2
unfix           3
unfix           4


################################################
#######         Run Simulation         #########
################################################

log				${DIR}/log.run_${NAME}
log				run_7/log.run_${NAME}
log				run_7/log.run_het_freeze_7
