LAMMPS data file via write_data, version 16 Mar 2018, timestep = 100000

6489 atoms
2 atom types

0.0000000000000000e+00 4.9219999999999999e+01 xlo xhi
0.0000000000000000e+00 4.9019635930410494e+01 ylo yhi
1.9459864796469120e+00 5.8116013520353071e+01 zlo zhi

Masses

1 18.015
2 12.01

Atoms # atomic

2925 1 3.2458006559089885e+00 1.6064883704152959e+00 4.9902536358599940e+00 0 1 1
274 1 8.5883653383137748e+00 4.8115764647607131e+00 8.1175265969810706e+00 0 0 0
1977 1 5.8657669812611619e+00 2.2460864084855880e+00 5.3813847954542089e+00 0 0 0
3144 1 6.5238087907218265e+00 4.6526542353300187e+00 3.8528525662026167e+00 1 1 0
5212 1 2.9141842669103011e+00 1.0234584711706834e+01 7.8417478155257978e+00 0 0 0
3115 1 2.1343666138208861e+00 5.5457787475874998e+00 4.8905308232209919e+00 0 0 1
484 1 9.3583164273659882e+00 2.5052915703967704e-01 4.8263023875820137e+00 -1 0 1
1623 1 3.7598037117922898e+00 6.9010040488477680e+00 6.3218121582224445e+00 1 0 0
4623 1 3.8829100677274431e+00 5.0457894439899338e+00 2.6490725930193539e+00 0 0 0
540 1 2.5339362250925490e-01 5.6295304473926215e+00 8.9368331942853629e+00 0 0 1
4861 1 6.4160567658602670e+00 6.0758988384537043e+00 6.1700145181714179e+00 1 1 1
273 1 9.4680554270735495e+00 8.5300715265574478e+00 4.5034168372433925e+00 0 0 0
4668 1 7.1270962910992015e+00 8.9566871968997521e+00 5.8373024153843822e+00 0 1 1
6215 1 8.6824191900344339e+00 1.1850112002156855e+01 8.7068833267188133e+00 0 0 1
1911 1 8.9393340585124736e+00 3.1614490858491422e+00 4.6563585487901964e+00 0 0 0
15 1 1.1891030930467496e+01 4.0451695361001674e+00 4.4714482722180300e+00 0 1 1
3707 1 3.4879221338406907e+00 9.4971362147515510e+00 5.2575935369883489e+00 1 0 0
1823 1 5.7997539577669910e+00 1.1021341437482326e+01 4.4689966776939318e+00 0 1 1
4922 1 3.0831587373856530e-02 7.3919600065810513e+00 4.1195255816202252e+00 0 1 1
5280 1 2.6312969137244269e-01 1.0455741749118660e+01 4.9090136576466605e+00 1 0 0
2928 1 1.1196727925365275e+01 1.0673133933938608e+01 4.8381821046985500e+00 0 0 1
4688 1 1.1500593454874535e+01 4.8798486864590078e+00 7.4030804482821457e+00 0 1 1
1491 1 8.9329729996876395e-01 3.8898731533775539e+00 6.8378446300973197e+00 1 0 1
4525 1 5.3528954440074950e+00 2.6412583363674824e+00 7.9528287432825309e+00 0 1 1
3308 1 9.5439696011776913e+00 2.0491660184118570e+00 8.6656903093516497e+00 1 1 0
3424 1 1.1294011716819519e+01 6.2844149516197234e+00 2.8420496117862672e+00 1 0 0
5358 1 1.1435314366932728e+01 1.0253595656788865e+00 3.0462104246131156e+00 -1 1 1
109 1 2.6046787820194837e+00 1.7628631435992157e+00 7.8343410442242334e+00 1 2 1
5007 1 7.3317112074018631e+00 9.2564773834934009e+00 8.3644009092005174e+00 1 0 0
5055 1 3.0320952692823377e+00 6.6652471554366217e+00 8.8573242892472344e+00 1 0 0
6489 1 1.0604074152632332e+01 9.3733547884705587e-02 7.0506548581855339e+00 0 -1 1
5205 1 5.1285876897716165e-01 8.7013986115095054e+00 8.9019142219874148e+00 1 0 0
6449 1 8.8166883536140297e+00 7.6723435821220924e+00 2.0649259011213585e+00 0 1 1
337 1 8.2623486800160051e-01 1.4018155309800162e+00 2.4973701644250976e+00 1 1 0
516 1 1.9393942612741752e+00 1.9977736110151509e+00 1.0924035122853839e+01 0 0 1
3257 1 8.6807914232426047e+00 9.2262926445313447e+00 1.4956594302763202e+01 1 1 1
5190 1 6.4166284059439906e+00 2.8445862450659112e+00 1.1530626391944853e+01 1 1 1
1391 1 1.0855827687055825e+01 1.5122083631918521e+00 1.1249355869120492e+01 -1 1 1
360 1 4.9188354039392044e+00 8.5168803168724505e+00 1.2372982981953742e+01 1 1 1
5444 1 3.7449964752083162e+00 4.3048617011023476e+00 1.1301691909563338e+01 0 0 1
5185 1 6.6750151075234161e+00 6.3158256270679116e+00 1.1457088440396078e+01 1 0 1
501 1 2.6661911170663255e+00 6.7925360057911526e+00 1.2514937540691554e+01 1 0 0
418 1 1.0381704393647745e+01 1.1458205597186916e+01 1.4316323535014913e+01 2 0 0
3279 1 1.1309627058140222e+01 6.7744245474464364e+00 1.1081160656705544e+01 0 0 1
5418 1 2.5465543898593901e-01 8.3576019740274354e+00 1.1924798836500033e+01 0 0 0
1442 1 7.7635370286253549e+00 1.1477066122288589e+01 1.2942646610802299e+01 0 0 0
1993 1 5.3875172867176948e+00 1.1103536139404492e+01 1.1626802743743610e+01 1 0 0
1337 1 1.0808112360758219e+01 7.3891324687633970e+00 1.5189275025009497e+01 1 0 1
5248 1 1.3117264073978365e+00 9.8897116277440613e+00 1.5828298145335108e+01 0 -1 0
2198 1 1.2202117117177059e+01 9.3545980840458309e+00 1.4015315584542243e+01 1 0 1
65 1 2.7188887292512938e+00 1.6259840914562620e+00 1.3547904308343330e+01 1 0 0
5038 1 1.9198469607853677e+00 3.4511771140664331e+00 1.5539625676172829e+01 -1 0 1
4921 1 5.3574731292727913e+00 7.5462901675996896e-01 1.3315474221731346e+01 0 1 0
3009 1 3.4334221417789479e-01 7.2625081456538538e+00 1.5932029173240908e+01 0 1 1
1845 1 8.8834034219986826e+00 2.7648379152319085e+00 1.2747882001732217e+01 0 1 0
3287 1 1.0722579672556217e+01 9.8977946771806149e+00 9.3061506633944138e+00 1 0 0
2202 1 5.7524081572079817e+00 8.3267421843351421e+00 1.5042127972837267e+01 1 1 0
4893 1 5.7882769185291947e+00 5.4517806296610773e+00 1.5467341776688038e+01 1 0 0
5034 1 8.1422090116161030e+00 5.5185411139890874e+00 1.3598101825996192e+01 0 -1 0
4846 1 1.0971166707715321e+01 5.0422744787654734e+00 1.3293924264726073e+01 0 1 0
3594 1 4.7383003033316138e+00 8.9806466083461949e+00 9.2574812687059982e+00 -1 0 0
6338 1 2.4987765138054412e+00 1.0396935644779086e+01 1.3413123799680795e+01 1 1 0
1992 1 7.0699510467164863e+00 1.2296435611048284e+00 9.4090786099634691e+00 0 0 0
3453 1 9.2247666588298163e+00 1.6638531591156691e+00 1.5360034320218860e+01 1 0 0
4970 1 1.1866164332805081e+01 1.1911275140477716e+01 1.1539911711148690e+01 0 0 1
4503 1 2.9984655559130715e+00 5.9757613773710920e+00 1.5253363606965072e+01 1 0 0
5005 1 5.6610346672097371e+00 5.1339642702818242e+00 9.1945747914462039e+00 1 0 0
6459 1 8.7269299062000236e+00 7.0845399230752575e+00 9.8197733442017565e+00 -1 1 0
301 1 6.3517196425326201e+00 2.1443179593937121e+00 1.5808761519561164e+01 1 0 0
566 1 2.4101347238726025e+00 1.5949737172418681e+00 1.7845143643952113e+01 0 1 0
2001 1 1.0199454242552148e+00 4.3663518420389336e+00 2.1430246314123373e+01 1 0 0
3120 1 9.5867959821690700e+00 8.8086733784787530e+00 1.9544590418202365e+01 0 0 1
102 1 3.4996519723529351e+00 9.4427887205822909e+00 2.1281263498493935e+01 0 0 0
162 1 9.6698256675687642e+00 4.6832763388394136e+00 1.8576690959014346e+01 1 1 0
319 1 1.1092177390328706e+01 7.3227531653407907e-01 1.9347881417603887e+01 0 1 1
4809 1 3.3071368564921322e+00 6.6774100106023342e+00 1.8010840549803646e+01 1 1 1
2936 1 6.7497076338054489e+00 4.6547192309077143e+00 1.7946227964927978e+01 0 0 0
68 1 5.6221765563983768e+00 6.3185620675082426e+00 1.9956160091650574e+01 0 1 1
283 1 1.0840712429560535e+01 7.1712338160099760e+00 1.8019664030129373e+01 0 1 0
5245 1 3.6489273047984092e+00 9.4206946528472741e+00 1.7189342615748728e+01 0 1 0
5001 1 1.0831561546732294e+01 1.1019392847490748e+01 2.1389777002458594e+01 1 0 0
1418 1 6.1202776114971682e+00 1.1168676536682534e+01 1.7515145526195752e+01 0 1 1
409 1 2.7650466973153724e+00 1.1430710154888148e+01 1.8948826347600576e+01 0 0 0
1533 1 9.3317697421743706e-01 8.6326637206050361e+00 2.1716929389799507e+01 1 1 1
3605 1 8.7929744284387805e+00 1.0602174185022911e+01 1.7410109380866558e+01 -1 0 0
3189 1 1.0744717617308041e+01 2.4992909119417646e+00 1.7294658634981456e+01 0 1 0
318 1 2.6585503815855964e+00 2.3148810260938464e+00 2.0464408083578679e+01 1 0 0
308 1 7.6627506219027337e+00 9.9620578681965686e+00 2.1456334980655651e+01 0 0 0
1693 1 5.5533419926023955e+00 3.1933165165993844e+00 2.0609703227165980e+01 0 2 0
3477 1 7.8613328716063737e+00 6.6264924312755742e+00 2.1667142361146059e+01 1 -1 0
5220 1 1.0044687906773069e+01 4.8000220319902658e+00 2.1509622259189207e+01 1 1 0
2889 1 9.2483113744115411e+00 1.6556848355319800e+00 2.1240329041252192e+01 0 1 1
1665 1 1.2440343211177103e+00 6.6232495166290377e+00 1.9883768124081332e+01 0 1 1
3037 1 3.6689605864804395e+00 5.2280362254498760e+00 2.1875743517407315e+01 0 0 1
3461 1 5.6136347616724613e+00 8.9830717561807045e+00 1.9651569831376317e+01 0 1 0
5033 1 7.1236352668500022e-02 1.1751334587825253e+01 1.8094455066883601e+01 1 -1 0
4869 1 5.7630771692056406e+00 3.7457183803043503e-01 2.0092990456817876e+01 0 0 1
1456 1 4.6792590063644646e+00 5.1667052290076954e-01 1.7370542933679495e+01 1 0 1
3542 1 1.4627079903187372e+00 1.1808466244619256e-01 2.1687534357142884e+01 1 0 0
1627 1 9.6279154993809424e-01 4.3287446590932994e+00 2.4367159772468945e+01 0 0 1
2081 1 8.3176318177194322e+00 1.2787048113289610e+00 2.4105250629901210e+01 1 0 0
3249 1 3.6458915817929887e+00 3.0229515288235267e+00 2.4588630302298753e+01 1 0 0
3167 1 1.1286456287385404e+01 3.9793309737052074e-01 2.3248469733477453e+01 0 1 1
3336 1 5.9748900307486092e+00 3.1666375577701364e+00 2.3298623022770002e+01 0 1 0
1416 1 4.2671964152514539e+00 9.1557126860126132e+00 2.4136370047880320e+01 0 1 1
3516 1 4.0215797061680068e+00 6.4528757637646414e+00 2.4688717923932128e+01 2 1 0
1521 1 6.8211466408488581e+00 5.6680084461972680e+00 2.4241958827717273e+01 0 0 1
750 2 9.8440000000000012e+00 8.5251540748539956e+00 2.6867725963243341e+01 0 0 0
4960 1 9.2225238757947938e+00 4.0775844023527403e+00 2.4377743066624618e+01 0 0 1
442 1 1.3750850867219515e+00 7.0839165119854792e+00 2.4140814151732172e+01 0 0 0
1949 1 2.7475066586737111e+00 6.4803210127135202e-01 2.4253234055946415e+01 0 1 0
5151 1 6.7590405225809480e+00 9.8674792512623952e+00 2.4338966915116742e+01 0 0 0
392 1 1.0631389238833311e+01 1.0996613128111084e+01 2.4320185000551270e+01 1 1 0
3591 1 1.1059306981120498e+01 6.1676967308151918e+00 2.4285431506241945e+01 1 0 0
4928 1 9.2916474679002672e+00 8.5405995460741995e+00 2.4135395951915886e+01 1 1 0
572 2 0.0000000000000000e+00 2.8417180249513345e+00 2.6867725963243341e+01 0 0 0
574 2 0.0000000000000000e+00 0.0000000000000000e+00 2.6867725963243341e+01 0 0 0
576 2 1.2305000000000001e+00 7.1042950623783474e-01 2.6867725963243341e+01 0 0 0
583 2 1.2305000000000001e+00 2.1312885187134998e+00 2.6867725963243341e+01 0 0 0
585 2 2.4610000000000003e+00 2.8417180249513345e+00 2.6867725963243341e+01 0 0 0
587 2 2.4610000000000003e+00 0.0000000000000000e+00 2.6867725963243341e+01 0 0 0
589 2 3.6915000000000004e+00 7.1042950623783474e-01 2.6867725963243341e+01 0 0 0
604 2 3.6914999999999996e+00 2.1312885187134998e+00 2.6867725963243341e+01 0 0 0
606 2 4.9220000000000006e+00 2.8417180249513332e+00 2.6867725963243341e+01 0 0 0
608 2 4.9220000000000006e+00 0.0000000000000000e+00 2.6867725963243341e+01 0 0 0
610 2 6.1524999999999999e+00 7.1042950623783407e-01 2.6867725963243341e+01 0 0 0
633 2 6.1524999999999999e+00 2.1312885187134989e+00 2.6867725963243341e+01 0 0 0
635 2 7.3829999999999991e+00 2.8417180249513345e+00 2.6867725963243341e+01 0 0 0
637 2 7.3829999999999991e+00 0.0000000000000000e+00 2.6867725963243341e+01 0 0 0
639 2 8.6134999999999984e+00 7.1042950623783407e-01 2.6867725963243341e+01 0 0 0
670 2 8.6134999999999984e+00 2.1312885187135002e+00 2.6867725963243341e+01 0 0 0
672 2 9.8440000000000012e+00 2.8417180249513332e+00 2.6867725963243341e+01 0 0 0
674 2 9.8440000000000012e+00 0.0000000000000000e+00 2.6867725963243341e+01 0 0 0
676 2 1.1074500000000002e+01 7.1042950623783330e-01 2.6867725963243341e+01 0 0 0
715 2 1.1074500000000002e+01 2.1312885187135002e+00 2.6867725963243341e+01 0 0 0
579 2 0.0000000000000000e+00 4.2625770374269996e+00 2.6867725963243341e+01 0 0 0
581 2 1.2305000000000001e+00 4.9730065436648339e+00 2.6867725963243341e+01 0 0 0
596 2 1.2305000000000001e+00 6.3938655561404980e+00 2.6867725963243341e+01 0 0 0
600 2 2.4610000000000003e+00 4.2625770374269996e+00 2.6867725963243341e+01 0 0 0
602 2 3.6914999999999996e+00 4.9730065436648339e+00 2.6867725963243341e+01 0 0 0
625 2 3.6914999999999996e+00 6.3938655561404980e+00 2.6867725963243341e+01 0 0 0
577 2 0.0000000000000000e+00 7.1042950623783341e+00 2.6867725963243341e+01 0 0 0
598 2 2.4610000000000003e+00 7.1042950623783341e+00 2.6867725963243341e+01 0 0 0
629 2 4.9220000000000006e+00 4.2625770374269978e+00 2.6867725963243341e+01 0 0 0
631 2 6.1524999999999999e+00 4.9730065436648339e+00 2.6867725963243341e+01 0 0 0
662 2 6.1524999999999999e+00 6.3938655561404980e+00 2.6867725963243341e+01 0 0 0
666 2 7.3829999999999991e+00 4.2625770374269996e+00 2.6867725963243341e+01 0 0 0
627 2 4.9220000000000006e+00 7.1042950623783341e+00 2.6867725963243341e+01 0 0 0
664 2 7.3830000000000009e+00 7.1042950623783341e+00 2.6867725963243341e+01 0 0 0
668 2 8.6135000000000002e+00 4.9730065436648339e+00 2.6867725963243341e+01 0 0 0
707 2 8.6135000000000002e+00 6.3938655561404980e+00 2.6867725963243341e+01 0 0 0
711 2 9.8440000000000012e+00 4.2625770374270004e+00 2.6867725963243341e+01 0 0 0
713 2 1.1074500000000002e+01 4.9730065436648339e+00 2.6867725963243341e+01 0 0 0
754 2 1.1074500000000002e+01 6.3938655561404980e+00 2.6867725963243341e+01 0 0 0
709 2 9.8440000000000012e+00 7.1042950623783341e+00 2.6867725963243341e+01 0 0 0
592 2 0.0000000000000000e+00 8.5251540748539991e+00 2.6867725963243341e+01 0 0 0
594 2 1.2305000000000001e+00 9.2355835810918343e+00 2.6867725963243341e+01 0 0 0
621 2 2.4610000000000003e+00 8.5251540748539991e+00 2.6867725963243341e+01 0 0 0
623 2 3.6915000000000004e+00 9.2355835810918343e+00 2.6867725963243341e+01 0 0 0
590 2 0.0000000000000000e+00 1.1366872099805333e+01 2.6867725963243341e+01 0 0 0
617 2 1.2305000000000001e+00 1.0656442593567498e+01 2.6867725963243341e+01 0 0 0
619 2 2.4610000000000003e+00 1.1366872099805333e+01 2.6867725963243341e+01 0 0 0
654 2 3.6914999999999996e+00 1.0656442593567499e+01 2.6867725963243341e+01 0 0 0
658 2 4.9220000000000006e+00 8.5251540748539991e+00 2.6867725963243341e+01 0 0 0
660 2 6.1524999999999999e+00 9.2355835810918343e+00 2.6867725963243341e+01 0 0 0
703 2 7.3830000000000009e+00 8.5251540748539991e+00 2.6867725963243341e+01 0 0 0
656 2 4.9220000000000006e+00 1.1366872099805333e+01 2.6867725963243341e+01 0 0 0
699 2 6.1524999999999999e+00 1.0656442593567499e+01 2.6867725963243341e+01 0 0 0
701 2 7.3829999999999991e+00 1.1366872099805333e+01 2.6867725963243341e+01 0 0 0
746 2 8.6134999999999984e+00 1.0656442593567498e+01 2.6867725963243341e+01 0 0 0
752 2 1.1074500000000002e+01 9.2355835810918343e+00 2.6867725963243341e+01 0 0 0
748 2 9.8440000000000012e+00 1.1366872099805333e+01 2.6867725963243341e+01 0 0 0
705 2 8.6134999999999984e+00 9.2355835810918343e+00 2.6867725963243341e+01 0 0 0
795 2 1.2304999999999998e+01 1.1366872099805333e+01 2.6867725963243341e+01 0 0 0
793 2 1.1074500000000002e+01 1.0656442593567498e+01 2.6867725963243341e+01 0 0 0
3354 1 2.5661633041010581e+00 1.1526762561097868e+01 2.4166230134516777e+01 0 1 0
573 2 0.0000000000000000e+00 1.4208590124756650e+00 3.0031000000000315e+01 0 0 0
575 2 0.0000000000000000e+00 0.0000000000000000e+00 3.0031000000000315e+01 0 0 0
584 2 1.2305000000000001e+00 2.1312885187134998e+00 3.0031000000000315e+01 0 0 0
586 2 2.4610000000000003e+00 1.4208590124756650e+00 3.0031000000000315e+01 0 0 0
588 2 2.4610000000000003e+00 0.0000000000000000e+00 3.0031000000000315e+01 0 0 0
605 2 3.6914999999999996e+00 2.1312885187134998e+00 3.0031000000000315e+01 0 0 0
582 2 1.2305000000000001e+00 3.5521475311891644e+00 3.0031000000000315e+01 0 0 0
603 2 3.6914999999999996e+00 3.5521475311891644e+00 3.0031000000000315e+01 0 0 0
901 2 0.0000000000000000e+00 2.8417180249513345e+00 3.3194274036755317e+01 0 0 0
902 2 0.0000000000000000e+00 0.0000000000000000e+00 3.3194274036755317e+01 0 0 0
903 2 1.2305000000000001e+00 7.1042950623783474e-01 3.3194274036755317e+01 0 0 0
907 2 1.2305000000000001e+00 2.1312885187134998e+00 3.3194274036755317e+01 0 0 0
908 2 2.4610000000000003e+00 2.8417180249513345e+00 3.3194274036755317e+01 0 0 0
909 2 2.4610000000000003e+00 0.0000000000000000e+00 3.3194274036755317e+01 0 0 0
910 2 3.6915000000000004e+00 7.1042950623783474e-01 3.3194274036755317e+01 0 0 0
918 2 3.6914999999999996e+00 2.1312885187134998e+00 3.3194274036755317e+01 0 0 0
607 2 4.9220000000000006e+00 1.4208590124756650e+00 3.0031000000000315e+01 0 0 0
609 2 4.9220000000000006e+00 0.0000000000000000e+00 3.0031000000000315e+01 0 0 0
634 2 6.1524999999999999e+00 2.1312885187134989e+00 3.0031000000000315e+01 0 0 0
636 2 7.3829999999999991e+00 1.4208590124756659e+00 3.0031000000000315e+01 0 0 0
638 2 7.3829999999999991e+00 0.0000000000000000e+00 3.0031000000000315e+01 0 0 0
632 2 6.1524999999999999e+00 3.5521475311891644e+00 3.0031000000000315e+01 0 0 0
919 2 4.9220000000000006e+00 2.8417180249513332e+00 3.3194274036755317e+01 0 0 0
920 2 4.9220000000000006e+00 0.0000000000000000e+00 3.3194274036755317e+01 0 0 0
921 2 6.1524999999999999e+00 7.1042950623783407e-01 3.3194274036755317e+01 0 0 0
933 2 6.1524999999999999e+00 2.1312885187134989e+00 3.3194274036755317e+01 0 0 0
934 2 7.3829999999999991e+00 2.8417180249513345e+00 3.3194274036755317e+01 0 0 0
935 2 7.3829999999999991e+00 0.0000000000000000e+00 3.3194274036755317e+01 0 0 0
671 2 8.6134999999999984e+00 2.1312885187135002e+00 3.0031000000000315e+01 0 0 0
673 2 9.8440000000000012e+00 1.4208590124756659e+00 3.0031000000000315e+01 0 0 0
675 2 9.8440000000000012e+00 0.0000000000000000e+00 3.0031000000000315e+01 0 0 0
716 2 1.1074500000000002e+01 2.1312885187135002e+00 3.0031000000000315e+01 0 0 0
669 2 8.6134999999999984e+00 3.5521475311891657e+00 3.0031000000000315e+01 0 0 0
714 2 1.1074500000000002e+01 3.5521475311891644e+00 3.0031000000000315e+01 0 0 0
936 2 8.6134999999999984e+00 7.1042950623783407e-01 3.3194274036755317e+01 0 0 0
952 2 8.6134999999999984e+00 2.1312885187135002e+00 3.3194274036755317e+01 0 0 0
953 2 9.8440000000000012e+00 2.8417180249513332e+00 3.3194274036755317e+01 0 0 0
954 2 9.8440000000000012e+00 0.0000000000000000e+00 3.3194274036755317e+01 0 0 0
955 2 1.1074500000000002e+01 7.1042950623783330e-01 3.3194274036755317e+01 0 0 0
975 2 1.1074500000000002e+01 2.1312885187135002e+00 3.3194274036755317e+01 0 0 0
578 2 0.0000000000000000e+00 5.6834360499026637e+00 3.0031000000000315e+01 0 0 0
580 2 0.0000000000000000e+00 4.2625770374269996e+00 3.0031000000000315e+01 0 0 0
597 2 1.2305000000000001e+00 6.3938655561404980e+00 3.0031000000000315e+01 0 0 0
599 2 2.4610000000000003e+00 5.6834360499026637e+00 3.0031000000000315e+01 0 0 0
601 2 2.4610000000000003e+00 4.2625770374269996e+00 3.0031000000000315e+01 0 0 0
626 2 3.6914999999999996e+00 6.3938655561404980e+00 3.0031000000000315e+01 0 0 0
595 2 1.2305000000000001e+00 7.8147245686161639e+00 3.0031000000000315e+01 0 0 0
624 2 3.6914999999999996e+00 7.8147245686161639e+00 3.0031000000000315e+01 0 0 0
905 2 0.0000000000000000e+00 4.2625770374269996e+00 3.3194274036755317e+01 0 0 0
906 2 1.2305000000000001e+00 4.9730065436648339e+00 3.3194274036755317e+01 0 0 0
914 2 1.2305000000000001e+00 6.3938655561404980e+00 3.3194274036755317e+01 0 0 0
916 2 2.4610000000000003e+00 4.2625770374269996e+00 3.3194274036755317e+01 0 0 0
917 2 3.6914999999999996e+00 4.9730065436648339e+00 3.3194274036755317e+01 0 0 0
929 2 3.6914999999999996e+00 6.3938655561404980e+00 3.3194274036755317e+01 0 0 0
904 2 0.0000000000000000e+00 7.1042950623783341e+00 3.3194274036755317e+01 0 0 0
915 2 2.4610000000000003e+00 7.1042950623783341e+00 3.3194274036755317e+01 0 0 0
628 2 4.9220000000000006e+00 5.6834360499026637e+00 3.0031000000000315e+01 0 0 0
630 2 4.9220000000000006e+00 4.2625770374269978e+00 3.0031000000000315e+01 0 0 0
663 2 6.1524999999999999e+00 6.3938655561404980e+00 3.0031000000000315e+01 0 0 0
665 2 7.3829999999999991e+00 5.6834360499026637e+00 3.0031000000000315e+01 0 0 0
667 2 7.3829999999999991e+00 4.2625770374269996e+00 3.0031000000000315e+01 0 0 0
661 2 6.1524999999999999e+00 7.8147245686161639e+00 3.0031000000000315e+01 0 0 0
931 2 4.9220000000000006e+00 4.2625770374269978e+00 3.3194274036755317e+01 0 0 0
932 2 6.1524999999999999e+00 4.9730065436648339e+00 3.3194274036755317e+01 0 0 0
948 2 6.1524999999999999e+00 6.3938655561404980e+00 3.3194274036755317e+01 0 0 0
950 2 7.3829999999999991e+00 4.2625770374269996e+00 3.3194274036755317e+01 0 0 0
930 2 4.9220000000000006e+00 7.1042950623783341e+00 3.3194274036755317e+01 0 0 0
949 2 7.3830000000000009e+00 7.1042950623783341e+00 3.3194274036755317e+01 0 0 0
708 2 8.6135000000000002e+00 6.3938655561404980e+00 3.0031000000000315e+01 0 0 0
710 2 9.8440000000000012e+00 5.6834360499026637e+00 3.0031000000000315e+01 0 0 0
712 2 9.8440000000000012e+00 4.2625770374270004e+00 3.0031000000000315e+01 0 0 0
755 2 1.1074500000000002e+01 6.3938655561404980e+00 3.0031000000000315e+01 0 0 0
706 2 8.6135000000000002e+00 7.8147245686161639e+00 3.0031000000000315e+01 0 0 0
753 2 1.1074500000000002e+01 7.8147245686161639e+00 3.0031000000000315e+01 0 0 0
951 2 8.6135000000000002e+00 4.9730065436648339e+00 3.3194274036755317e+01 0 0 0
971 2 8.6135000000000002e+00 6.3938655561404980e+00 3.3194274036755317e+01 0 0 0
973 2 9.8440000000000012e+00 4.2625770374270004e+00 3.3194274036755317e+01 0 0 0
974 2 1.1074500000000002e+01 4.9730065436648339e+00 3.3194274036755317e+01 0 0 0
995 2 1.1074500000000002e+01 6.3938655561404980e+00 3.3194274036755317e+01 0 0 0
972 2 9.8440000000000012e+00 7.1042950623783341e+00 3.3194274036755317e+01 0 0 0
591 2 0.0000000000000000e+00 9.9460130873296642e+00 3.0031000000000315e+01 0 0 0
593 2 0.0000000000000000e+00 8.5251540748539991e+00 3.0031000000000315e+01 0 0 0
620 2 2.4610000000000003e+00 9.9460130873296642e+00 3.0031000000000315e+01 0 0 0
622 2 2.4610000000000003e+00 8.5251540748539991e+00 3.0031000000000315e+01 0 0 0
616 2 1.2305000000000001e+00 1.2077301606043163e+01 3.0031000000000315e+01 0 0 0
618 2 1.2305000000000001e+00 1.0656442593567498e+01 3.0031000000000315e+01 0 0 0
653 2 3.6914999999999996e+00 1.2077301606043163e+01 3.0031000000000315e+01 0 0 0
655 2 3.6914999999999996e+00 1.0656442593567499e+01 3.0031000000000315e+01 0 0 0
912 2 0.0000000000000000e+00 8.5251540748539991e+00 3.3194274036755317e+01 0 0 0
913 2 1.2305000000000001e+00 9.2355835810918343e+00 3.3194274036755317e+01 0 0 0
927 2 2.4610000000000003e+00 8.5251540748539991e+00 3.3194274036755317e+01 0 0 0
928 2 3.6915000000000004e+00 9.2355835810918343e+00 3.3194274036755317e+01 0 0 0
911 2 0.0000000000000000e+00 1.1366872099805333e+01 3.3194274036755317e+01 0 0 0
925 2 1.2305000000000001e+00 1.0656442593567498e+01 3.3194274036755317e+01 0 0 0
926 2 2.4610000000000003e+00 1.1366872099805333e+01 3.3194274036755317e+01 0 0 0
944 2 3.6914999999999996e+00 1.0656442593567499e+01 3.3194274036755317e+01 0 0 0
657 2 4.9220000000000006e+00 9.9460130873296642e+00 3.0031000000000315e+01 0 0 0
659 2 4.9220000000000006e+00 8.5251540748539991e+00 3.0031000000000315e+01 0 0 0
702 2 7.3830000000000009e+00 9.9460130873296642e+00 3.0031000000000315e+01 0 0 0
704 2 7.3830000000000009e+00 8.5251540748539991e+00 3.0031000000000315e+01 0 0 0
698 2 6.1524999999999999e+00 1.2077301606043163e+01 3.0031000000000315e+01 0 0 0
700 2 6.1524999999999999e+00 1.0656442593567499e+01 3.0031000000000315e+01 0 0 0
946 2 4.9220000000000006e+00 8.5251540748539991e+00 3.3194274036755317e+01 0 0 0
947 2 6.1524999999999999e+00 9.2355835810918343e+00 3.3194274036755317e+01 0 0 0
969 2 7.3830000000000009e+00 8.5251540748539991e+00 3.3194274036755317e+01 0 0 0
945 2 4.9220000000000006e+00 1.1366872099805333e+01 3.3194274036755317e+01 0 0 0
967 2 6.1524999999999999e+00 1.0656442593567499e+01 3.3194274036755317e+01 0 0 0
968 2 7.3829999999999991e+00 1.1366872099805333e+01 3.3194274036755317e+01 0 0 0
749 2 9.8440000000000012e+00 9.9460130873296642e+00 3.0031000000000315e+01 0 0 0
751 2 9.8440000000000012e+00 8.5251540748539956e+00 3.0031000000000315e+01 0 0 0
745 2 8.6135000000000002e+00 1.2077301606043163e+01 3.0031000000000315e+01 0 0 0
747 2 8.6134999999999984e+00 1.0656442593567498e+01 3.0031000000000315e+01 0 0 0
792 2 1.1074500000000002e+01 1.2077301606043163e+01 3.0031000000000315e+01 0 0 0
794 2 1.1074500000000002e+01 1.0656442593567498e+01 3.0031000000000315e+01 0 0 0
970 2 8.6134999999999984e+00 9.2355835810918343e+00 3.3194274036755317e+01 0 0 0
993 2 9.8440000000000012e+00 8.5251540748539956e+00 3.3194274036755317e+01 0 0 0
994 2 1.1074500000000002e+01 9.2355835810918343e+00 3.3194274036755317e+01 0 0 0
991 2 8.6134999999999984e+00 1.0656442593567498e+01 3.3194274036755317e+01 0 0 0
992 2 9.8440000000000012e+00 1.1366872099805333e+01 3.3194274036755317e+01 0 0 0
1015 2 1.1074500000000002e+01 1.0656442593567498e+01 3.3194274036755317e+01 0 0 0
1016 2 1.2304999999999998e+01 1.1366872099805333e+01 3.3194274036755317e+01 0 0 0
1499 1 6.8368749571149046e+00 1.8744496433324707e+00 3.6051260984004621e+01 -1 0 0
1503 1 3.7257251177201200e+00 1.3446441559843367e+00 3.6217568971159118e+01 0 1 0
529 1 3.2603987160485088e+00 4.4480393071363507e+00 3.5752175415350358e+01 0 0 0
1334 1 8.8526424622797180e+00 4.0633190511165242e+00 3.5986856787478757e+01 0 2 0
320 1 2.5625427171611932e+00 1.1483149099454048e+01 3.6417064337346055e+01 -1 0 0
4682 1 5.0632625226650918e-01 4.9901233023528899e+00 3.6148101786887153e+01 0 0 0
4973 1 2.7919859735693913e+00 8.7171020375390764e+00 3.5617373873317973e+01 1 0 -1
3633 1 4.6904970561836867e+00 6.8238644527453465e+00 3.6168053500262744e+01 0 1 0
1923 1 7.5140209039894286e+00 6.6450380676007841e+00 3.5851557340770860e+01 0 1 -1
365 1 1.1740633927874530e+01 3.5885553703862949e+00 3.5943828065588505e+01 0 0 -1
6390 1 7.5988560249396508e+00 1.1179212939674867e+01 3.5995498442739780e+01 -1 1 -1
3019 1 9.3446164768061255e+00 8.7033034830361355e+00 3.6119123543682690e+01 0 -1 0
6380 1 1.2188583911217094e+01 8.5059281450342716e+00 3.5667353804518150e+01 0 1 0
3113 1 1.7216509918162518e-01 7.5233685108793100e+00 3.5782938685432811e+01 1 0 0
6447 1 2.4348915222736038e+00 3.3023100315930107e+00 3.8937163713001901e+01 1 1 0
1344 1 3.5198194204249700e-01 1.1782838912022719e+01 4.1516651855073860e+01 1 0 0
296 1 4.8179852806519321e+00 1.9657097865907482e+00 3.8654268036996996e+01 1 0 0
3786 1 6.8491610706756676e+00 3.5955767246217181e+00 4.0218630718924977e+01 0 1 0
1778 1 8.5933353552407468e+00 1.6435610980178434e+00 3.8481902734198904e+01 1 0 0
3690 1 2.3869956207333725e+00 1.1945512513892332e+01 4.3244305051293438e+01 1 -1 0
222 1 6.7748123070631450e-01 5.7038979649411674e+00 3.8873382008646054e+01 0 1 -1
4690 1 4.8025862711265743e+00 6.9624274238323656e+00 3.8920608375118057e+01 0 1 0
6304 1 8.8683545329307165e+00 5.0094253702845704e+00 3.8743089469495487e+01 0 -1 -1
326 1 8.6970017839559883e+00 7.7430303200404360e+00 3.9162357222471208e+01 0 0 -1
5072 1 2.2782948920029984e+00 7.9679525824683690e+00 3.8733091206846701e+01 1 0 -1
4801 1 2.5222649465357079e+00 1.1193710393690282e+01 3.9179835641066525e+01 0 0 -1
5350 1 1.0386613297626283e+01 1.0607412017939312e+01 4.2410828924229357e+01 0 1 0
1303 1 6.8494327167143227e+00 1.1384188311487101e+01 3.8882372199019272e+01 1 0 0
1881 1 6.2412721166753222e+00 8.9263514677076170e+00 3.9634599113405677e+01 0 0 -1
6137 1 6.5682452511004303e+00 1.1773799229675642e+01 4.2777797533178088e+01 1 1 0
1359 1 1.1668685600006921e+01 8.3713696418023567e+00 3.8609151995181726e+01 0 0 0
4815 1 2.0869324892850196e+00 1.7063003860277164e+00 4.1097093360118812e+01 0 0 0
2956 1 9.6245158373480617e+00 7.9985097498005420e+00 4.1844187050184580e+01 0 1 0
6444 1 7.3579572895482928e+00 1.7312562804605716e+00 4.2348554314247103e+01 -1 0 -1
4626 1 4.4409213491668202e+00 1.9216473899259796e+00 4.2898678288338964e+01 -1 -1 0
4618 1 9.1169956909767826e+00 3.5838096537035184e+00 4.3796170434962235e+01 -1 1 0
1302 1 4.3179604278792016e-01 7.2364675852837275e+00 4.3154547176638964e+01 2 1 0
2191 1 3.6033592690418392e+00 6.3930498329155325e+00 4.3214749550749517e+01 0 1 0
5370 1 6.7582829592510656e+00 5.0046986378660172e+00 4.2887256576403679e+01 1 1 -1
3302 1 4.3082998211507508e+00 4.8922793990662656e+00 4.0770672616290653e+01 1 0 -1
6457 1 7.4733973259939503e+00 7.5217320151084852e+00 4.3392458173285341e+01 1 1 -1
3344 1 5.6887266540213215e+00 9.3193180000957092e+00 4.2377309098486940e+01 0 0 0
4537 1 1.1547063433781521e+01 6.4984408608412121e+00 4.3167444765735176e+01 0 1 0
2870 1 2.9849613426398189e+00 9.3190095561390649e+00 4.3489686184362725e+01 0 0 0
1323 1 8.1870321048015082e-01 8.8892554147479288e+00 4.1015617958066812e+01 2 0 0
1455 1 1.1267252763203230e+01 3.9726563709095486e+00 4.1816996542815367e+01 1 0 0
2919 1 1.1949201257667459e+01 3.9230797931504497e+00 3.8871901611070797e+01 0 1 0
2013 1 1.2016580312736028e+01 1.1270583674847982e+01 3.8442506885768239e+01 0 1 0
6111 1 2.9756423891316754e+00 1.1481180560507327e+00 4.6495138609674314e+01 1 1 -1
6164 1 2.6056785062211132e+00 5.3269803276448915e+00 4.8362362934324146e+01 1 1 0
5125 1 6.6605631968084227e+00 3.2440403960974229e+00 4.7510481443517840e+01 0 0 -1
4934 1 9.4449319974753738e+00 9.5914330991695405e+00 4.8273105961557150e+01 0 0 -1
3127 1 8.0523473144538205e+00 8.8744847732338361e-01 4.6739299791608723e+01 0 1 0
1651 1 9.6519216023579215e+00 4.2757671608115437e+00 4.6770193646813148e+01 0 0 -1
6443 1 4.8162849993383414e+00 6.7017797193163000e+00 4.6608568845761916e+01 1 -1 -1
6269 1 2.0504746351743179e+00 2.6161098970906864e+00 4.4406750566294043e+01 1 -1 0
6183 1 3.6013686223774561e+00 2.8794914877158782e+00 4.8836380039047512e+01 0 1 0
20 1 1.1561068227404927e+01 6.5566983372735770e+00 4.5858622159327133e+01 -1 1 -1
5086 1 3.4660778449752194e+00 9.3662601536172705e+00 4.6357616480209551e+01 1 0 -1
5332 1 5.7555010892235474e+00 1.0630098159738541e+01 4.7489701701141428e+01 1 1 -1
1588 1 7.4604456891838202e+00 6.1196794880300125e+00 4.7514267259196181e+01 1 0 0
219 1 8.9202472083095881e+00 8.0768999754137845e+00 4.5767748731343069e+01 0 0 0
4789 1 1.7951925680760692e+00 5.1818715104525381e+00 4.5308049418608121e+01 2 0 0
16 1 5.1366696920936352e+00 4.0943828001435500e+00 4.5325970922334136e+01 0 0 0
1340 1 1.3347053612590085e-01 1.2117171744241039e+01 4.5357191132315805e+01 1 1 0
3222 1 1.0433243813519022e+01 1.0772342098452594e+01 4.5199553746797960e+01 0 1 0
2210 1 7.8228597881394570e+00 1.2059195121767676e+01 4.5551712152988280e+01 0 0 0