LAMMPS data file via write_data, version 16 Mar 2018, timestep = 6000000

6489 atoms
2 atom types

0.0000000000000000e+00 4.9219999999999999e+01 xlo xhi
0.0000000000000000e+00 4.9019635930410494e+01 ylo yhi
5.3589725847713865e-01 5.9526102741520958e+01 zlo zhi

Masses

1 18.015
2 12.01

Atoms # atomic

5143 1 1.7259559822533441e+00 2.0271861591249776e+00 2.8211476938704880e+00 0 -1 0
6372 1 2.2886716895035786e-04 6.9310339335758258e+00 2.8234414444775071e+00 1 -3 0
4822 1 6.2960903516777682e+00 2.2843943881830886e+00 3.4070770589222055e+00 1 -1 1
564 1 4.0189438759023144e+00 3.1926543819869160e+00 2.1357507456528939e+00 1 2 0
6141 1 8.5623396426421596e+00 2.9096611719191472e+00 1.9274332477614906e+00 -1 -1 1
2166 1 1.0550052564645931e+01 1.3498418488829584e+00 2.8121741785859107e+00 -3 0 1
13 1 2.4338732189310583e+00 7.5182324641144840e+00 1.9492687976834642e+00 4 3 0
6261 1 4.4738348746407937e+00 5.7553609902980165e+00 2.9750871447487026e+00 1 -1 1
4663 1 6.9066404347272394e+00 7.0626548844117263e+00 2.3836835582854814e+00 -2 1 1
3254 1 9.0268235675945014e+00 5.4806997594087630e+00 3.1043854059510854e+00 4 0 0
3341 1 1.1219424023357529e+01 6.6378160767198047e+00 2.0237689113280206e+00 -1 1 1
4867 1 2.7863212275219662e+00 1.0021908245765228e+01 2.9660503196659804e+00 0 -2 1
4942 1 1.1326414675176256e+01 9.3931678000211161e+00 5.8873519686688445e+00 -1 1 0
1355 1 5.2045417391102973e+00 1.1059633163014727e+01 2.1617283923643442e+00 -4 2 0
6122 1 7.2386180871280494e+00 9.6690659311880900e+00 3.2343338645570840e+00 1 2 1
213 1 1.1617039710807548e+01 9.1461490692212362e+00 3.0895842715000317e+00 -1 -2 0
4623 1 9.7701379007558167e+00 1.0913753433000004e+01 2.6182191932570520e+00 -1 -2 0
5278 1 2.0750123422067057e+00 2.4538987020394769e+00 5.6596302907539648e+00 3 -1 1
3668 1 3.8590540740960120e+00 6.3493000552394441e-01 6.7041710521182054e+00 -1 2 1
177 1 6.5748254391788903e+00 1.3775001993188698e+00 6.0123984247593905e+00 2 1 1
6139 1 1.0765802204148127e+01 1.2140948025009162e+00 5.7710591649907244e+00 1 1 0
4788 1 1.0958267083001072e+01 3.6246494084741165e+00 6.7442551711229548e+00 4 1 0
4780 1 2.5152667945523893e-01 6.5382745846258707e+00 5.5408101455770042e+00 4 1 1
2060 1 4.3361333402660955e+00 8.5655270957695731e+00 6.7257548556744018e+00 1 0 0
85 1 2.2180218744832589e+00 4.8340750557427423e+00 6.2273932802391982e+00 0 2 1
3721 1 4.5331877583321125e+00 6.0921350884314833e+00 5.6004259612400524e+00 -1 2 0
3618 1 6.3110324182808757e+00 4.1412696447943071e+00 6.9130613404573804e+00 -1 1 0
1712 1 9.1690637282202712e+00 7.9750560431069717e+00 6.9487799145136551e+00 -1 3 1
6153 1 8.8518635553555018e+00 5.3568512195528148e+00 5.8878804884545506e+00 0 3 0
1544 1 2.5833082207994473e+00 1.0274213232490585e+01 5.6111971372561413e+00 0 -1 0
4690 1 3.0375801519636580e-01 9.1379766500089712e+00 6.4645771014960278e+00 2 1 1
1570 1 7.0807242466728111e+00 9.4323380606741587e+00 5.9074442326185110e+00 1 3 1
6221 1 4.5867997849703812e-01 1.1481378753829565e+01 2.1645549306041754e+00 3 0 1
1864 1 1.1975193627923167e+01 1.1807658134728051e+01 6.8560707883063534e+00 1 -1 0
4985 1 7.4315043079731771e+00 1.1974077364086048e+01 6.7397614801260355e+00 -1 0 1
3447 1 1.9948366252321688e+00 2.4463552689621793e+00 1.0362744098693543e+01 0 -1 1
1643 1 3.7810867614227757e+00 4.4019455144977371e-01 9.6236659042582442e+00 2 3 0
2030 1 6.3720353867327546e+00 1.5775046084436914e+00 1.0506005775776501e+01 3 3 0
5050 1 1.1001399524874921e+01 1.0315164495459599e+00 1.0387857893254562e+01 1 0 0
4649 1 1.1248372154525816e+01 3.6261635566570796e+00 9.4294193538644890e+00 -1 0 1
454 1 2.3426473430897130e+00 4.9666377116816536e+00 9.0529757078820978e+00 0 5 1
4740 1 6.7425091727370781e+00 4.2992918614294773e+00 9.8295214551885550e+00 1 2 0
1418 1 4.5703332126514100e+00 5.8408090083276578e+00 1.0472468733501900e+01 -2 1 1
5361 1 9.2932904673571688e+00 5.1403069738202163e+00 1.0627242045655494e+01 3 0 0
315 1 9.3286532308965686e+00 7.6489123083024042e+00 9.6212904363980751e+00 1 0 1
1728 1 2.5439575444065383e+00 1.0139462311169229e+01 1.0221229575923072e+01 -1 -1 0
264 1 1.5011587015692412e-01 9.1931649567720157e+00 9.2745702714126708e+00 -1 1 1
437 1 4.8085567068112320e+00 8.3691928953304231e+00 9.4002809073785976e+00 0 -1 0
6120 1 7.1865399963992944e+00 9.3329177764222617e+00 1.0232507837412939e+01 0 -1 1
3138 1 9.8858145841048248e+00 1.0242003857723255e+01 1.4109043534819255e+01 0 1 1
3631 1 1.1698318771696552e+01 8.6758007202577101e+00 1.0319721275226957e+01 0 -1 1
6165 1 5.2375719831102003e+00 1.1638237856224345e+01 1.4038567221959486e+01 -2 2 1
176 1 1.8882756525405118e+00 2.5063785349925509e+00 1.3180103307901762e+01 1 -3 0
5139 1 4.3154436468597313e+00 3.5234360689565962e+00 1.4244630824916834e+01 0 -1 0
3454 1 7.2868171259249879e+00 1.2210458550595307e+01 9.4056430814992904e+00 2 2 0
6326 1 6.0947768588004072e+00 1.6584016633206982e+00 1.3193370746311031e+01 -2 -2 0
1622 1 8.7410399948582924e+00 2.8164606887366639e+00 1.3921617777881231e+01 -4 -1 1
1647 1 1.0981208686834186e+01 1.2723969198018206e+00 1.3179203271722924e+01 2 2 1
1532 1 1.1495427674497320e+01 8.5413215048188231e+00 1.3067366270790279e+01 -1 1 1
3469 1 2.5841190053260665e+00 8.0671550076839740e+00 1.3869044912074827e+01 2 2 1
6337 1 4.6015003802160006e+00 6.1232370180539322e+00 1.3271550832844879e+01 0 3 1
5396 1 6.9139891525168675e+00 7.3444252721485244e+00 1.4470587915479966e+01 1 1 0
25 1 1.1327942128186489e+01 6.1683653417993769e+00 1.4305789399926713e+01 -1 -1 0
5448 1 8.5946014494333269e+00 5.3972613450800608e+00 1.3356733662450694e+01 1 -1 1
1264 1 2.9461407431579136e+00 1.0535186183516943e+01 1.3077859238751904e+01 1 1 1
1854 1 7.3448213093348276e+00 9.8120369414568369e+00 1.3194745929116474e+01 2 -1 1
1589 1 1.2117155691014201e+01 1.1352154160127430e+01 9.8577281401753929e+00 1 0 1
2102 1 2.8625760814848178e-01 6.6466374713650840e+00 1.0116568176575035e+01 0 0 1
79 1 9.5896300681318686e-02 7.0473862767113715e+00 1.2886953684683597e+01 1 -1 0
4723 1 8.7288349798020337e-01 1.2100047594498124e+01 1.3904898824851461e+01 -4 3 0
1940 1 8.3952005703115642e+00 2.3368877097311724e-02 9.5301717110874336e+00 0 4 0
2882 1 1.6218032860822766e+00 1.6706238699178755e-02 1.4304321992151788e+01 0 0 1
4702 1 4.1850729746915301e+00 3.7220548838948764e+00 1.6852746188734969e+01 -1 -1 1
4621 1 4.1108605381261629e+00 1.0636670490471674e+00 1.7600752272654550e+01 2 0 0
262 1 7.1710571912791305e+00 6.6630896464660039e-01 1.7436412139608734e+01 1 0 0
1586 1 8.4699854285919667e+00 3.0135094890877356e+00 1.6710603988296182e+01 0 -1 0
1630 1 1.0945376198027684e+01 3.3537081730994998e+00 1.7643828188321237e+01 -1 2 1
5186 1 2.1366694370321913e+00 5.3806200792650056e+00 1.7812490236204763e+01 2 0 0
239 1 2.6700332909935605e+00 7.8590664706404292e+00 1.6666976084919899e+01 1 -2 0
4759 1 6.4136641269637265e+00 4.5901702154595796e+00 1.7770321108768087e+01 1 -1 1
294 1 6.7857152977128310e+00 7.2354759863957678e+00 1.6953294117716553e+01 1 -1 0
2979 1 1.1189273921024537e+01 6.2350921919738465e+00 1.7042566151556937e+01 -3 2 1
5239 1 9.1548791055061560e+00 7.9025260103875405e+00 1.7837111708074183e+01 1 0 0
2990 1 1.1780103700763972e+01 1.1608654673002611e+01 1.7979777975348401e+01 -3 0 1
1852 1 6.8919403189760486e-01 9.5804116596006335e+00 1.7581847938688163e+01 1 -1 0
4674 1 4.8198745109380585e+00 8.8917541922239760e+00 1.7788319925763616e+01 0 0 1
438 1 5.0110781362547705e+00 1.1385239268898081e+01 1.6782351415740443e+01 1 2 0
6136 1 9.5919280169104422e+00 1.0504487633191724e+01 1.6952607583837231e+01 0 -1 1
1862 1 4.2722330473677361e-01 9.2130931475405262e+00 2.0391589420356954e+01 -2 3 0
4745 1 3.0219867894159838e+00 6.4779632957071664e-01 2.0130075354624434e+01 1 2 1
3795 1 3.6564983463173011e+00 3.3502793245176798e+00 2.0924222639721897e+01 0 4 1
3354 1 5.0150605965902404e+00 8.6150699391222627e+00 2.0523104856591893e+01 -1 2 0
1638 1 8.3210442094223964e+00 2.4725138394280353e+00 2.1042128819002933e+01 0 2 0
3071 1 1.0637611452432280e+01 3.6931897227891488e+00 2.0188151595129590e+01 2 2 0
416 1 1.5067981931603225e+00 5.0681689691715661e+00 2.0445713788016953e+01 1 -2 0
3460 1 2.4013028493085211e+00 7.3599625654766507e+00 2.1201448227712380e+01 -3 4 0
1994 1 6.3001677087919612e+00 4.2947102915810627e+00 2.0684464951570465e+01 0 2 0
520 1 6.7538080269853724e+00 6.7857983033809965e+00 2.1694262632819051e+01 -1 -1 1
4582 1 1.1337374981072985e+01 6.2340251508661941e+00 2.1116012423562310e+01 -1 0 1
493 1 9.0347182335743206e+00 7.8088544800257234e+00 2.0765799870208088e+01 0 -1 1
3764 1 1.1515854011078767e+01 1.1961765526779395e+01 2.0791375959608924e+01 -1 -2 1
3093 1 9.1954728342586733e+00 1.0485529611989527e+01 2.1664634812717427e+01 1 0 1
2881 1 5.0675423853473136e+00 1.1256904775544751e+01 2.1439860641425295e+01 -2 1 1
3108 1 7.4629446765691787e+00 1.2111074428397824e+01 2.0444904224830896e+01 0 0 1
6376 1 7.7571294906023291e-01 1.2087391400461540e+01 1.6623275999872806e+01 0 2 1
5077 1 7.9815540406985996e-01 1.1877193048819336e+01 2.1308907946418753e+01 2 -3 1
6151 1 7.3091055667013540e+00 1.2175024104931035e+01 1.7735188126244964e+01 -1 2 1
2012 1 3.5835480180391666e+00 3.2434802687972693e+00 2.3818603718441892e+01 -2 0 0
75 1 3.0261355032293702e+00 5.3590519873997766e-01 2.4335128893209241e+01 2 1 0
4553 1 8.3253145478651511e+00 2.0473040410519552e+00 2.3851095608262685e+01 1 -2 1
750 2 9.8440000000000012e+00 8.5251540748539956e+00 2.6708904653803291e+01 0 0 0
6343 1 1.0961046390200760e+01 3.2604499166894243e+00 2.4486660083465651e+01 0 2 1
3268 1 1.3564295019287584e+00 4.8795333695269232e+00 2.4483669313872607e+01 -1 -1 1
2887 1 1.9464828507804415e+00 7.4624333138084635e+00 2.4029148824877254e+01 1 -1 1
244 1 6.1429174646565086e+00 3.9610838807951185e+00 2.3990795029472096e+01 -2 0 0
2926 1 6.3517246560404583e+00 6.7262763648336588e+00 2.4436884986303532e+01 -1 -1 1
3062 1 1.1366089961050953e+01 5.7545963587525817e+00 2.3746329284981115e+01 0 1 1
365 1 9.0800263325056711e+00 7.5875576372688220e+00 2.4014202851852509e+01 -2 -1 0
705 2 8.6134999999999984e+00 9.2355835810918343e+00 2.6708904653803291e+01 0 0 0
1810 1 4.5449686636065367e+00 8.5243080124327442e+00 2.4010874125956811e+01 2 -1 0
1528 1 4.9612449879103897e+00 1.1371332392078092e+01 2.3832319327867097e+01 1 1 1
2110 1 9.8346417301711213e+00 1.0408884195345363e+01 2.4174311959562285e+01 -1 1 1
752 2 1.1074500000000002e+01 9.2355835810918343e+00 2.6708904653803291e+01 0 0 0
572 2 0.0000000000000000e+00 2.8417180249513345e+00 2.6708904653803291e+01 0 0 0
574 2 0.0000000000000000e+00 0.0000000000000000e+00 2.6708904653803291e+01 0 0 0
576 2 1.2305000000000001e+00 7.1042950623783474e-01 2.6708904653803291e+01 0 0 0
583 2 1.2305000000000001e+00 2.1312885187134998e+00 2.6708904653803291e+01 0 0 0
585 2 2.4610000000000003e+00 2.8417180249513345e+00 2.6708904653803291e+01 0 0 0
587 2 2.4610000000000003e+00 0.0000000000000000e+00 2.6708904653803291e+01 0 0 0
589 2 3.6915000000000004e+00 7.1042950623783474e-01 2.6708904653803291e+01 0 0 0
604 2 3.6914999999999996e+00 2.1312885187134998e+00 2.6708904653803291e+01 0 0 0
606 2 4.9220000000000006e+00 2.8417180249513332e+00 2.6708904653803291e+01 0 0 0
608 2 4.9220000000000006e+00 0.0000000000000000e+00 2.6708904653803291e+01 0 0 0
610 2 6.1524999999999999e+00 7.1042950623783407e-01 2.6708904653803291e+01 0 0 0
633 2 6.1524999999999999e+00 2.1312885187134989e+00 2.6708904653803291e+01 0 0 0
635 2 7.3829999999999991e+00 2.8417180249513345e+00 2.6708904653803291e+01 0 0 0
637 2 7.3829999999999991e+00 0.0000000000000000e+00 2.6708904653803291e+01 0 0 0
639 2 8.6134999999999984e+00 7.1042950623783407e-01 2.6708904653803291e+01 0 0 0
670 2 8.6134999999999984e+00 2.1312885187135002e+00 2.6708904653803291e+01 0 0 0
672 2 9.8440000000000012e+00 2.8417180249513332e+00 2.6708904653803291e+01 0 0 0
674 2 9.8440000000000012e+00 0.0000000000000000e+00 2.6708904653803291e+01 0 0 0
676 2 1.1074500000000002e+01 7.1042950623783330e-01 2.6708904653803291e+01 0 0 0
715 2 1.1074500000000002e+01 2.1312885187135002e+00 2.6708904653803291e+01 0 0 0
579 2 0.0000000000000000e+00 4.2625770374269996e+00 2.6708904653803291e+01 0 0 0
581 2 1.2305000000000001e+00 4.9730065436648339e+00 2.6708904653803291e+01 0 0 0
596 2 1.2305000000000001e+00 6.3938655561404980e+00 2.6708904653803291e+01 0 0 0
600 2 2.4610000000000003e+00 4.2625770374269996e+00 2.6708904653803291e+01 0 0 0
602 2 3.6914999999999996e+00 4.9730065436648339e+00 2.6708904653803291e+01 0 0 0
625 2 3.6914999999999996e+00 6.3938655561404980e+00 2.6708904653803291e+01 0 0 0
577 2 0.0000000000000000e+00 7.1042950623783341e+00 2.6708904653803291e+01 0 0 0
598 2 2.4610000000000003e+00 7.1042950623783341e+00 2.6708904653803291e+01 0 0 0
629 2 4.9220000000000006e+00 4.2625770374269978e+00 2.6708904653803291e+01 0 0 0
631 2 6.1524999999999999e+00 4.9730065436648339e+00 2.6708904653803291e+01 0 0 0
662 2 6.1524999999999999e+00 6.3938655561404980e+00 2.6708904653803291e+01 0 0 0
666 2 7.3829999999999991e+00 4.2625770374269996e+00 2.6708904653803291e+01 0 0 0
627 2 4.9220000000000006e+00 7.1042950623783341e+00 2.6708904653803291e+01 0 0 0
664 2 7.3830000000000009e+00 7.1042950623783341e+00 2.6708904653803291e+01 0 0 0
668 2 8.6135000000000002e+00 4.9730065436648339e+00 2.6708904653803291e+01 0 0 0
707 2 8.6135000000000002e+00 6.3938655561404980e+00 2.6708904653803291e+01 0 0 0
711 2 9.8440000000000012e+00 4.2625770374270004e+00 2.6708904653803291e+01 0 0 0
713 2 1.1074500000000002e+01 4.9730065436648339e+00 2.6708904653803291e+01 0 0 0
754 2 1.1074500000000002e+01 6.3938655561404980e+00 2.6708904653803291e+01 0 0 0
709 2 9.8440000000000012e+00 7.1042950623783341e+00 2.6708904653803291e+01 0 0 0
592 2 0.0000000000000000e+00 8.5251540748539991e+00 2.6708904653803291e+01 0 0 0
594 2 1.2305000000000001e+00 9.2355835810918343e+00 2.6708904653803291e+01 0 0 0
621 2 2.4610000000000003e+00 8.5251540748539991e+00 2.6708904653803291e+01 0 0 0
623 2 3.6915000000000004e+00 9.2355835810918343e+00 2.6708904653803291e+01 0 0 0
590 2 0.0000000000000000e+00 1.1366872099805333e+01 2.6708904653803291e+01 0 0 0
617 2 1.2305000000000001e+00 1.0656442593567498e+01 2.6708904653803291e+01 0 0 0
619 2 2.4610000000000003e+00 1.1366872099805333e+01 2.6708904653803291e+01 0 0 0
654 2 3.6914999999999996e+00 1.0656442593567499e+01 2.6708904653803291e+01 0 0 0
656 2 4.9220000000000006e+00 1.1366872099805333e+01 2.6708904653803291e+01 0 0 0
699 2 6.1524999999999999e+00 1.0656442593567499e+01 2.6708904653803291e+01 0 0 0
701 2 7.3829999999999991e+00 1.1366872099805333e+01 2.6708904653803291e+01 0 0 0
658 2 4.9220000000000006e+00 8.5251540748539991e+00 2.6708904653803291e+01 0 0 0
660 2 6.1524999999999999e+00 9.2355835810918343e+00 2.6708904653803291e+01 0 0 0
703 2 7.3830000000000009e+00 8.5251540748539991e+00 2.6708904653803291e+01 0 0 0
746 2 8.6134999999999984e+00 1.0656442593567498e+01 2.6708904653803291e+01 0 0 0
795 2 1.2304999999999998e+01 1.1366872099805333e+01 2.6708904653803291e+01 0 0 0
793 2 1.1074500000000002e+01 1.0656442593567498e+01 2.6708904653803291e+01 0 0 0
748 2 9.8440000000000012e+00 1.1366872099805333e+01 2.6708904653803291e+01 0 0 0
3192 1 1.2188425028083353e+01 1.1488677375641739e+01 2.4123631607588536e+01 -1 0 0
1657 1 2.5947223844463280e-01 1.2016629340321833e+01 2.3820766506798112e+01 -3 -1 0
5301 1 7.4934604354258649e+00 1.2028882547134396e+01 2.4357687229377934e+01 -1 4 1
573 2 0.0000000000000000e+00 1.4208590124756650e+00 3.0030999999999448e+01 0 0 0
575 2 0.0000000000000000e+00 0.0000000000000000e+00 3.0030999999999448e+01 0 0 0
584 2 1.2305000000000001e+00 2.1312885187134998e+00 3.0030999999999448e+01 0 0 0
586 2 2.4610000000000003e+00 1.4208590124756650e+00 3.0030999999999448e+01 0 0 0
588 2 2.4610000000000003e+00 0.0000000000000000e+00 3.0030999999999448e+01 0 0 0
605 2 3.6914999999999996e+00 2.1312885187134998e+00 3.0030999999999448e+01 0 0 0
582 2 1.2305000000000001e+00 3.5521475311891644e+00 3.0030999999999448e+01 0 0 0
603 2 3.6914999999999996e+00 3.5521475311891644e+00 3.0030999999999448e+01 0 0 0
901 2 0.0000000000000000e+00 2.8417180249513345e+00 3.3353095346210353e+01 0 0 0
902 2 0.0000000000000000e+00 0.0000000000000000e+00 3.3353095346210353e+01 0 0 0
903 2 1.2305000000000001e+00 7.1042950623783474e-01 3.3353095346210353e+01 0 0 0
907 2 1.2305000000000001e+00 2.1312885187134998e+00 3.3353095346210353e+01 0 0 0
908 2 2.4610000000000003e+00 2.8417180249513345e+00 3.3353095346210353e+01 0 0 0
909 2 2.4610000000000003e+00 0.0000000000000000e+00 3.3353095346210353e+01 0 0 0
910 2 3.6915000000000004e+00 7.1042950623783474e-01 3.3353095346210353e+01 0 0 0
918 2 3.6914999999999996e+00 2.1312885187134998e+00 3.3353095346210353e+01 0 0 0
607 2 4.9220000000000006e+00 1.4208590124756650e+00 3.0030999999999448e+01 0 0 0
609 2 4.9220000000000006e+00 0.0000000000000000e+00 3.0030999999999448e+01 0 0 0
634 2 6.1524999999999999e+00 2.1312885187134989e+00 3.0030999999999448e+01 0 0 0
636 2 7.3829999999999991e+00 1.4208590124756659e+00 3.0030999999999448e+01 0 0 0
638 2 7.3829999999999991e+00 0.0000000000000000e+00 3.0030999999999448e+01 0 0 0
632 2 6.1524999999999999e+00 3.5521475311891644e+00 3.0030999999999448e+01 0 0 0
919 2 4.9220000000000006e+00 2.8417180249513332e+00 3.3353095346210353e+01 0 0 0
920 2 4.9220000000000006e+00 0.0000000000000000e+00 3.3353095346210353e+01 0 0 0
921 2 6.1524999999999999e+00 7.1042950623783407e-01 3.3353095346210353e+01 0 0 0
933 2 6.1524999999999999e+00 2.1312885187134989e+00 3.3353095346210353e+01 0 0 0
934 2 7.3829999999999991e+00 2.8417180249513345e+00 3.3353095346210353e+01 0 0 0
935 2 7.3829999999999991e+00 0.0000000000000000e+00 3.3353095346210353e+01 0 0 0
671 2 8.6134999999999984e+00 2.1312885187135002e+00 3.0030999999999448e+01 0 0 0
673 2 9.8440000000000012e+00 1.4208590124756659e+00 3.0030999999999448e+01 0 0 0
675 2 9.8440000000000012e+00 0.0000000000000000e+00 3.0030999999999448e+01 0 0 0
716 2 1.1074500000000002e+01 2.1312885187135002e+00 3.0030999999999448e+01 0 0 0
669 2 8.6134999999999984e+00 3.5521475311891657e+00 3.0030999999999448e+01 0 0 0
714 2 1.1074500000000002e+01 3.5521475311891644e+00 3.0030999999999448e+01 0 0 0
936 2 8.6134999999999984e+00 7.1042950623783407e-01 3.3353095346210353e+01 0 0 0
952 2 8.6134999999999984e+00 2.1312885187135002e+00 3.3353095346210353e+01 0 0 0
953 2 9.8440000000000012e+00 2.8417180249513332e+00 3.3353095346210353e+01 0 0 0
954 2 9.8440000000000012e+00 0.0000000000000000e+00 3.3353095346210353e+01 0 0 0
955 2 1.1074500000000002e+01 7.1042950623783330e-01 3.3353095346210353e+01 0 0 0
975 2 1.1074500000000002e+01 2.1312885187135002e+00 3.3353095346210353e+01 0 0 0
578 2 0.0000000000000000e+00 5.6834360499026637e+00 3.0030999999999448e+01 0 0 0
580 2 0.0000000000000000e+00 4.2625770374269996e+00 3.0030999999999448e+01 0 0 0
597 2 1.2305000000000001e+00 6.3938655561404980e+00 3.0030999999999448e+01 0 0 0
599 2 2.4610000000000003e+00 5.6834360499026637e+00 3.0030999999999448e+01 0 0 0
601 2 2.4610000000000003e+00 4.2625770374269996e+00 3.0030999999999448e+01 0 0 0
626 2 3.6914999999999996e+00 6.3938655561404980e+00 3.0030999999999448e+01 0 0 0
595 2 1.2305000000000001e+00 7.8147245686161639e+00 3.0030999999999448e+01 0 0 0
624 2 3.6914999999999996e+00 7.8147245686161639e+00 3.0030999999999448e+01 0 0 0
905 2 0.0000000000000000e+00 4.2625770374269996e+00 3.3353095346210353e+01 0 0 0
906 2 1.2305000000000001e+00 4.9730065436648339e+00 3.3353095346210353e+01 0 0 0
914 2 1.2305000000000001e+00 6.3938655561404980e+00 3.3353095346210353e+01 0 0 0
916 2 2.4610000000000003e+00 4.2625770374269996e+00 3.3353095346210353e+01 0 0 0
917 2 3.6914999999999996e+00 4.9730065436648339e+00 3.3353095346210353e+01 0 0 0
929 2 3.6914999999999996e+00 6.3938655561404980e+00 3.3353095346210353e+01 0 0 0
904 2 0.0000000000000000e+00 7.1042950623783341e+00 3.3353095346210353e+01 0 0 0
915 2 2.4610000000000003e+00 7.1042950623783341e+00 3.3353095346210353e+01 0 0 0
628 2 4.9220000000000006e+00 5.6834360499026637e+00 3.0030999999999448e+01 0 0 0
630 2 4.9220000000000006e+00 4.2625770374269978e+00 3.0030999999999448e+01 0 0 0
663 2 6.1524999999999999e+00 6.3938655561404980e+00 3.0030999999999448e+01 0 0 0
665 2 7.3829999999999991e+00 5.6834360499026637e+00 3.0030999999999448e+01 0 0 0
667 2 7.3829999999999991e+00 4.2625770374269996e+00 3.0030999999999448e+01 0 0 0
661 2 6.1524999999999999e+00 7.8147245686161639e+00 3.0030999999999448e+01 0 0 0
931 2 4.9220000000000006e+00 4.2625770374269978e+00 3.3353095346210353e+01 0 0 0
932 2 6.1524999999999999e+00 4.9730065436648339e+00 3.3353095346210353e+01 0 0 0
948 2 6.1524999999999999e+00 6.3938655561404980e+00 3.3353095346210353e+01 0 0 0
950 2 7.3829999999999991e+00 4.2625770374269996e+00 3.3353095346210353e+01 0 0 0
930 2 4.9220000000000006e+00 7.1042950623783341e+00 3.3353095346210353e+01 0 0 0
949 2 7.3830000000000009e+00 7.1042950623783341e+00 3.3353095346210353e+01 0 0 0
708 2 8.6135000000000002e+00 6.3938655561404980e+00 3.0030999999999448e+01 0 0 0
710 2 9.8440000000000012e+00 5.6834360499026637e+00 3.0030999999999448e+01 0 0 0
712 2 9.8440000000000012e+00 4.2625770374270004e+00 3.0030999999999448e+01 0 0 0
755 2 1.1074500000000002e+01 6.3938655561404980e+00 3.0030999999999448e+01 0 0 0
706 2 8.6135000000000002e+00 7.8147245686161639e+00 3.0030999999999448e+01 0 0 0
753 2 1.1074500000000002e+01 7.8147245686161639e+00 3.0030999999999448e+01 0 0 0
951 2 8.6135000000000002e+00 4.9730065436648339e+00 3.3353095346210353e+01 0 0 0
971 2 8.6135000000000002e+00 6.3938655561404980e+00 3.3353095346210353e+01 0 0 0
973 2 9.8440000000000012e+00 4.2625770374270004e+00 3.3353095346210353e+01 0 0 0
974 2 1.1074500000000002e+01 4.9730065436648339e+00 3.3353095346210353e+01 0 0 0
995 2 1.1074500000000002e+01 6.3938655561404980e+00 3.3353095346210353e+01 0 0 0
972 2 9.8440000000000012e+00 7.1042950623783341e+00 3.3353095346210353e+01 0 0 0
591 2 0.0000000000000000e+00 9.9460130873296642e+00 3.0030999999999448e+01 0 0 0
593 2 0.0000000000000000e+00 8.5251540748539991e+00 3.0030999999999448e+01 0 0 0
620 2 2.4610000000000003e+00 9.9460130873296642e+00 3.0030999999999448e+01 0 0 0
622 2 2.4610000000000003e+00 8.5251540748539991e+00 3.0030999999999448e+01 0 0 0
616 2 1.2305000000000001e+00 1.2077301606043163e+01 3.0030999999999448e+01 0 0 0
618 2 1.2305000000000001e+00 1.0656442593567498e+01 3.0030999999999448e+01 0 0 0
653 2 3.6914999999999996e+00 1.2077301606043163e+01 3.0030999999999448e+01 0 0 0
655 2 3.6914999999999996e+00 1.0656442593567499e+01 3.0030999999999448e+01 0 0 0
912 2 0.0000000000000000e+00 8.5251540748539991e+00 3.3353095346210353e+01 0 0 0
913 2 1.2305000000000001e+00 9.2355835810918343e+00 3.3353095346210353e+01 0 0 0
927 2 2.4610000000000003e+00 8.5251540748539991e+00 3.3353095346210353e+01 0 0 0
928 2 3.6915000000000004e+00 9.2355835810918343e+00 3.3353095346210353e+01 0 0 0
911 2 0.0000000000000000e+00 1.1366872099805333e+01 3.3353095346210353e+01 0 0 0
925 2 1.2305000000000001e+00 1.0656442593567498e+01 3.3353095346210353e+01 0 0 0
926 2 2.4610000000000003e+00 1.1366872099805333e+01 3.3353095346210353e+01 0 0 0
944 2 3.6914999999999996e+00 1.0656442593567499e+01 3.3353095346210353e+01 0 0 0
657 2 4.9220000000000006e+00 9.9460130873296642e+00 3.0030999999999448e+01 0 0 0
659 2 4.9220000000000006e+00 8.5251540748539991e+00 3.0030999999999448e+01 0 0 0
702 2 7.3830000000000009e+00 9.9460130873296642e+00 3.0030999999999448e+01 0 0 0
704 2 7.3830000000000009e+00 8.5251540748539991e+00 3.0030999999999448e+01 0 0 0
698 2 6.1524999999999999e+00 1.2077301606043163e+01 3.0030999999999448e+01 0 0 0
700 2 6.1524999999999999e+00 1.0656442593567499e+01 3.0030999999999448e+01 0 0 0
946 2 4.9220000000000006e+00 8.5251540748539991e+00 3.3353095346210353e+01 0 0 0
947 2 6.1524999999999999e+00 9.2355835810918343e+00 3.3353095346210353e+01 0 0 0
969 2 7.3830000000000009e+00 8.5251540748539991e+00 3.3353095346210353e+01 0 0 0
945 2 4.9220000000000006e+00 1.1366872099805333e+01 3.3353095346210353e+01 0 0 0
967 2 6.1524999999999999e+00 1.0656442593567499e+01 3.3353095346210353e+01 0 0 0
968 2 7.3829999999999991e+00 1.1366872099805333e+01 3.3353095346210353e+01 0 0 0
749 2 9.8440000000000012e+00 9.9460130873296642e+00 3.0030999999999448e+01 0 0 0
751 2 9.8440000000000012e+00 8.5251540748539956e+00 3.0030999999999448e+01 0 0 0
745 2 8.6135000000000002e+00 1.2077301606043163e+01 3.0030999999999448e+01 0 0 0
747 2 8.6134999999999984e+00 1.0656442593567498e+01 3.0030999999999448e+01 0 0 0
792 2 1.1074500000000002e+01 1.2077301606043163e+01 3.0030999999999448e+01 0 0 0
794 2 1.1074500000000002e+01 1.0656442593567498e+01 3.0030999999999448e+01 0 0 0
970 2 8.6134999999999984e+00 9.2355835810918343e+00 3.3353095346210353e+01 0 0 0
993 2 9.8440000000000012e+00 8.5251540748539956e+00 3.3353095346210353e+01 0 0 0
994 2 1.1074500000000002e+01 9.2355835810918343e+00 3.3353095346210353e+01 0 0 0
991 2 8.6134999999999984e+00 1.0656442593567498e+01 3.3353095346210353e+01 0 0 0
992 2 9.8440000000000012e+00 1.1366872099805333e+01 3.3353095346210353e+01 0 0 0
1015 2 1.1074500000000002e+01 1.0656442593567498e+01 3.3353095346210353e+01 0 0 0
1016 2 1.2304999999999998e+01 1.1366872099805333e+01 3.3353095346210353e+01 0 0 0
3510 1 1.6686782995931937e+00 1.6640112445575019e+00 3.6582343080271784e+01 1 -1 -1
6482 1 4.0200211826342018e+00 2.3553822313701200e+00 3.5745858575982581e+01 0 0 -1
571 1 5.7492735399356327e+00 2.3715331249598379e-01 3.6381403453183779e+01 0 -1 0
1464 1 8.2061950738212168e+00 1.0843815301678861e+00 3.5820696201408339e+01 -1 1 0
1574 1 8.5577259132391355e+00 3.7682974831720775e+00 3.6571690598570001e+01 0 1 0
1878 1 2.5688035059046528e+00 6.7980328155809113e+00 3.5825955656664959e+01 -1 1 -1
1627 1 1.0733127253863941e+01 1.1604135400517240e+01 3.6702724980334125e+01 0 0 0
5299 1 4.2615985287307252e+00 4.9335589987257409e+00 3.6487129601377646e+01 -1 -1 -1
1399 1 6.8112728352683289e+00 5.5601061184532332e+00 3.5718370251355580e+01 0 2 0
296 1 7.3495698455330141e+00 8.2368619427056604e+00 3.6155834463214234e+01 0 -2 0
6200 1 1.1017020609265590e+01 4.6846786800685791e+00 3.5828936907556425e+01 2 2 0
1956 1 2.8446687172823637e+00 9.2116414053959144e+00 3.6800723750846842e+01 2 1 0
3089 1 1.4529378897691665e+00 1.1229376588321495e+01 3.5745523234934595e+01 -1 3 0
3457 1 5.3437406216166083e+00 1.0116963255042984e+01 3.5911618673037665e+01 1 2 -1
6464 1 9.9661285527146113e+00 8.8983724906615418e+00 3.5893873344587959e+01 -3 0 0
4854 1 1.1764394191721827e+01 7.0013524403429610e+00 3.6827656343793805e+01 -3 -1 0
143 1 2.2813461549287101e-01 6.0699575626609938e+00 3.7037373259533908e+01 -2 1 -1
3237 1 1.4649516276073524e+00 1.8460149720342329e+00 3.9419172154228491e+01 2 -2 -1
5201 1 4.2251305082737707e+00 2.2835627681463038e+00 3.9805208114803435e+01 1 1 -1
2917 1 1.5559039542564079e-01 6.3772956843505684e+00 4.3663274452558312e+01 3 2 -1
254 1 8.5877680342483096e+00 1.3252975636982343e+00 4.0016318251884357e+01 1 3 -1
5300 1 9.3100805438866683e+00 4.0574787889583064e+00 3.9251915539074503e+01 5 5 -1
2025 1 2.5875726115993771e+00 6.5556070159452551e+00 4.0163539063921021e+01 0 1 -1
3588 1 1.0160338669079648e+01 1.1699502079963747e+01 4.3795093492176619e+01 0 -1 -1
5101 1 4.4103717738850747e+00 4.9554677260026763e+00 3.9147101060612073e+01 0 2 0
3213 1 7.0165508248543924e+00 5.4219617612334723e+00 3.9817544965871647e+01 0 -1 0
3481 1 1.1843864864404763e+01 4.8402156943380010e+00 4.0443101380151347e+01 -2 1 -1
6425 1 1.1796885678781209e+01 7.4328872535493860e+00 4.4069071763438401e+01 0 0 0
4891 1 2.9246761932922887e+00 9.1059107834349327e+00 3.9512866268901249e+01 2 1 -1
1543 1 1.5397976137178520e+00 1.1175535691660686e+01 4.0390080192738523e+01 1 -1 -1
1377 1 7.1866663470138183e+00 8.0192021244844707e+00 3.9283546282229210e+01 1 -1 0
50 1 5.5805054541130517e+00 1.0026006695535671e+01 4.0024958259807775e+01 -1 -2 0
235 1 9.9330904499827817e+00 1.1496959404252303e+01 3.9102281580604583e+01 -1 1 -1
3020 1 9.8021616337490993e+00 8.9847702099915008e+00 4.0225516364674860e+01 1 2 0
3168 1 1.1957084397887454e+00 1.7477404014676718e+00 4.3181225162028440e+01 0 2 0
1305 1 3.7053692946459762e+00 2.2825880780252570e+00 4.2718913732713759e+01 0 -1 0
5005 1 9.8300797975289136e+00 9.1020840456532248e+00 4.2879259163318949e+01 2 -1 -1
2969 1 8.1382607182875510e+00 1.5260951054488701e+00 4.2794346833342345e+01 0 0 0
1493 1 2.5702488620270758e+00 6.6416723700766536e+00 4.2863390626784636e+01 -1 1 -1
1318 1 4.6440383949428305e+00 4.5316713347850444e+00 4.3853809585384965e+01 -3 2 0
6101 1 6.8161415281656934e+00 5.6368918758587192e+00 4.2700957365467701e+01 -2 -1 0
3322 1 5.4143216390623445e+00 1.0261750824532301e+01 4.2859854670172126e+01 1 0 -1
3660 1 8.8762510062204747e+00 3.9978213783686845e+00 4.3604262796996011e+01 0 0 -1
172 1 1.1346094154824721e+01 4.8360292199221186e+00 4.3212932821288703e+01 1 0 -1
4880 1 3.1348499749790668e+00 9.2243561526738223e+00 4.3701492532931042e+01 0 0 -1
3534 1 1.2215774033442262e+00 1.1244665235661381e+01 4.2983626241285080e+01 2 -1 -1
2899 1 7.3235264968424536e+00 8.1394573464625584e+00 4.3733534739742183e+01 -2 2 0
2867 1 1.1923934670712613e+01 7.4348162932871675e+00 3.9452594362499624e+01 0 -2 0
24 1 5.6003054213447809e+00 4.5138840276645403e-01 4.3448683534011678e+01 2 3 -1
5153 1 1.2301568041660611e+00 1.5027809812202244e+00 4.6181794674613300e+01 3 2 -1
5071 1 3.7476152527200797e+00 2.5267147076925216e+00 4.7177616062297474e+01 -1 2 -1
4645 1 1.2063516436470298e+01 7.1025339788732813e+00 4.6913117608687458e+01 1 -1 0
431 1 8.5691535789707416e+00 8.1185181027990549e-01 4.7553358318715212e+01 2 0 -1
3046 1 8.7235028534440975e+00 3.6331558768571397e+00 4.6394545197273629e+01 -2 -1 0
4739 1 2.5860788906143517e+00 6.8039341578535355e+00 4.7416281849846584e+01 1 3 -1
2050 1 4.5303622944727087e+00 5.0756141685549681e+00 4.6741071732779076e+01 1 1 -1
3751 1 7.1718283327723720e+00 5.8122574380651706e+00 4.7663663738901036e+01 -1 -2 0