LAMMPS data file via write_data, version 16 Mar 2018, timestep = 8000000

4055 atoms
2 atom types

0.0000000000000000e+00 4.9219999999999999e+01 xlo xhi
0.0000000000000000e+00 4.9019635930410494e+01 ylo yhi
1.1066814817435038e+00 2.6833318518257094e+01 zlo zhi

Masses

1 18.015
2 12.01

Atoms # atomic

53 2 0.0000000000000000e+00 2.8417180249513345e+00 2.7280927939718427e+00 0 0 0
55 2 0.0000000000000000e+00 0.0000000000000000e+00 2.7280927939718427e+00 0 0 0
57 2 1.2305000000000001e+00 7.1042950623783474e-01 2.7280927939718427e+00 0 0 0
64 2 1.2305000000000001e+00 2.1312885187134998e+00 2.7280927939718427e+00 0 0 0
66 2 2.4610000000000003e+00 2.8417180249513345e+00 2.7280927939718427e+00 0 0 0
68 2 2.4610000000000003e+00 0.0000000000000000e+00 2.7280927939718427e+00 0 0 0
70 2 3.6915000000000004e+00 7.1042950623783474e-01 2.7280927939718427e+00 0 0 0
85 2 3.6914999999999996e+00 2.1312885187134998e+00 2.7280927939718427e+00 0 0 0
87 2 4.9220000000000006e+00 2.8417180249513332e+00 2.7280927939718427e+00 0 0 0
89 2 4.9220000000000006e+00 0.0000000000000000e+00 2.7280927939718427e+00 0 0 0
60 2 0.0000000000000000e+00 4.2625770374269996e+00 2.7280927939718427e+00 0 0 0
81 2 2.4610000000000003e+00 4.2625770374269996e+00 2.7280927939718427e+00 0 0 0
110 2 4.9220000000000006e+00 4.2625770374269978e+00 2.7280927939718427e+00 0 0 0
62 2 1.2305000000000001e+00 4.9730065436648339e+00 2.7280927939718427e+00 0 0 0
77 2 1.2305000000000001e+00 6.3938655561404980e+00 2.7280927939718427e+00 0 0 0
83 2 3.6914999999999996e+00 4.9730065436648339e+00 2.7280927939718427e+00 0 0 0
106 2 3.6914999999999996e+00 6.3938655561404980e+00 2.7280927939718427e+00 0 0 0
58 2 0.0000000000000000e+00 7.1042950623783341e+00 2.7280927939718427e+00 0 0 0
73 2 0.0000000000000000e+00 8.5251540748539991e+00 2.7280927939718427e+00 0 0 0
75 2 1.2305000000000001e+00 9.2355835810918343e+00 2.7280927939718427e+00 0 0 0
79 2 2.4610000000000003e+00 7.1042950623783341e+00 2.7280927939718427e+00 0 0 0
102 2 2.4610000000000003e+00 8.5251540748539991e+00 2.7280927939718427e+00 0 0 0
104 2 3.6915000000000004e+00 9.2355835810918343e+00 2.7280927939718427e+00 0 0 0
108 2 4.9220000000000006e+00 7.1042950623783341e+00 2.7280927939718427e+00 0 0 0
139 2 4.9220000000000006e+00 8.5251540748539991e+00 2.7280927939718427e+00 0 0 0
54 2 0.0000000000000000e+00 1.4208590124756650e+00 5.7953145273973377e+00 0 0 0
56 2 0.0000000000000000e+00 0.0000000000000000e+00 5.7953145273973377e+00 0 0 0
65 2 1.2305000000000001e+00 2.1312885187134998e+00 5.7953145273973377e+00 0 0 0
67 2 2.4610000000000003e+00 1.4208590124756650e+00 5.7953145273973377e+00 0 0 0
69 2 2.4610000000000003e+00 0.0000000000000000e+00 5.7953145273973377e+00 0 0 0
86 2 3.6914999999999996e+00 2.1312885187134998e+00 5.7953145273973377e+00 0 0 0
382 2 0.0000000000000000e+00 2.8417180249513345e+00 8.8625362608240579e+00 0 0 0
383 2 0.0000000000000000e+00 0.0000000000000000e+00 8.8625362608240579e+00 0 0 0
384 2 1.2305000000000001e+00 7.1042950623783474e-01 8.8625362608240579e+00 0 0 0
388 2 1.2305000000000001e+00 2.1312885187134998e+00 8.8625362608240579e+00 0 0 0
389 2 2.4610000000000003e+00 2.8417180249513345e+00 8.8625362608240579e+00 0 0 0
390 2 2.4610000000000003e+00 0.0000000000000000e+00 8.8625362608240579e+00 0 0 0
391 2 3.6915000000000004e+00 7.1042950623783474e-01 8.8625362608240579e+00 0 0 0
399 2 3.6914999999999996e+00 2.1312885187134998e+00 8.8625362608240579e+00 0 0 0
88 2 4.9220000000000006e+00 1.4208590124756650e+00 5.7953145273973377e+00 0 0 0
90 2 4.9220000000000006e+00 0.0000000000000000e+00 5.7953145273973377e+00 0 0 0
400 2 4.9220000000000006e+00 2.8417180249513332e+00 8.8625362608240579e+00 0 0 0
401 2 4.9220000000000006e+00 0.0000000000000000e+00 8.8625362608240579e+00 0 0 0
61 2 0.0000000000000000e+00 4.2625770374269996e+00 5.7953145273973377e+00 0 0 0
63 2 1.2305000000000001e+00 3.5521475311891644e+00 5.7953145273973377e+00 0 0 0
82 2 2.4610000000000003e+00 4.2625770374269996e+00 5.7953145273973377e+00 0 0 0
84 2 3.6914999999999996e+00 3.5521475311891644e+00 5.7953145273973377e+00 0 0 0
386 2 0.0000000000000000e+00 4.2625770374269996e+00 8.8625362608240579e+00 0 0 0
397 2 2.4610000000000003e+00 4.2625770374269996e+00 8.8625362608240579e+00 0 0 0
111 2 4.9220000000000006e+00 4.2625770374269978e+00 5.7953145273973377e+00 0 0 0
412 2 4.9220000000000006e+00 4.2625770374269978e+00 8.8625362608240579e+00 0 0 0
59 2 0.0000000000000000e+00 5.6834360499026637e+00 5.7953145273973377e+00 0 0 0
78 2 1.2305000000000001e+00 6.3938655561404980e+00 5.7953145273973377e+00 0 0 0
80 2 2.4610000000000003e+00 5.6834360499026637e+00 5.7953145273973377e+00 0 0 0
107 2 3.6914999999999996e+00 6.3938655561404980e+00 5.7953145273973377e+00 0 0 0
387 2 1.2305000000000001e+00 4.9730065436648339e+00 8.8625362608240579e+00 0 0 0
395 2 1.2305000000000001e+00 6.3938655561404980e+00 8.8625362608240579e+00 0 0 0
398 2 3.6914999999999996e+00 4.9730065436648339e+00 8.8625362608240579e+00 0 0 0
410 2 3.6914999999999996e+00 6.3938655561404980e+00 8.8625362608240579e+00 0 0 0
109 2 4.9220000000000006e+00 5.6834360499026637e+00 5.7953145273973377e+00 0 0 0
74 2 0.0000000000000000e+00 8.5251540748539991e+00 5.7953145273973377e+00 0 0 0
76 2 1.2305000000000001e+00 7.8147245686161639e+00 5.7953145273973377e+00 0 0 0
103 2 2.4610000000000003e+00 8.5251540748539991e+00 5.7953145273973377e+00 0 0 0
105 2 3.6914999999999996e+00 7.8147245686161639e+00 5.7953145273973377e+00 0 0 0
385 2 0.0000000000000000e+00 7.1042950623783341e+00 8.8625362608240579e+00 0 0 0
393 2 0.0000000000000000e+00 8.5251540748539991e+00 8.8625362608240579e+00 0 0 0
394 2 1.2305000000000001e+00 9.2355835810918343e+00 8.8625362608240579e+00 0 0 0
396 2 2.4610000000000003e+00 7.1042950623783341e+00 8.8625362608240579e+00 0 0 0
408 2 2.4610000000000003e+00 8.5251540748539991e+00 8.8625362608240579e+00 0 0 0
409 2 3.6915000000000004e+00 9.2355835810918343e+00 8.8625362608240579e+00 0 0 0
140 2 4.9220000000000006e+00 8.5251540748539991e+00 5.7953145273973377e+00 0 0 0
411 2 4.9220000000000006e+00 7.1042950623783341e+00 8.8625362608240579e+00 0 0 0
427 2 4.9220000000000006e+00 8.5251540748539991e+00 8.8625362608240579e+00 0 0 0
3942 1 5.0392040398563145e+00 1.1985764112272528e+00 1.1626731276898340e+01 0 0 0
2568 1 2.3537311443992506e-01 2.5072064152978344e+00 1.1425112206899387e+01 0 1 0
3988 1 2.1968067953065851e+00 6.7900490477639752e-01 1.1856883237005325e+01 0 1 -1
648 1 4.4285670411112807e+00 8.2107644567107307e+00 1.1813045717021284e+01 1 1 0
2053 1 1.1894836264168658e+00 5.0421910088666806e+00 1.2183251484025734e+01 0 0 -2
2123 1 3.5924014470283114e+00 5.6144305756652457e+00 1.1058034308544290e+01 0 0 -1
2628 1 5.5905603370442716e+00 3.9538077400680609e+00 1.2047719189341082e+01 1 1 -1
1915 1 9.5577530391957308e-02 9.4729158419834345e+00 1.1910342867783351e+01 1 0 0
681 1 4.9789858291067688e+00 1.0932330590196091e+00 1.5503785034532807e+01 1 1 0
3255 1 2.4094714091967702e+00 8.3123488981346172e-01 1.4574713676163874e+01 1 1 1
1320 1 5.4114392702311882e+00 3.2785247246073688e+00 2.5489856215529731e+01 -1 0 0
3905 1 2.5721003242985425e+00 3.4819723151238058e-01 2.2465171081192718e+01 1 -1 0
3959 1 2.0542345125654653e+00 7.6540762055469536e+00 2.6290404305193860e+01 0 -1 0
2085 1 1.1656508717668028e+00 5.0461749476478674e+00 1.4964925751517514e+01 0 0 0
1239 1 3.7107225785667115e+00 5.7578482639648216e+00 1.5889981462113681e+01 2 -1 0
667 1 4.5870953175414115e+00 8.2093531405833637e+00 1.4604168975024844e+01 0 0 0
3384 1 4.9339041978786549e+00 7.9410811865017650e-01 1.8331610876949192e+01 1 1 0
620 1 3.0913286910155460e+00 2.8530757698695299e+00 1.8895003918191854e+01 0 1 0
1238 1 3.0621565057037627e+00 3.1824901514209554e+00 2.1794776755383417e+01 0 0 0
752 1 4.4315477885305468e+00 7.9873009632896990e+00 2.2534627315221481e+01 1 0 0
3995 1 3.3897276430374546e+00 5.7107494592835941e+00 1.8422406037086215e+01 1 0 0
3365 1 1.3804119545120508e+00 7.7062040709746684e+00 1.9107299681446008e+01 0 0 0
52 1 1.7004834717377861e+00 7.6154269143023550e+00 2.1892049468269732e+01 1 0 1
2553 1 4.9132936835608887e-01 1.7832233464894687e+00 1.8209517685821424e+01 1 1 -1
4040 1 2.5795883144017934e-01 2.4646725083474452e+00 1.5506513804426980e+01 0 0 -1
3933 1 2.2041472279078898e+00 2.1494013672356396e-01 2.5134332405491094e+01 1 0 1
1413 1 5.5538187663510170e+00 3.7190445821739959e+00 1.4965657330673881e+01 0 1 1
2656 1 2.8100114854164566e+00 2.7131995280182735e+00 2.5995990292224540e+01 0 -1 0
2669 1 1.5424906794440141e+00 4.8645672883188791e+00 2.5399535697233706e+01 1 0 0
664 1 8.8445406227963874e-01 4.8738173109183860e+00 2.2657312098828360e+01 1 0 -1
1439 1 4.5655599436553711e+00 7.9603191661493291e+00 2.5060792515476077e+01 0 0 -1
2634 1 5.7509956631188350e+00 3.3421821941978007e+00 2.2870434050598938e+01 1 0 -1
658 1 6.1255579524840291e+00 6.0647243900070533e+00 1.9147927472372238e+01 1 0 0
3293 1 2.5662110869393175e+00 9.7950151418989098e+00 1.8019772773451841e+01 0 0 0
71 2 0.0000000000000000e+00 1.1366872099805333e+01 2.7280927939718427e+00 0 0 0
94 2 0.0000000000000000e+00 1.2787731112280996e+01 2.7280927939718427e+00 0 0 0
96 2 1.2305000000000001e+00 1.3498160618518829e+01 2.7280927939718427e+00 0 0 0
98 2 1.2305000000000001e+00 1.0656442593567498e+01 2.7280927939718427e+00 0 0 0
100 2 2.4610000000000003e+00 1.1366872099805333e+01 2.7280927939718427e+00 0 0 0
131 2 2.4610000000000003e+00 1.2787731112280996e+01 2.7280927939718427e+00 0 0 0
133 2 3.6915000000000004e+00 1.3498160618518829e+01 2.7280927939718427e+00 0 0 0
135 2 3.6914999999999996e+00 1.0656442593567499e+01 2.7280927939718427e+00 0 0 0
137 2 4.9220000000000006e+00 1.1366872099805333e+01 2.7280927939718427e+00 0 0 0
176 2 4.9220000000000006e+00 1.2787731112280996e+01 2.7280927939718427e+00 0 0 0
178 2 6.1524999999999990e+00 1.3498160618518829e+01 2.7280927939718427e+00 0 0 0
92 2 0.0000000000000000e+00 1.5629449137232333e+01 2.7280927939718427e+00 0 0 0
123 2 0.0000000000000000e+00 1.7050308149707998e+01 2.7280927939718427e+00 0 0 0
127 2 1.2305000000000001e+00 1.4919019630994494e+01 2.7280927939718427e+00 0 0 0
129 2 2.4610000000000003e+00 1.5629449137232328e+01 2.7280927939718427e+00 0 0 0
168 2 2.4610000000000003e+00 1.7050308149707998e+01 2.7280927939718427e+00 0 0 0
172 2 3.6915000000000004e+00 1.4919019630994494e+01 2.7280927939718427e+00 0 0 0
174 2 4.9220000000000006e+00 1.5629449137232333e+01 2.7280927939718427e+00 0 0 0
215 2 4.9220000000000006e+00 1.7050308149707998e+01 2.7280927939718427e+00 0 0 0
219 2 6.1524999999999990e+00 1.4919019630994494e+01 2.7280927939718427e+00 0 0 0
125 2 1.2305000000000001e+00 1.7760737655945832e+01 2.7280927939718427e+00 0 0 0
164 2 1.2305000000000001e+00 1.9181596668421495e+01 2.7280927939718427e+00 0 0 0
170 2 3.6914999999999996e+00 1.7760737655945832e+01 2.7280927939718427e+00 0 0 0
211 2 3.6914999999999996e+00 1.9181596668421495e+01 2.7280927939718427e+00 0 0 0
72 2 0.0000000000000000e+00 9.9460130873296642e+00 5.7953145273973377e+00 0 0 0
101 2 2.4610000000000003e+00 9.9460130873296642e+00 5.7953145273973377e+00 0 0 0
138 2 4.9220000000000006e+00 9.9460130873296642e+00 5.7953145273973377e+00 0 0 0
95 2 0.0000000000000000e+00 1.2787731112280996e+01 5.7953145273973377e+00 0 0 0
97 2 1.2305000000000001e+00 1.2077301606043163e+01 5.7953145273973377e+00 0 0 0
99 2 1.2305000000000001e+00 1.0656442593567498e+01 5.7953145273973377e+00 0 0 0
132 2 2.4610000000000003e+00 1.2787731112280996e+01 5.7953145273973377e+00 0 0 0
134 2 3.6914999999999996e+00 1.2077301606043163e+01 5.7953145273973377e+00 0 0 0
136 2 3.6914999999999996e+00 1.0656442593567499e+01 5.7953145273973377e+00 0 0 0
392 2 0.0000000000000000e+00 1.1366872099805333e+01 8.8625362608240579e+00 0 0 0
404 2 0.0000000000000000e+00 1.2787731112280996e+01 8.8625362608240579e+00 0 0 0
405 2 1.2305000000000001e+00 1.3498160618518829e+01 8.8625362608240579e+00 0 0 0
406 2 1.2305000000000001e+00 1.0656442593567498e+01 8.8625362608240579e+00 0 0 0
407 2 2.4610000000000003e+00 1.1366872099805333e+01 8.8625362608240579e+00 0 0 0
423 2 2.4610000000000003e+00 1.2787731112280996e+01 8.8625362608240579e+00 0 0 0
424 2 3.6915000000000004e+00 1.3498160618518829e+01 8.8625362608240579e+00 0 0 0
425 2 3.6914999999999996e+00 1.0656442593567499e+01 8.8625362608240579e+00 0 0 0
177 2 4.9220000000000006e+00 1.2787731112280996e+01 5.7953145273973377e+00 0 0 0
426 2 4.9220000000000006e+00 1.1366872099805333e+01 8.8625362608240579e+00 0 0 0
446 2 4.9220000000000006e+00 1.2787731112280996e+01 8.8625362608240579e+00 0 0 0
447 2 6.1524999999999990e+00 1.3498160618518829e+01 8.8625362608240579e+00 0 0 0
93 2 0.0000000000000000e+00 1.4208590124756663e+01 5.7953145273973377e+00 0 0 0
130 2 2.4610000000000003e+00 1.4208590124756663e+01 5.7953145273973377e+00 0 0 0
175 2 4.9220000000000006e+00 1.4208590124756663e+01 5.7953145273973377e+00 0 0 0
124 2 0.0000000000000000e+00 1.7050308149707998e+01 5.7953145273973377e+00 0 0 0
126 2 1.2305000000000001e+00 1.6339878643470165e+01 5.7953145273973377e+00 0 0 0
128 2 1.2305000000000001e+00 1.4919019630994494e+01 5.7953145273973377e+00 0 0 0
169 2 2.4610000000000003e+00 1.7050308149707998e+01 5.7953145273973377e+00 0 0 0
171 2 3.6915000000000004e+00 1.6339878643470165e+01 5.7953145273973377e+00 0 0 0
173 2 3.6915000000000004e+00 1.4919019630994494e+01 5.7953145273973377e+00 0 0 0
403 2 0.0000000000000000e+00 1.5629449137232333e+01 8.8625362608240579e+00 0 0 0
419 2 0.0000000000000000e+00 1.7050308149707998e+01 8.8625362608240579e+00 0 0 0
421 2 1.2305000000000001e+00 1.4919019630994494e+01 8.8625362608240579e+00 0 0 0
422 2 2.4610000000000003e+00 1.5629449137232328e+01 8.8625362608240579e+00 0 0 0
442 2 2.4610000000000003e+00 1.7050308149707998e+01 8.8625362608240579e+00 0 0 0
444 2 3.6915000000000004e+00 1.4919019630994494e+01 8.8625362608240579e+00 0 0 0
216 2 4.9220000000000006e+00 1.7050308149707998e+01 5.7953145273973377e+00 0 0 0
220 2 6.1524999999999990e+00 1.4919019630994494e+01 5.7953145273973377e+00 0 0 0
445 2 4.9220000000000006e+00 1.5629449137232333e+01 8.8625362608240579e+00 0 0 0
466 2 4.9220000000000006e+00 1.7050308149707998e+01 8.8625362608240579e+00 0 0 0
468 2 6.1524999999999990e+00 1.4919019630994494e+01 8.8625362608240579e+00 0 0 0
122 2 0.0000000000000000e+00 1.8471167162183658e+01 5.7953145273973377e+00 0 0 0
165 2 1.2305000000000001e+00 1.9181596668421495e+01 5.7953145273973377e+00 0 0 0
167 2 2.4610000000000003e+00 1.8471167162183658e+01 5.7953145273973377e+00 0 0 0
212 2 3.6914999999999996e+00 1.9181596668421495e+01 5.7953145273973377e+00 0 0 0
420 2 1.2305000000000001e+00 1.7760737655945832e+01 8.8625362608240579e+00 0 0 0
440 2 1.2305000000000001e+00 1.9181596668421495e+01 8.8625362608240579e+00 0 0 0
443 2 3.6914999999999996e+00 1.7760737655945832e+01 8.8625362608240579e+00 0 0 0
464 2 3.6914999999999996e+00 1.9181596668421495e+01 8.8625362608240579e+00 0 0 0
214 2 4.9220000000000006e+00 1.8471167162183658e+01 5.7953145273973377e+00 0 0 0
1992 1 3.4254311362649315e+00 1.2654273362737909e+01 1.1747663228099894e+01 0 1 0
3304 1 1.5946139252646023e+00 1.4420500042174712e+01 1.1312951114866127e+01 2 0 0
2087 1 4.7050000241208417e-01 1.9291407435360679e+01 1.1616853992588204e+01 1 0 0
1252 1 2.5011376920780610e+00 1.7344146296449182e+01 1.1716677710076482e+01 1 0 0
1909 1 5.2964393867427528e+00 1.7490197535098300e+01 1.1216790682169265e+01 1 0 0
3280 1 2.8251384451293622e+00 1.0178191871911707e+01 1.1055830707208390e+01 0 -1 0
1390 1 6.1003862030059217e+00 1.3035981318629952e+01 1.1436648378749036e+01 1 0 0
612 1 3.2505787894581482e+00 1.2783468189270172e+01 1.4395396815541044e+01 0 0 0
1234 1 1.3671774106818464e+00 1.4332848469135962e+01 1.5369837557568630e+01 2 0 1
748 1 5.7367145594422633e+00 1.0308880991810209e+01 2.6075139312688467e+01 0 1 0
1975 1 1.9512365400177736e+00 1.6809063765580074e+01 1.4756721917119066e+01 1 0 0
2032 1 4.6640523382994248e+00 1.7206133318707607e+01 1.5517425858374660e+01 1 1 0
1276 1 4.9415299272039936e-01 1.8954871935535763e+01 1.5444926685805450e+01 0 0 -1
2633 1 1.6092336105971090e+00 1.4296666010534372e+01 1.8202744889603675e+01 1 1 -1
2065 1 5.0818126681316640e+00 1.0654427823119152e+01 1.9058403552389475e+01 -1 0 -1
1318 1 6.5711801717038487e-01 1.1654949628969918e+01 1.9006105752325801e+01 2 0 0
2587 1 8.6028153462534984e-01 1.1821003881525005e+01 2.1949272116428919e+01 0 1 -1
3388 1 5.3674039397123465e+00 1.0420572586125827e+01 2.1771746432141942e+01 2 -1 0
2677 1 2.6302699088100523e+00 1.7020900340173430e+01 2.5669049091475618e+01 1 0 -1
2651 1 2.4657938073747578e+00 1.6866058352554166e+01 2.2818646995467155e+01 0 0 0
1315 1 5.7167194759766049e-01 1.8642270980981326e+01 1.8385005686391231e+01 0 0 -1
1433 1 5.0660764537955361e+00 1.7337373432792699e+01 1.8303470257691728e+01 1 -1 0
2586 1 4.1293997377574110e+00 1.4587232553033765e+01 2.1807521113063892e+01 0 1 0
4026 1 4.1984880453703992e+00 1.4817570041955118e+01 1.8962450272519849e+01 0 0 1
1345 1 4.5406953038208631e+00 1.5115431328081050e+01 2.5915254203359730e+01 1 0 -1
604 1 3.1839833347456201e+00 1.9216840036769042e+01 2.2103536750836085e+01 0 0 1
1294 1 3.3226873437211975e+00 1.2128348056348027e+01 2.2927025301594067e+01 0 0 0
1425 1 3.9154387849729297e+00 1.2369594158018531e+01 2.5532718012197467e+01 0 0 0
1908 1 1.0130274398672989e+00 1.1919519420273152e+01 2.5828302246853546e+01 1 0 0
3406 1 2.6604780381566187e+00 1.0076393528702798e+01 1.5349017508466101e+01 1 0 0
1323 1 6.0369024121550359e+00 1.2838294775753177e+01 1.5476433742853331e+01 1 0 0
4014 1 5.8903063675706067e+00 1.2935114564656773e+01 1.8131194255586319e+01 0 -1 -1
3390 1 3.2424356443785634e+00 1.9314015824425329e+01 1.9343929935017645e+01 1 0 0
1393 1 1.1699377860323068e-01 1.6112880288075424e+01 2.1910305368243410e+01 0 1 0
121 2 0.0000000000000000e+00 1.9892026174659328e+01 2.7280927939718427e+00 0 0 0
166 2 2.4610000000000003e+00 1.9892026174659328e+01 2.7280927939718427e+00 0 0 0
213 2 4.9220000000000006e+00 1.9892026174659328e+01 2.7280927939718427e+00 0 0 0
158 2 0.0000000000000000e+00 2.4154603212086325e+01 2.7280927939718427e+00 0 0 0
160 2 0.0000000000000000e+00 2.1312885187134999e+01 2.7280927939718427e+00 0 0 0
162 2 1.2304999999999993e+00 2.2023314693372832e+01 2.7280927939718427e+00 0 0 0
203 2 1.2304999999999993e+00 2.3444173705848499e+01 2.7280927939718427e+00 0 0 0
205 2 2.4610000000000003e+00 2.4154603212086325e+01 2.7280927939718427e+00 0 0 0
207 2 2.4610000000000003e+00 2.1312885187134995e+01 2.7280927939718427e+00 0 0 0
209 2 3.6914999999999996e+00 2.2023314693372832e+01 2.7280927939718427e+00 0 0 0
250 2 3.6915000000000004e+00 2.3444173705848499e+01 2.7280927939718427e+00 0 0 0
252 2 4.9220000000000006e+00 2.4154603212086325e+01 2.7280927939718427e+00 0 0 0
254 2 4.9220000000000006e+00 2.1312885187134995e+01 2.7280927939718427e+00 0 0 0
256 2 6.1524999999999990e+00 2.2023314693372832e+01 2.7280927939718427e+00 0 0 0
774 2 0.0000000000000000e+00 2.5575462224561992e+01 2.7280927939718427e+00 0 0 0
776 2 1.2305000000000001e+00 2.6285891730799833e+01 2.7280927939718427e+00 0 0 0
784 2 1.2305000000000010e+00 2.7706750743275496e+01 2.7280927939718427e+00 0 0 0
788 2 2.4610000000000003e+00 2.5575462224561992e+01 2.7280927939718427e+00 0 0 0
790 2 3.6914999999999991e+00 2.6285891730799833e+01 2.7280927939718427e+00 0 0 0
806 2 3.6914999999999996e+00 2.7706750743275496e+01 2.7280927939718427e+00 0 0 0
810 2 4.9220000000000006e+00 2.5575462224561992e+01 2.7280927939718427e+00 0 0 0
836 2 6.1524999999999990e+00 2.7706750743275496e+01 2.7280927939718427e+00 0 0 0
772 2 0.0000000000000000e+00 2.8417180249513333e+01 2.7280927939718427e+00 0 0 0
786 2 2.4610000000000003e+00 2.8417180249513326e+01 2.7280927939718427e+00 0 0 0
808 2 4.9220000000000006e+00 2.8417180249513336e+01 2.7280927939718427e+00 0 0 0
163 2 1.2305000000000001e+00 2.0602455680897162e+01 5.7953145273973377e+00 0 0 0
210 2 3.6915000000000004e+00 2.0602455680897162e+01 5.7953145273973377e+00 0 0 0
418 2 0.0000000000000000e+00 1.9892026174659328e+01 8.8625362608240579e+00 0 0 0
441 2 2.4610000000000003e+00 1.9892026174659328e+01 8.8625362608240579e+00 0 0 0
465 2 4.9220000000000006e+00 1.9892026174659328e+01 8.8625362608240579e+00 0 0 0
159 2 0.0000000000000000e+00 2.2733744199610655e+01 5.7953145273973377e+00 0 0 0
161 2 0.0000000000000000e+00 2.1312885187134999e+01 5.7953145273973377e+00 0 0 0
204 2 1.2304999999999993e+00 2.3444173705848499e+01 5.7953145273973377e+00 0 0 0
206 2 2.4610000000000003e+00 2.2733744199610655e+01 5.7953145273973377e+00 0 0 0
208 2 2.4610000000000003e+00 2.1312885187134995e+01 5.7953145273973377e+00 0 0 0
251 2 3.6915000000000004e+00 2.3444173705848499e+01 5.7953145273973377e+00 0 0 0
437 2 0.0000000000000000e+00 2.4154603212086325e+01 8.8625362608240579e+00 0 0 0
438 2 0.0000000000000000e+00 2.1312885187134999e+01 8.8625362608240579e+00 0 0 0
439 2 1.2304999999999993e+00 2.2023314693372832e+01 8.8625362608240579e+00 0 0 0
460 2 1.2304999999999993e+00 2.3444173705848499e+01 8.8625362608240579e+00 0 0 0
461 2 2.4610000000000003e+00 2.4154603212086325e+01 8.8625362608240579e+00 0 0 0
462 2 2.4610000000000003e+00 2.1312885187134995e+01 8.8625362608240579e+00 0 0 0
463 2 3.6914999999999996e+00 2.2023314693372832e+01 8.8625362608240579e+00 0 0 0
484 2 3.6915000000000004e+00 2.3444173705848499e+01 8.8625362608240579e+00 0 0 0
253 2 4.9220000000000006e+00 2.2733744199610655e+01 5.7953145273973377e+00 0 0 0
255 2 4.9220000000000006e+00 2.1312885187134995e+01 5.7953145273973377e+00 0 0 0
485 2 4.9220000000000006e+00 2.4154603212086325e+01 8.8625362608240579e+00 0 0 0
486 2 4.9220000000000006e+00 2.1312885187134995e+01 8.8625362608240579e+00 0 0 0
487 2 6.1524999999999990e+00 2.2023314693372832e+01 8.8625362608240579e+00 0 0 0
773 2 0.0000000000000000e+00 2.6996321237037659e+01 5.7953145273973377e+00 0 0 0
775 2 0.0000000000000000e+00 2.5575462224561992e+01 5.7953145273973377e+00 0 0 0
777 2 1.2305000000000001e+00 2.4865032718324155e+01 5.7953145273973377e+00 0 0 0
785 2 1.2305000000000010e+00 2.7706750743275496e+01 5.7953145273973377e+00 0 0 0
787 2 2.4610000000000003e+00 2.6996321237037659e+01 5.7953145273973377e+00 0 0 0
789 2 2.4610000000000003e+00 2.5575462224561992e+01 5.7953145273973377e+00 0 0 0
791 2 3.6914999999999996e+00 2.4865032718324166e+01 5.7953145273973377e+00 0 0 0
807 2 3.6914999999999996e+00 2.7706750743275496e+01 5.7953145273973377e+00 0 0 0
1088 2 0.0000000000000000e+00 2.5575462224561992e+01 8.8625362608240579e+00 0 0 0
1089 2 1.2305000000000001e+00 2.6285891730799833e+01 8.8625362608240579e+00 0 0 0
1093 2 1.2305000000000010e+00 2.7706750743275496e+01 8.8625362608240579e+00 0 0 0
1095 2 2.4610000000000003e+00 2.5575462224561992e+01 8.8625362608240579e+00 0 0 0
1096 2 3.6914999999999991e+00 2.6285891730799833e+01 8.8625362608240579e+00 0 0 0
1104 2 3.6914999999999996e+00 2.7706750743275496e+01 8.8625362608240579e+00 0 0 0
809 2 4.9220000000000006e+00 2.6996321237037659e+01 5.7953145273973377e+00 0 0 0
811 2 4.9220000000000006e+00 2.5575462224561992e+01 5.7953145273973377e+00 0 0 0
813 2 6.1524999999999990e+00 2.4865032718324155e+01 5.7953145273973377e+00 0 0 0
837 2 6.1524999999999990e+00 2.7706750743275496e+01 5.7953145273973377e+00 0 0 0
1106 2 4.9220000000000006e+00 2.5575462224561992e+01 8.8625362608240579e+00 0 0 0
1119 2 6.1524999999999990e+00 2.7706750743275496e+01 8.8625362608240579e+00 0 0 0
783 2 1.2304999999999993e+00 2.9127609755751163e+01 5.7953145273973377e+00 0 0 0
805 2 3.6914999999999991e+00 2.9127609755751152e+01 5.7953145273973377e+00 0 0 0
1087 2 0.0000000000000000e+00 2.8417180249513333e+01 8.8625362608240579e+00 0 0 0
1094 2 2.4610000000000003e+00 2.8417180249513326e+01 8.8625362608240579e+00 0 0 0
835 2 6.1524999999999981e+00 2.9127609755751152e+01 5.7953145273973377e+00 0 0 0
1105 2 4.9220000000000006e+00 2.8417180249513336e+01 8.8625362608240579e+00 0 0 0
1921 1 1.2508182215403854e+00 2.1791626453501323e+01 1.2041386327278371e+01 1 -1 0
643 1 3.9879565490348545e+00 2.1873664751317254e+01 1.1460629002885803e+01 0 0 0
574 1 4.5724085760060866e+00 2.4454957498231892e+01 1.1690154678949224e+01 0 0 0
1279 1 4.0933642473053595e+00 2.9090788864001958e+01 1.1918395863832840e+01 2 -1 1
3992 1 2.7705731377292686e+00 2.6644198752606830e+01 1.1348552604837764e+01 -1 0 0
4043 1 5.8653885926759957e+00 1.9912259243262920e+01 1.2083712691991211e+01 2 0 0
3902 1 3.9765530097695900e-02 2.6467197003721211e+01 1.1903118271151454e+01 1 1 1
2758 1 3.6348564328608313e+00 2.1764274440745986e+01 1.5500500054885954e+01 1 1 0
2013 1 1.1269880757088104e+00 2.1519832719325425e+01 1.4593605857620187e+01 0 -1 0
570 1 4.3925321429258100e+00 2.4246460785034600e+01 1.4307690798348732e+01 0 0 -1
724 1 9.9529371842693459e-01 2.8511899949618005e+01 2.5938543731611173e+01 0 -1 0
761 1 3.6195341665504754e+00 2.1915247656741087e+01 1.8403806468823618e+01 0 0 0
605 1 3.7119349754657627e+00 2.8736906253406637e+01 1.4950776365931889e+01 0 0 -1
1357 1 2.7040082235220440e+00 2.6242168097388454e+01 1.5874282050931781e+01 0 -1 0
3358 1 2.7736006516112179e+00 2.6491262305107774e+01 1.8631781055893470e+01 1 -1 1
2597 1 5.7614530304402347e+00 1.9691589753979414e+01 1.4851276946547234e+01 1 0 0
4045 1 5.5872676130599901e+00 2.6976385238488866e+01 2.6203790626821288e+01 -1 1 0
3960 1 3.7859569401223494e+00 2.8905571162363657e+01 2.5372240843552632e+01 1 -1 -1
29 1 1.9446197193089934e+00 2.4030871086890070e+01 1.9279280063495655e+01 0 0 0
3920 1 2.1098019107958144e+00 2.3899518729631545e+01 2.2039254775075108e+01 0 -1 -1
708 1 1.3344334645832849e+00 2.1201817861054707e+01 2.2936512970836564e+01 1 -1 0
4031 1 8.3043988442564320e-01 2.8376116671883178e+01 2.1920468699894645e+01 1 -1 0
2682 1 5.3039609492292179e+00 2.6826578344603778e+01 2.1824699326111247e+01 1 0 0
2045 1 7.5978880319185882e-01 2.8452538277847530e+01 1.9130504899340163e+01 0 -1 -1
719 1 5.3654511885259337e+00 2.6781917740756317e+01 1.9164279439588729e+01 1 0 0
2056 1 4.6573697721051719e+00 2.4135658350673346e+01 2.2903629139730974e+01 1 -1 0
3379 1 1.8948471765153638e+00 2.4006632499391944e+01 2.5744727913760773e+01 1 0 0
1414 1 1.3421025061627023e+00 2.1286635455373982e+01 2.5600046396195239e+01 1 0 0
2653 1 4.7165900147394755e+00 2.4364594736435706e+01 2.5730582016795328e+01 1 0 -1
3432 1 3.7678510963195078e+00 1.9678463879534991e+01 2.5544678878306101e+01 1 1 0
2562 1 3.3830384922313046e+00 2.8812392206520386e+01 2.2697572941743360e+01 0 -2 -1
2028 1 5.5582232354050056e+00 2.0065275411395046e+01 2.3103534457356393e+01 1 -1 -1
4039 1 2.8602133028241362e-02 2.6077457680289125e+01 1.4900884605106407e+01 0 0 0
2092 1 5.9674342160199885e+00 2.2009294535669660e+01 2.5875887981917700e+01 0 0 0
2643 1 1.0513834142758492e-01 2.6165931189179435e+01 2.5686201133935128e+01 0 -1 -1
2030 1 3.6418012279138556e-01 2.5830973197234425e+01 2.2881410080111454e+01 1 0 0
780 2 0.0000000000000000e+00 2.9838039261988989e+01 2.7280927939718427e+00 0 0 0
782 2 1.2304999999999993e+00 3.0548468768226829e+01 2.7280927939718427e+00 0 0 0
802 2 2.4610000000000003e+00 2.9838039261988989e+01 2.7280927939718427e+00 0 0 0
804 2 3.6915000000000004e+00 3.0548468768226829e+01 2.7280927939718427e+00 0 0 0
832 2 4.9220000000000006e+00 2.9838039261988989e+01 2.7280927939718427e+00 0 0 0
778 2 0.0000000000000000e+00 3.2679757286940330e+01 2.7280927939718427e+00 0 0 0
794 2 0.0000000000000000e+00 3.4100616299415996e+01 2.7280927939718427e+00 0 0 0
798 2 1.2304999999999993e+00 3.1969327780702493e+01 2.7280927939718427e+00 0 0 0
800 2 2.4610000000000003e+00 3.2679757286940337e+01 2.7280927939718427e+00 0 0 0
824 2 2.4609999999999985e+00 3.4100616299415996e+01 2.7280927939718427e+00 0 0 0
828 2 3.6914999999999996e+00 3.1969327780702493e+01 2.7280927939718427e+00 0 0 0
830 2 4.9220000000000015e+00 3.2679757286940337e+01 2.7280927939718427e+00 0 0 0
862 2 4.9220000000000006e+00 3.4100616299415996e+01 2.7280927939718427e+00 0 0 0
796 2 1.2305000000000010e+00 3.4811045805653833e+01 2.7280927939718427e+00 0 0 0
826 2 3.6915000000000018e+00 3.4811045805653833e+01 2.7280927939718427e+00 0 0 0
792 2 0.0000000000000000e+00 3.6942334324367337e+01 2.7280927939718427e+00 0 0 0
816 2 0.0000000000000000e+00 3.8363193336842990e+01 2.7280927939718427e+00 0 0 0
820 2 1.2304999999999993e+00 3.6231904818129486e+01 2.7280927939718427e+00 0 0 0
822 2 2.4610000000000021e+00 3.6942334324367337e+01 2.7280927939718427e+00 0 0 0
854 2 2.4610000000000003e+00 3.8363193336842990e+01 2.7280927939718427e+00 0 0 0
858 2 3.6914999999999996e+00 3.6231904818129486e+01 2.7280927939718427e+00 0 0 0
860 2 4.9220000000000006e+00 3.6942334324367316e+01 2.7280927939718427e+00 0 0 0
899 2 4.9220000000000006e+00 3.8363193336842990e+01 2.7280927939718427e+00 0 0 0
818 2 1.2305000000000010e+00 3.9073622843080841e+01 2.7280927939718427e+00 0 0 0
856 2 3.6915000000000018e+00 3.9073622843080820e+01 2.7280927939718427e+00 0 0 0
779 2 0.0000000000000000e+00 3.1258898274464656e+01 5.7953145273973377e+00 0 0 0
781 2 0.0000000000000000e+00 2.9838039261988989e+01 5.7953145273973377e+00 0 0 0
801 2 2.4609999999999985e+00 3.1258898274464656e+01 5.7953145273973377e+00 0 0 0
803 2 2.4610000000000003e+00 2.9838039261988989e+01 5.7953145273973377e+00 0 0 0
1091 2 0.0000000000000000e+00 2.9838039261988989e+01 8.8625362608240579e+00 0 0 0
1092 2 1.2304999999999993e+00 3.0548468768226829e+01 8.8625362608240579e+00 0 0 0
1102 2 2.4610000000000003e+00 2.9838039261988989e+01 8.8625362608240579e+00 0 0 0
1103 2 3.6915000000000004e+00 3.0548468768226829e+01 8.8625362608240579e+00 0 0 0
831 2 4.9219999999999979e+00 3.1258898274464656e+01 5.7953145273973377e+00 0 0 0
833 2 4.9220000000000006e+00 2.9838039261988989e+01 5.7953145273973377e+00 0 0 0
1117 2 4.9220000000000006e+00 2.9838039261988989e+01 8.8625362608240579e+00 0 0 0
795 2 0.0000000000000000e+00 3.4100616299415996e+01 5.7953145273973377e+00 0 0 0
797 2 1.2304999999999993e+00 3.3390186793178160e+01 5.7953145273973377e+00 0 0 0
799 2 1.2304999999999993e+00 3.1969327780702493e+01 5.7953145273973377e+00 0 0 0