LAMMPS data file via write_data, version 16 Mar 2018, timestep = 100000

4055 atoms
2 atom types

0.0000000000000000e+00 4.9219999999999999e+01 xlo xhi
0.0000000000000000e+00 4.9019635930410494e+01 ylo yhi
1.7393605986947183e+00 2.6200639401306564e+01 zlo zhi

Masses

1 18.015
2 12.01

Atoms # atomic

53 2 0.0000000000000000e+00 2.8417180249513345e+00 3.2810231994395767e+00 0 0 0
55 2 0.0000000000000000e+00 0.0000000000000000e+00 3.2810231994395767e+00 0 0 0
57 2 1.2305000000000001e+00 7.1042950623783474e-01 3.2810231994395767e+00 0 0 0
64 2 1.2305000000000001e+00 2.1312885187134998e+00 3.2810231994395767e+00 0 0 0
66 2 2.4610000000000003e+00 2.8417180249513345e+00 3.2810231994395767e+00 0 0 0
68 2 2.4610000000000003e+00 0.0000000000000000e+00 3.2810231994395767e+00 0 0 0
70 2 3.6915000000000004e+00 7.1042950623783474e-01 3.2810231994395767e+00 0 0 0
85 2 3.6914999999999996e+00 2.1312885187134998e+00 3.2810231994395767e+00 0 0 0
87 2 4.9220000000000006e+00 2.8417180249513332e+00 3.2810231994395767e+00 0 0 0
89 2 4.9220000000000006e+00 0.0000000000000000e+00 3.2810231994395767e+00 0 0 0
60 2 0.0000000000000000e+00 4.2625770374269996e+00 3.2810231994395767e+00 0 0 0
81 2 2.4610000000000003e+00 4.2625770374269996e+00 3.2810231994395767e+00 0 0 0
110 2 4.9220000000000006e+00 4.2625770374269978e+00 3.2810231994395767e+00 0 0 0
62 2 1.2305000000000001e+00 4.9730065436648339e+00 3.2810231994395767e+00 0 0 0
77 2 1.2305000000000001e+00 6.3938655561404980e+00 3.2810231994395767e+00 0 0 0
83 2 3.6914999999999996e+00 4.9730065436648339e+00 3.2810231994395767e+00 0 0 0
106 2 3.6914999999999996e+00 6.3938655561404980e+00 3.2810231994395767e+00 0 0 0
58 2 0.0000000000000000e+00 7.1042950623783341e+00 3.2810231994395767e+00 0 0 0
73 2 0.0000000000000000e+00 8.5251540748539991e+00 3.2810231994395767e+00 0 0 0
75 2 1.2305000000000001e+00 9.2355835810918343e+00 3.2810231994395767e+00 0 0 0
79 2 2.4610000000000003e+00 7.1042950623783341e+00 3.2810231994395767e+00 0 0 0
102 2 2.4610000000000003e+00 8.5251540748539991e+00 3.2810231994395767e+00 0 0 0
104 2 3.6915000000000004e+00 9.2355835810918343e+00 3.2810231994395767e+00 0 0 0
108 2 4.9220000000000006e+00 7.1042950623783341e+00 3.2810231994395767e+00 0 0 0
139 2 4.9220000000000006e+00 8.5251540748539991e+00 3.2810231994395767e+00 0 0 0
54 2 0.0000000000000000e+00 1.4208590124756650e+00 6.1973843959810022e+00 0 0 0
56 2 0.0000000000000000e+00 0.0000000000000000e+00 6.1973843959810022e+00 0 0 0
65 2 1.2305000000000001e+00 2.1312885187134998e+00 6.1973843959810022e+00 0 0 0
67 2 2.4610000000000003e+00 1.4208590124756650e+00 6.1973843959810022e+00 0 0 0
69 2 2.4610000000000003e+00 0.0000000000000000e+00 6.1973843959810022e+00 0 0 0
86 2 3.6914999999999996e+00 2.1312885187134998e+00 6.1973843959810022e+00 0 0 0
382 2 0.0000000000000000e+00 2.8417180249513345e+00 9.1137455925217452e+00 0 0 0
383 2 0.0000000000000000e+00 0.0000000000000000e+00 9.1137455925217452e+00 0 0 0
384 2 1.2305000000000001e+00 7.1042950623783474e-01 9.1137455925217452e+00 0 0 0
388 2 1.2305000000000001e+00 2.1312885187134998e+00 9.1137455925217452e+00 0 0 0
389 2 2.4610000000000003e+00 2.8417180249513345e+00 9.1137455925217452e+00 0 0 0
390 2 2.4610000000000003e+00 0.0000000000000000e+00 9.1137455925217452e+00 0 0 0
391 2 3.6915000000000004e+00 7.1042950623783474e-01 9.1137455925217452e+00 0 0 0
399 2 3.6914999999999996e+00 2.1312885187134998e+00 9.1137455925217452e+00 0 0 0
88 2 4.9220000000000006e+00 1.4208590124756650e+00 6.1973843959810022e+00 0 0 0
90 2 4.9220000000000006e+00 0.0000000000000000e+00 6.1973843959810022e+00 0 0 0
400 2 4.9220000000000006e+00 2.8417180249513332e+00 9.1137455925217452e+00 0 0 0
401 2 4.9220000000000006e+00 0.0000000000000000e+00 9.1137455925217452e+00 0 0 0
61 2 0.0000000000000000e+00 4.2625770374269996e+00 6.1973843959810022e+00 0 0 0
63 2 1.2305000000000001e+00 3.5521475311891644e+00 6.1973843959810022e+00 0 0 0
82 2 2.4610000000000003e+00 4.2625770374269996e+00 6.1973843959810022e+00 0 0 0
84 2 3.6914999999999996e+00 3.5521475311891644e+00 6.1973843959810022e+00 0 0 0
386 2 0.0000000000000000e+00 4.2625770374269996e+00 9.1137455925217452e+00 0 0 0
397 2 2.4610000000000003e+00 4.2625770374269996e+00 9.1137455925217452e+00 0 0 0
111 2 4.9220000000000006e+00 4.2625770374269978e+00 6.1973843959810022e+00 0 0 0
412 2 4.9220000000000006e+00 4.2625770374269978e+00 9.1137455925217452e+00 0 0 0
59 2 0.0000000000000000e+00 5.6834360499026637e+00 6.1973843959810022e+00 0 0 0
78 2 1.2305000000000001e+00 6.3938655561404980e+00 6.1973843959810022e+00 0 0 0
80 2 2.4610000000000003e+00 5.6834360499026637e+00 6.1973843959810022e+00 0 0 0
107 2 3.6914999999999996e+00 6.3938655561404980e+00 6.1973843959810022e+00 0 0 0
387 2 1.2305000000000001e+00 4.9730065436648339e+00 9.1137455925217452e+00 0 0 0
395 2 1.2305000000000001e+00 6.3938655561404980e+00 9.1137455925217452e+00 0 0 0
398 2 3.6914999999999996e+00 4.9730065436648339e+00 9.1137455925217452e+00 0 0 0
410 2 3.6914999999999996e+00 6.3938655561404980e+00 9.1137455925217452e+00 0 0 0
109 2 4.9220000000000006e+00 5.6834360499026637e+00 6.1973843959810022e+00 0 0 0
74 2 0.0000000000000000e+00 8.5251540748539991e+00 6.1973843959810022e+00 0 0 0
76 2 1.2305000000000001e+00 7.8147245686161639e+00 6.1973843959810022e+00 0 0 0
103 2 2.4610000000000003e+00 8.5251540748539991e+00 6.1973843959810022e+00 0 0 0
105 2 3.6914999999999996e+00 7.8147245686161639e+00 6.1973843959810022e+00 0 0 0
385 2 0.0000000000000000e+00 7.1042950623783341e+00 9.1137455925217452e+00 0 0 0
393 2 0.0000000000000000e+00 8.5251540748539991e+00 9.1137455925217452e+00 0 0 0
394 2 1.2305000000000001e+00 9.2355835810918343e+00 9.1137455925217452e+00 0 0 0
396 2 2.4610000000000003e+00 7.1042950623783341e+00 9.1137455925217452e+00 0 0 0
408 2 2.4610000000000003e+00 8.5251540748539991e+00 9.1137455925217452e+00 0 0 0
409 2 3.6915000000000004e+00 9.2355835810918343e+00 9.1137455925217452e+00 0 0 0
140 2 4.9220000000000006e+00 8.5251540748539991e+00 6.1973843959810022e+00 0 0 0
411 2 4.9220000000000006e+00 7.1042950623783341e+00 9.1137455925217452e+00 0 0 0
427 2 4.9220000000000006e+00 8.5251540748539991e+00 9.1137455925217452e+00 0 0 0
2644 1 4.6080126991091053e+00 2.4201383988091161e+00 1.1888873148517829e+01 0 0 0
3421 1 7.6739895812356351e-01 2.8154543840019151e+00 1.1502646374041843e+01 1 2 -1
2071 1 4.3847497089848719e+00 7.8217453375573980e+00 1.2239164742156753e+01 0 1 -1
1985 1 1.6066942592698639e+00 8.1831477931552623e+00 1.2022074785465882e+01 1 0 0
1242 1 3.0564912772843242e+00 4.8175676026707341e+00 1.1535313845743177e+01 0 1 0
1409 1 2.9499344842395137e-01 5.8728110527927209e+00 1.1507008868800984e+01 1 0 -1
1227 1 2.3677568958172333e+00 3.2076203262554709e-01 1.2034298413580450e+01 1 0 0
695 1 4.6410170583253931e+00 2.0441748229712648e+00 1.8855063391583535e+01 0 0 -2
3995 1 8.4691257819405230e-01 2.6384666109875350e+00 1.4337568131114228e+01 1 0 0
2119 1 1.2918091512830228e+00 4.2573883319683405e+00 1.7494249634938424e+01 0 1 0
1944 1 2.7144492312336199e+00 6.5404588198851252e+00 1.6560738906773757e+01 1 1 0
1239 1 3.3710991674059820e+00 1.7768783155724919e+00 1.6287049000281584e+01 2 -1 0
547 1 2.5751042202446999e+00 4.9342886762192624e+00 2.5323719545464698e+01 1 1 0
4042 1 4.5819200313163320e+00 8.2014834263473375e+00 1.5023969258494072e+01 1 1 0
3926 1 3.3771410300976368e+00 4.1867972507857507e+00 1.4573016731520811e+01 1 1 0
3322 1 6.0594388428350250e+00 4.0986300447058834e+00 1.9881770311778162e+01 1 0 0
8 1 5.4080979805036336e+00 5.9597248808388592e+00 1.7978809080489413e+01 0 1 1
3345 1 1.1662585999311630e+00 2.5995714859593924e+00 2.5394708228462775e+01 1 0 0
1954 1 5.7107254390540794e+00 1.2005811765475822e+00 1.4866879870903928e+01 0 0 0
1316 1 4.1805998996491009e+00 4.8104712724743054e-01 2.2515268101649497e+01 0 2 0
2035 1 1.7599819492857318e+00 2.2156703555684367e+00 1.9291743725238199e+01 2 0 0
1342 1 1.9094307838933533e+00 2.8739928671499269e+00 2.2203673013517111e+01 0 0 -1
52 1 5.0529937062575572e+00 8.0868856359787440e+00 1.9715300289723388e+01 1 0 1
2635 1 7.3650714655416938e-01 7.1179244612046695e+00 2.0833206242633132e+01 0 0 -1
3898 1 3.7121052214271661e+00 8.4018530443785266e+00 2.3631287765173887e+01 0 1 0
721 1 2.4357071419514194e+00 8.1028158162420603e+00 1.8940393158086614e+01 0 1 0
3247 1 5.1803376542769985e+00 6.3793620570388168e+00 2.1963318928002849e+01 0 0 0
35 1 2.4761234988372136e+00 5.4236224024639919e+00 2.2513198659562555e+01 0 0 0
751 1 1.4269844176925159e+00 7.5170356932181788e+00 2.5137732590676940e+01 0 0 0
1268 1 3.1991479742799473e+00 4.7475666904874048e-01 2.5308986938517755e+01 1 0 -1
3319 1 9.2844616137135294e-01 8.0360349708476306e+00 1.4873670369522340e+01 0 0 1
3292 1 5.4454661912705120e+00 4.8993606557096712e+00 2.5318532988771217e+01 0 0 0
1389 1 5.2593548593673765e+00 3.3130082790097575e+00 2.2857266261217106e+01 1 -1 -1
680 1 4.4517313327026570e-01 6.4191267557955622e-01 1.6890611916228750e+01 1 0 0
1285 1 6.1241897520737592e+00 7.7229990135292792e-01 2.4981392836458625e+01 1 0 0
71 2 0.0000000000000000e+00 1.1366872099805333e+01 3.2810231994395767e+00 0 0 0
94 2 0.0000000000000000e+00 1.2787731112280996e+01 3.2810231994395767e+00 0 0 0
96 2 1.2305000000000001e+00 1.3498160618518829e+01 3.2810231994395767e+00 0 0 0
98 2 1.2305000000000001e+00 1.0656442593567498e+01 3.2810231994395767e+00 0 0 0
100 2 2.4610000000000003e+00 1.1366872099805333e+01 3.2810231994395767e+00 0 0 0
131 2 2.4610000000000003e+00 1.2787731112280996e+01 3.2810231994395767e+00 0 0 0
133 2 3.6915000000000004e+00 1.3498160618518829e+01 3.2810231994395767e+00 0 0 0
135 2 3.6914999999999996e+00 1.0656442593567499e+01 3.2810231994395767e+00 0 0 0
137 2 4.9220000000000006e+00 1.1366872099805333e+01 3.2810231994395767e+00 0 0 0
176 2 4.9220000000000006e+00 1.2787731112280996e+01 3.2810231994395767e+00 0 0 0
178 2 6.1524999999999990e+00 1.3498160618518829e+01 3.2810231994395767e+00 0 0 0
92 2 0.0000000000000000e+00 1.5629449137232333e+01 3.2810231994395767e+00 0 0 0
123 2 0.0000000000000000e+00 1.7050308149707998e+01 3.2810231994395767e+00 0 0 0
127 2 1.2305000000000001e+00 1.4919019630994494e+01 3.2810231994395767e+00 0 0 0
129 2 2.4610000000000003e+00 1.5629449137232328e+01 3.2810231994395767e+00 0 0 0
168 2 2.4610000000000003e+00 1.7050308149707998e+01 3.2810231994395767e+00 0 0 0
172 2 3.6915000000000004e+00 1.4919019630994494e+01 3.2810231994395767e+00 0 0 0
174 2 4.9220000000000006e+00 1.5629449137232333e+01 3.2810231994395767e+00 0 0 0
215 2 4.9220000000000006e+00 1.7050308149707998e+01 3.2810231994395767e+00 0 0 0
219 2 6.1524999999999990e+00 1.4919019630994494e+01 3.2810231994395767e+00 0 0 0
125 2 1.2305000000000001e+00 1.7760737655945832e+01 3.2810231994395767e+00 0 0 0
164 2 1.2305000000000001e+00 1.9181596668421495e+01 3.2810231994395767e+00 0 0 0
170 2 3.6914999999999996e+00 1.7760737655945832e+01 3.2810231994395767e+00 0 0 0
211 2 3.6914999999999996e+00 1.9181596668421495e+01 3.2810231994395767e+00 0 0 0
72 2 0.0000000000000000e+00 9.9460130873296642e+00 6.1973843959810022e+00 0 0 0
101 2 2.4610000000000003e+00 9.9460130873296642e+00 6.1973843959810022e+00 0 0 0
138 2 4.9220000000000006e+00 9.9460130873296642e+00 6.1973843959810022e+00 0 0 0
95 2 0.0000000000000000e+00 1.2787731112280996e+01 6.1973843959810022e+00 0 0 0
97 2 1.2305000000000001e+00 1.2077301606043163e+01 6.1973843959810022e+00 0 0 0
99 2 1.2305000000000001e+00 1.0656442593567498e+01 6.1973843959810022e+00 0 0 0
132 2 2.4610000000000003e+00 1.2787731112280996e+01 6.1973843959810022e+00 0 0 0
134 2 3.6914999999999996e+00 1.2077301606043163e+01 6.1973843959810022e+00 0 0 0
136 2 3.6914999999999996e+00 1.0656442593567499e+01 6.1973843959810022e+00 0 0 0
392 2 0.0000000000000000e+00 1.1366872099805333e+01 9.1137455925217452e+00 0 0 0
404 2 0.0000000000000000e+00 1.2787731112280996e+01 9.1137455925217452e+00 0 0 0
405 2 1.2305000000000001e+00 1.3498160618518829e+01 9.1137455925217452e+00 0 0 0
406 2 1.2305000000000001e+00 1.0656442593567498e+01 9.1137455925217452e+00 0 0 0
407 2 2.4610000000000003e+00 1.1366872099805333e+01 9.1137455925217452e+00 0 0 0
423 2 2.4610000000000003e+00 1.2787731112280996e+01 9.1137455925217452e+00 0 0 0
424 2 3.6915000000000004e+00 1.3498160618518829e+01 9.1137455925217452e+00 0 0 0
425 2 3.6914999999999996e+00 1.0656442593567499e+01 9.1137455925217452e+00 0 0 0
177 2 4.9220000000000006e+00 1.2787731112280996e+01 6.1973843959810022e+00 0 0 0
426 2 4.9220000000000006e+00 1.1366872099805333e+01 9.1137455925217452e+00 0 0 0
446 2 4.9220000000000006e+00 1.2787731112280996e+01 9.1137455925217452e+00 0 0 0
447 2 6.1524999999999990e+00 1.3498160618518829e+01 9.1137455925217452e+00 0 0 0
93 2 0.0000000000000000e+00 1.4208590124756663e+01 6.1973843959810022e+00 0 0 0
130 2 2.4610000000000003e+00 1.4208590124756663e+01 6.1973843959810022e+00 0 0 0
175 2 4.9220000000000006e+00 1.4208590124756663e+01 6.1973843959810022e+00 0 0 0
124 2 0.0000000000000000e+00 1.7050308149707998e+01 6.1973843959810022e+00 0 0 0
126 2 1.2305000000000001e+00 1.6339878643470165e+01 6.1973843959810022e+00 0 0 0
128 2 1.2305000000000001e+00 1.4919019630994494e+01 6.1973843959810022e+00 0 0 0
169 2 2.4610000000000003e+00 1.7050308149707998e+01 6.1973843959810022e+00 0 0 0
171 2 3.6915000000000004e+00 1.6339878643470165e+01 6.1973843959810022e+00 0 0 0
173 2 3.6915000000000004e+00 1.4919019630994494e+01 6.1973843959810022e+00 0 0 0
403 2 0.0000000000000000e+00 1.5629449137232333e+01 9.1137455925217452e+00 0 0 0
419 2 0.0000000000000000e+00 1.7050308149707998e+01 9.1137455925217452e+00 0 0 0
421 2 1.2305000000000001e+00 1.4919019630994494e+01 9.1137455925217452e+00 0 0 0
422 2 2.4610000000000003e+00 1.5629449137232328e+01 9.1137455925217452e+00 0 0 0
442 2 2.4610000000000003e+00 1.7050308149707998e+01 9.1137455925217452e+00 0 0 0
444 2 3.6915000000000004e+00 1.4919019630994494e+01 9.1137455925217452e+00 0 0 0
216 2 4.9220000000000006e+00 1.7050308149707998e+01 6.1973843959810022e+00 0 0 0
220 2 6.1524999999999990e+00 1.4919019630994494e+01 6.1973843959810022e+00 0 0 0
445 2 4.9220000000000006e+00 1.5629449137232333e+01 9.1137455925217452e+00 0 0 0
466 2 4.9220000000000006e+00 1.7050308149707998e+01 9.1137455925217452e+00 0 0 0
468 2 6.1524999999999990e+00 1.4919019630994494e+01 9.1137455925217452e+00 0 0 0
122 2 0.0000000000000000e+00 1.8471167162183658e+01 6.1973843959810022e+00 0 0 0
165 2 1.2305000000000001e+00 1.9181596668421495e+01 6.1973843959810022e+00 0 0 0
167 2 2.4610000000000003e+00 1.8471167162183658e+01 6.1973843959810022e+00 0 0 0
212 2 3.6914999999999996e+00 1.9181596668421495e+01 6.1973843959810022e+00 0 0 0
420 2 1.2305000000000001e+00 1.7760737655945832e+01 9.1137455925217452e+00 0 0 0
440 2 1.2305000000000001e+00 1.9181596668421495e+01 9.1137455925217452e+00 0 0 0
443 2 3.6914999999999996e+00 1.7760737655945832e+01 9.1137455925217452e+00 0 0 0
464 2 3.6914999999999996e+00 1.9181596668421495e+01 9.1137455925217452e+00 0 0 0
214 2 4.9220000000000006e+00 1.8471167162183658e+01 6.1973843959810022e+00 0 0 0
612 1 2.3323202100145362e+00 1.2359924228253030e+01 1.2298265065853570e+01 0 0 0
769 1 1.2217321836431343e+00 1.4704400998308053e+01 1.2037561486141186e+01 1 0 0
1363 1 4.3692356848937308e+00 1.0667447244318268e+01 1.1849283976213824e+01 0 1 0
2123 1 2.7455333322318700e+00 1.7031880530583923e+01 1.1948359153820663e+01 0 0 -1
2582 1 5.8711691751172674e+00 1.4668780872854384e+01 1.2260130979105275e+01 -1 0 -1
3299 1 6.0373961532854903e-01 1.0691615646022459e+01 1.1418354101889522e+01 0 0 -1
3903 1 4.9678172512120193e+00 1.9168947601089599e+01 1.1537349309870399e+01 0 1 0
563 1 3.8865127379906417e+00 1.7243996139086924e+01 2.2094299317537612e+01 0 0 0
3387 1 4.9973177418366852e+00 1.0945098131557597e+01 1.5896145667993913e+01 1 0 -1
616 1 7.5620567321484777e-01 1.3977795458667904e+01 1.6411931851883303e+01 1 1 0
2595 1 4.5547013022903506e+00 1.4863175767590842e+01 1.4593500679286873e+01 0 0 -1
2087 1 3.0734696520420028e+00 1.2578998218823529e+01 1.4976957975245744e+01 1 0 0
2622 1 4.5914403722609860e+00 1.1935244202003663e+01 1.8518080029846494e+01 1 0 -1
2079 1 1.5180815841412949e+00 1.8931987598886064e+01 2.4638911967976476e+01 1 0 -1
1973 1 3.3641433413295423e+00 1.7602271576505689e+01 1.4713201330247681e+01 0 0 -1
667 1 5.5280083976452508e+00 1.5073229262609173e+01 2.0856948397571358e+01 0 0 0
1420 1 2.3980408532331432e+00 1.6135623629984629e+01 1.7368666676147562e+01 -1 0 0
1425 1 5.3359569506870654e+00 1.0565005500527363e+01 2.5520027657727077e+01 0 0 0
2572 1 2.0252351482663498e+00 1.0804997861243532e+01 1.8143652025568535e+01 0 0 -1
755 1 5.9787947016245591e-01 1.0739942720735254e+01 1.5809201101566922e+01 0 1 -1
1351 1 1.9529402538808140e+00 1.4979262279564288e+01 2.0720003814077664e+01 0 0 -1
4022 1 4.6824866041466393e+00 1.4478922222801691e+01 1.8200043995905588e+01 0 0 -1
2095 1 3.6819950998385509e+00 1.3540803620671408e+01 2.2517205873842457e+01 1 0 1
2078 1 4.9023494999499773e-01 1.2995689557636958e+01 1.9112759316741943e+01 1 -1 -1
4029 1 1.5179333625381957e+00 1.0982230445416146e+01 2.2944762510241674e+01 0 0 0
2750 1 2.4072842903932861e+00 1.8010849636130828e+01 1.9712976452027846e+01 1 1 0
3408 1 1.6176551769967931e+00 1.2823059955884471e+01 2.5078547452576807e+01 0 0 0
2735 1 3.5269860459240516e+00 1.4529865054715820e+01 2.5077148379228042e+01 1 0 0
2649 1 3.6559304736233411e+00 1.0560815760313750e+01 2.1176133656603135e+01 0 0 0
3235 1 3.7317924340844510e+00 1.7257957761886313e+01 2.5011127018469132e+01 1 0 0
1294 1 2.8214229580930339e-01 1.8775159280177878e+01 2.1907734461757379e+01 0 0 0
3436 1 8.2304995050840657e-01 1.8562200318122954e+01 1.5133046275478433e+01 0 1 0
697 1 5.9534975696694143e+00 1.3287558899755680e+01 2.5186465256247018e+01 1 1 0
1327 1 1.1122858726074493e-01 1.8282678774241621e+01 1.8016400569273721e+01 0 -1 0
121 2 0.0000000000000000e+00 1.9892026174659328e+01 3.2810231994395767e+00 0 0 0
166 2 2.4610000000000003e+00 1.9892026174659328e+01 3.2810231994395767e+00 0 0 0
213 2 4.9220000000000006e+00 1.9892026174659328e+01 3.2810231994395767e+00 0 0 0
158 2 0.0000000000000000e+00 2.4154603212086325e+01 3.2810231994395767e+00 0 0 0
160 2 0.0000000000000000e+00 2.1312885187134999e+01 3.2810231994395767e+00 0 0 0
162 2 1.2304999999999993e+00 2.2023314693372832e+01 3.2810231994395767e+00 0 0 0
203 2 1.2304999999999993e+00 2.3444173705848499e+01 3.2810231994395767e+00 0 0 0
205 2 2.4610000000000003e+00 2.4154603212086325e+01 3.2810231994395767e+00 0 0 0
207 2 2.4610000000000003e+00 2.1312885187134995e+01 3.2810231994395767e+00 0 0 0
209 2 3.6914999999999996e+00 2.2023314693372832e+01 3.2810231994395767e+00 0 0 0
250 2 3.6915000000000004e+00 2.3444173705848499e+01 3.2810231994395767e+00 0 0 0
252 2 4.9220000000000006e+00 2.4154603212086325e+01 3.2810231994395767e+00 0 0 0
254 2 4.9220000000000006e+00 2.1312885187134995e+01 3.2810231994395767e+00 0 0 0
256 2 6.1524999999999990e+00 2.2023314693372832e+01 3.2810231994395767e+00 0 0 0
774 2 0.0000000000000000e+00 2.5575462224561992e+01 3.2810231994395767e+00 0 0 0
776 2 1.2305000000000001e+00 2.6285891730799833e+01 3.2810231994395767e+00 0 0 0
784 2 1.2305000000000010e+00 2.7706750743275496e+01 3.2810231994395767e+00 0 0 0
788 2 2.4610000000000003e+00 2.5575462224561992e+01 3.2810231994395767e+00 0 0 0
790 2 3.6914999999999991e+00 2.6285891730799833e+01 3.2810231994395767e+00 0 0 0
806 2 3.6914999999999996e+00 2.7706750743275496e+01 3.2810231994395767e+00 0 0 0
810 2 4.9220000000000006e+00 2.5575462224561992e+01 3.2810231994395767e+00 0 0 0
836 2 6.1524999999999990e+00 2.7706750743275496e+01 3.2810231994395767e+00 0 0 0
772 2 0.0000000000000000e+00 2.8417180249513333e+01 3.2810231994395767e+00 0 0 0
786 2 2.4610000000000003e+00 2.8417180249513326e+01 3.2810231994395767e+00 0 0 0
808 2 4.9220000000000006e+00 2.8417180249513336e+01 3.2810231994395767e+00 0 0 0
163 2 1.2305000000000001e+00 2.0602455680897162e+01 6.1973843959810022e+00 0 0 0
210 2 3.6915000000000004e+00 2.0602455680897162e+01 6.1973843959810022e+00 0 0 0
418 2 0.0000000000000000e+00 1.9892026174659328e+01 9.1137455925217452e+00 0 0 0
441 2 2.4610000000000003e+00 1.9892026174659328e+01 9.1137455925217452e+00 0 0 0
465 2 4.9220000000000006e+00 1.9892026174659328e+01 9.1137455925217452e+00 0 0 0
159 2 0.0000000000000000e+00 2.2733744199610655e+01 6.1973843959810022e+00 0 0 0
161 2 0.0000000000000000e+00 2.1312885187134999e+01 6.1973843959810022e+00 0 0 0
204 2 1.2304999999999993e+00 2.3444173705848499e+01 6.1973843959810022e+00 0 0 0
206 2 2.4610000000000003e+00 2.2733744199610655e+01 6.1973843959810022e+00 0 0 0
208 2 2.4610000000000003e+00 2.1312885187134995e+01 6.1973843959810022e+00 0 0 0
251 2 3.6915000000000004e+00 2.3444173705848499e+01 6.1973843959810022e+00 0 0 0
437 2 0.0000000000000000e+00 2.4154603212086325e+01 9.1137455925217452e+00 0 0 0
438 2 0.0000000000000000e+00 2.1312885187134999e+01 9.1137455925217452e+00 0 0 0
439 2 1.2304999999999993e+00 2.2023314693372832e+01 9.1137455925217452e+00 0 0 0
460 2 1.2304999999999993e+00 2.3444173705848499e+01 9.1137455925217452e+00 0 0 0
461 2 2.4610000000000003e+00 2.4154603212086325e+01 9.1137455925217452e+00 0 0 0
462 2 2.4610000000000003e+00 2.1312885187134995e+01 9.1137455925217452e+00 0 0 0
463 2 3.6914999999999996e+00 2.2023314693372832e+01 9.1137455925217452e+00 0 0 0
484 2 3.6915000000000004e+00 2.3444173705848499e+01 9.1137455925217452e+00 0 0 0
253 2 4.9220000000000006e+00 2.2733744199610655e+01 6.1973843959810022e+00 0 0 0
255 2 4.9220000000000006e+00 2.1312885187134995e+01 6.1973843959810022e+00 0 0 0
485 2 4.9220000000000006e+00 2.4154603212086325e+01 9.1137455925217452e+00 0 0 0
486 2 4.9220000000000006e+00 2.1312885187134995e+01 9.1137455925217452e+00 0 0 0
487 2 6.1524999999999990e+00 2.2023314693372832e+01 9.1137455925217452e+00 0 0 0
773 2 0.0000000000000000e+00 2.6996321237037659e+01 6.1973843959810022e+00 0 0 0
775 2 0.0000000000000000e+00 2.5575462224561992e+01 6.1973843959810022e+00 0 0 0
777 2 1.2305000000000001e+00 2.4865032718324155e+01 6.1973843959810022e+00 0 0 0
785 2 1.2305000000000010e+00 2.7706750743275496e+01 6.1973843959810022e+00 0 0 0
787 2 2.4610000000000003e+00 2.6996321237037659e+01 6.1973843959810022e+00 0 0 0
789 2 2.4610000000000003e+00 2.5575462224561992e+01 6.1973843959810022e+00 0 0 0
791 2 3.6914999999999996e+00 2.4865032718324166e+01 6.1973843959810022e+00 0 0 0
807 2 3.6914999999999996e+00 2.7706750743275496e+01 6.1973843959810022e+00 0 0 0
1088 2 0.0000000000000000e+00 2.5575462224561992e+01 9.1137455925217452e+00 0 0 0
1089 2 1.2305000000000001e+00 2.6285891730799833e+01 9.1137455925217452e+00 0 0 0
1093 2 1.2305000000000010e+00 2.7706750743275496e+01 9.1137455925217452e+00 0 0 0
1095 2 2.4610000000000003e+00 2.5575462224561992e+01 9.1137455925217452e+00 0 0 0
1096 2 3.6914999999999991e+00 2.6285891730799833e+01 9.1137455925217452e+00 0 0 0
1104 2 3.6914999999999996e+00 2.7706750743275496e+01 9.1137455925217452e+00 0 0 0
809 2 4.9220000000000006e+00 2.6996321237037659e+01 6.1973843959810022e+00 0 0 0
811 2 4.9220000000000006e+00 2.5575462224561992e+01 6.1973843959810022e+00 0 0 0
813 2 6.1524999999999990e+00 2.4865032718324155e+01 6.1973843959810022e+00 0 0 0
837 2 6.1524999999999990e+00 2.7706750743275496e+01 6.1973843959810022e+00 0 0 0
1106 2 4.9220000000000006e+00 2.5575462224561992e+01 9.1137455925217452e+00 0 0 0
1119 2 6.1524999999999990e+00 2.7706750743275496e+01 9.1137455925217452e+00 0 0 0
783 2 1.2304999999999993e+00 2.9127609755751163e+01 6.1973843959810022e+00 0 0 0
805 2 3.6914999999999991e+00 2.9127609755751152e+01 6.1973843959810022e+00 0 0 0
1087 2 0.0000000000000000e+00 2.8417180249513333e+01 9.1137455925217452e+00 0 0 0
1094 2 2.4610000000000003e+00 2.8417180249513326e+01 9.1137455925217452e+00 0 0 0
835 2 6.1524999999999981e+00 2.9127609755751152e+01 6.1973843959810022e+00 0 0 0
1105 2 4.9220000000000006e+00 2.8417180249513336e+01 9.1137455925217452e+00 0 0 0
3417 1 2.8002883148176507e+00 2.2736752211044024e+01 1.1589261665292657e+01 1 -1 0
2731 1 5.2395964011454526e+00 2.2031007798683689e+01 1.2166352797067081e+01 0 -1 0
3303 1 5.7861613961778611e+00 2.6195537831279626e+01 1.1995934797079693e+01 0 0 -1
2628 1 1.4420747662817757e+00 2.8157076818016282e+01 1.1641602289853969e+01 1 0 -1
1999 1 3.0060242527013910e+00 2.5770495888300196e+01 1.1583685973190631e+01 0 0 -1
3393 1 1.6475441164254867e+00 2.4245536092903968e+01 1.3804408683158993e+01 0 0 1
1942 1 2.6496664207539999e+00 2.6284016585948624e+01 1.5682339316691552e+01 0 1 -1
1288 1 3.7400191722435334e+00 2.2508527035416709e+01 1.5116445710530455e+01 1 0 0
3398 1 8.3815637050451364e-01 2.1609243730149952e+01 1.4492905226158516e+01 0 0 0
4009 1 4.4985700141481155e+00 2.4083247629624832e+01 1.7513100504183299e+01 0 1 -1
2568 1 8.3471419810240788e-01 2.8248481863677121e+01 1.4730700035316806e+01 0 0 0
2758 1 5.0845518544559387e-01 2.1473573397764888e+01 2.5005030620683812e+01 1 1 0
2693 1 5.2354470982233252e+00 2.0143810983136515e+01 1.4544145418254095e+01 0 0 0
1308 1 4.6100241796916719e-01 2.7668207886319717e+01 2.1797717918257369e+01 1 0 -1
3289 1 3.3472520454286361e+00 2.0973209464361730e+01 1.9354565022806476e+01 0 -1 0
2032 1 3.1462138034261122e+00 2.5608736667591181e+01 2.4793251163152249e+01 1 1 0
700 1 1.1775306961069774e+00 2.2751369556026411e+01 1.9780337856623248e+01 0 0 0
761 1 3.2459179507322977e+00 2.3123923802099181e+01 2.2438778581662532e+01 0 0 0
2746 1 5.9501037896661764e+00 2.2031409845717313e+01 1.9090099917216882e+01 0 1 -1
2010 1 4.2965025909518424e+00 2.4940144312744934e+01 2.0224197384376048e+01 1 1 -1
3938 1 6.0570570714238825e-01 2.7024242367772317e+01 2.4859920821037115e+01 1 0 1
2609 1 1.1320344923369263e+00 2.5290312162886167e+01 1.8183580042021575e+01 0 0 0
2009 1 2.5790187102788593e+00 2.7269160106126950e+01 2.0131925050796028e+01 1 1 -1
3954 1 4.6951208961434920e+00 2.0306509004539627e+01 2.5009439857751907e+01 0 1 -1
3979 1 5.0105185132413110e+00 2.7380293574784826e+01 1.4421113332772359e+01 0 0 0
4045 1 3.0030354851236338e+00 2.2651433538610423e+01 2.5417018077824409e+01 -1 1 0
604 1 4.1875146059742132e+00 2.0359374544687387e+01 2.1941905362110802e+01 0 0 1
1934 1 5.9262783880184351e+00 2.6260438141957103e+01 2.4144188283256717e+01 2 0 1
571 1 8.1486645806010158e-02 2.2924639790226539e+01 2.2547077020067618e+01 0 0 0
780 2 0.0000000000000000e+00 2.9838039261988989e+01 3.2810231994395767e+00 0 0 0
782 2 1.2304999999999993e+00 3.0548468768226829e+01 3.2810231994395767e+00 0 0 0
802 2 2.4610000000000003e+00 2.9838039261988989e+01 3.2810231994395767e+00 0 0 0
804 2 3.6915000000000004e+00 3.0548468768226829e+01 3.2810231994395767e+00 0 0 0
832 2 4.9220000000000006e+00 2.9838039261988989e+01 3.2810231994395767e+00 0 0 0
778 2 0.0000000000000000e+00 3.2679757286940330e+01 3.2810231994395767e+00 0 0 0
794 2 0.0000000000000000e+00 3.4100616299415996e+01 3.2810231994395767e+00 0 0 0
798 2 1.2304999999999993e+00 3.1969327780702493e+01 3.2810231994395767e+00 0 0 0
800 2 2.4610000000000003e+00 3.2679757286940337e+01 3.2810231994395767e+00 0 0 0
824 2 2.4609999999999985e+00 3.4100616299415996e+01 3.2810231994395767e+00 0 0 0
828 2 3.6914999999999996e+00 3.1969327780702493e+01 3.2810231994395767e+00 0 0 0
830 2 4.9220000000000015e+00 3.2679757286940337e+01 3.2810231994395767e+00 0 0 0
862 2 4.9220000000000006e+00 3.4100616299415996e+01 3.2810231994395767e+00 0 0 0
796 2 1.2305000000000010e+00 3.4811045805653833e+01 3.2810231994395767e+00 0 0 0
826 2 3.6915000000000018e+00 3.4811045805653833e+01 3.2810231994395767e+00 0 0 0
792 2 0.0000000000000000e+00 3.6942334324367337e+01 3.2810231994395767e+00 0 0 0
816 2 0.0000000000000000e+00 3.8363193336842990e+01 3.2810231994395767e+00 0 0 0
820 2 1.2304999999999993e+00 3.6231904818129486e+01 3.2810231994395767e+00 0 0 0
822 2 2.4610000000000021e+00 3.6942334324367337e+01 3.2810231994395767e+00 0 0 0
854 2 2.4610000000000003e+00 3.8363193336842990e+01 3.2810231994395767e+00 0 0 0
858 2 3.6914999999999996e+00 3.6231904818129486e+01 3.2810231994395767e+00 0 0 0
860 2 4.9220000000000006e+00 3.6942334324367316e+01 3.2810231994395767e+00 0 0 0
899 2 4.9220000000000006e+00 3.8363193336842990e+01 3.2810231994395767e+00 0 0 0
818 2 1.2305000000000010e+00 3.9073622843080841e+01 3.2810231994395767e+00 0 0 0
856 2 3.6915000000000018e+00 3.9073622843080820e+01 3.2810231994395767e+00 0 0 0
779 2 0.0000000000000000e+00 3.1258898274464656e+01 6.1973843959810022e+00 0 0 0
781 2 0.0000000000000000e+00 2.9838039261988989e+01 6.1973843959810022e+00 0 0 0
801 2 2.4609999999999985e+00 3.1258898274464656e+01 6.1973843959810022e+00 0 0 0
803 2 2.4610000000000003e+00 2.9838039261988989e+01 6.1973843959810022e+00 0 0 0
1091 2 0.0000000000000000e+00 2.9838039261988989e+01 9.1137455925217452e+00 0 0 0
1092 2 1.2304999999999993e+00 3.0548468768226829e+01 9.1137455925217452e+00 0 0 0
1102 2 2.4610000000000003e+00 2.9838039261988989e+01 9.1137455925217452e+00 0 0 0
1103 2 3.6915000000000004e+00 3.0548468768226829e+01 9.1137455925217452e+00 0 0 0
831 2 4.9219999999999979e+00 3.1258898274464656e+01 6.1973843959810022e+00 0 0 0
833 2 4.9220000000000006e+00 2.9838039261988989e+01 6.1973843959810022e+00 0 0 0
1117 2 4.9220000000000006e+00 2.9838039261988989e+01 9.1137455925217452e+00 0 0 0
795 2 0.0000000000000000e+00 3.4100616299415996e+01 6.1973843959810022e+00 0 0 0
797 2 1.2304999999999993e+00 3.3390186793178160e+01 6.1973843959810022e+00 0 0 0
799 2 1.2304999999999993e+00 3.1969327780702493e+01 6.1973843959810022e+00 0 0 0
825 2 2.4609999999999985e+00 3.4100616299415996e+01 6.1973843959810022e+00 0 0 0
827 2 3.6914999999999978e+00 3.3390186793178160e+01 6.1973843959810022e+00 0 0 0
829 2 3.6914999999999996e+00 3.1969327780702493e+01 6.1973843959810022e+00 0 0 0
1090 2 0.0000000000000000e+00 3.2679757286940330e+01 9.1137455925217452e+00 0 0 0
1098 2 0.0000000000000000e+00 3.4100616299415996e+01 9.1137455925217452e+00 0 0 0
1100 2 1.2304999999999993e+00 3.1969327780702493e+01 9.1137455925217452e+00 0 0 0