LAMMPS data file via write_data, version 29 Oct 2020, timestep = 100000

6750 atoms
2 atom types

0.2969001060926786 48.9230998939063 xlo xhi
0.2956914894011078 48.723944441008314 ylo yhi
-0.1496705125565576 60.21167051255644 zlo zhi

Masses

1 18.015
2 12.01

Atoms # atomic

6738 1 4.083900745672315 3.6742769724710183 1.8915392606817574 1 0 1
1942 1 23.63629231994108 6.595332344835916 9.329174628487845 0 2 0
6701 1 1.9083522308389735 2.8194456389721565 0.638055209378946 2 0 0
158 1 9.851477396420004 2.0472265819721054 0.08305302129569836 1 0 1
2266 1 21.37229027533425 2.3941989556967647 15.518509541225324 0 0 1
5575 1 12.252977128840566 13.99285169176651 16.250032171323504 1 0 0
3478 1 16.038304133220137 14.616965103155108 18.84653201038992 -2 -1 0
1749 1 12.313571092169886 1.4099801766691786 1.2473635789447335 0 1 0
3086 1 6.077491814045039 21.63757722050377 0.5524980656973095 0 -1 0
315 1 24.452119244989756 14.605375643552026 6.6151239865734075 0 0 0
511 1 21.927882925208912 16.561742883892844 19.89511649432673 0 0 1
1844 1 22.29915348744524 1.824074145442479 2.3269058833148173 1 0 0
5379 1 1.918385720477203 0.4124433842623674 5.373181372586124 0 0 0
5377 1 1.205818638610756 7.506984108219904 2.242840331240013 1 0 0
5428 1 2.583963988135846 5.5285835473319995 3.4165886522888287 0 1 1
4739 1 13.404873682823219 3.8220623562148157 0.7914513516983375 0 0 1
462 1 6.357794128770429 8.398798616927614 1.6830195891416788 -1 -1 1
6733 1 10.100574209134878 5.026243354720445 1.4410157390792258 0 0 0
2051 1 0.7797337987421546 15.414949416718557 0.17642733515448028 0 1 0
3553 1 7.723677271327888 5.362127590859458 3.258952468649413 0 0 0
3629 1 18.294755466368798 2.6617431530536204 1.734318893535702 1 0 1
362 1 24.07862869299099 0.957762792748982 19.425590098814958 -1 1 0
503 1 20.801394518948086 5.874321944612579 2.9866164077141715 0 1 0
3237 1 22.767936476171446 6.917128825864419 1.3492093959833085 0 1 1
4844 1 2.4725172309775347 13.750375898754847 1.4285258317515133 0 0 1
6492 1 4.265882502512712 9.992692291575496 1.0639568469223895 1 1 1
1832 1 23.454223705744415 10.731164601241696 3.4667509629662105 1 0 0
1539 1 9.021109654791053 9.438696844091742 0.6019802302234739 -1 1 1
4831 1 0.8347649792430881 21.353220983718725 8.634520969075666 1 1 1
422 1 3.4845428017140923 23.587350620341425 6.937959353093021 3 0 0
98 1 14.163718308634566 10.44764957661295 1.9372589370205398 1 1 0
1921 1 16.678774149332046 10.015144556109925 2.488240518331867 0 0 0
3207 1 15.09564767548352 1.41114505991107 18.71916765595541 0 0 1
381 1 13.215336041872812 15.179601471286434 18.52189986395333 -1 -1 0
416 1 22.5356907993371 9.832655086320594 0.9452036893262394 -2 0 0
2073 1 19.476786776606847 7.301318857068174 4.46667475608437 0 0 0
5172 1 15.247980455575785 10.291498072611168 19.084530921715743 0 -1 0
1745 1 2.818080097694013 17.273542312234042 0.4953355527437191 0 0 1
6374 1 6.185700535839446 14.496740459384258 0.6598811043709196 1 0 1
56 1 9.44669424308869 14.738949964599975 3.5364373114191037 0 2 0
2164 1 17.228848738595126 17.444481920209327 0.8286651754947979 -1 0 0
6737 1 14.053376937628704 13.23788592466427 1.829018382641228 1 0 0
5092 1 12.139593045086935 13.905934295245114 3.9510652767926144 0 1 0
479 1 18.091122260482912 14.068326285432748 1.5698697870866034 0 0 0
3055 1 12.0130010390609 3.4451466791016556 16.002764535521866 0 0 1
78 1 20.818776196945937 12.006258747378311 1.394650770791407 0 1 0
3865 1 4.27467924131501 0.7569505068808677 12.328647284295222 0 -1 0
5459 1 22.80509177494672 14.439662844426964 3.269028823698049 0 0 0
5159 1 3.501886813471736 18.48120473749293 2.981993608616776 1 1 0
209 1 1.2998557303605969 21.459880984871877 18.33048218421022 1 -1 1
3476 1 1.7320634714504464 23.599073597430024 0.17839162936431446 0 -1 1
1903 1 8.916062824560651 19.468986840936235 2.266122359409575 1 0 0
1408 1 10.199232216244695 18.337333964042493 4.791539647924451 0 0 1
6663 1 5.492680905817691 4.886228173582863 19.28936158706559 0 0 1
5674 1 14.866929036851241 19.671810395645622 1.0440378631636296 0 0 1
5203 1 15.576608627598516 18.3830804363609 3.6922011412532965 0 0 0
3631 1 3.596009722110923 21.042085626233675 17.291138762873864 1 -1 1
1671 1 18.351870364960778 16.203520746298004 3.4963451604320075 1 0 1
1381 1 24.54577872659158 6.829272916593114 19.842429112690887 0 1 0
4941 1 17.468011743042467 7.298669848935275 2.2495285172176724 0 0 1
4876 1 20.31474619613075 16.57260776284825 0.09108629284307676 0 1 1
570 1 22.368784133205914 2.740303682695891 6.614746529749979 -1 1 1
2041 1 23.67740452373154 15.091981084336846 0.8441985458683691 1 1 0
2104 1 6.33907385485498 21.38033271977399 3.2877964331100786 1 0 0
2040 1 1.0789594499823172 3.2687253525035094 13.502955855006267 -1 -1 0
6401 1 10.499291412567128 21.434664849750135 -0.0169307374242465 0 0 1
5354 1 24.272772689459963 19.465787235871783 17.771225944777974 0 1 1
3880 1 12.402053501379278 22.640412818441142 2.06287104216796 0 0 0
259 1 18.07191953376431 10.918280442404285 0.25301073118722595 0 0 0
1756 1 19.446389467627004 21.182717206063188 1.5616731375914443 -1 1 0
3129 1 0.5219356607249652 14.823528303215642 4.148166141548227 1 0 1
6551 1 23.02126747567338 0.37327638835598265 5.678512675932708 0 1 1
1733 1 22.105804804774127 20.964819000203192 2.4530068024331104 0 1 1
2327 1 10.716716201202702 23.928533532979372 14.617611383209438 1 1 1
2268 1 18.528853255089356 24.214895316027107 9.93508514064879 0 -1 1
1604 1 5.6619413814258515 1.465047914051803 2.406832501164897 0 0 0
3577 1 4.185440295507791 3.4913883285970173 5.986291573269969 0 0 0
1582 1 8.064687320698969 2.556535826014802 2.739911696649309 1 1 0
609 1 23.592602926368368 1.0565299538229072 16.927355553746416 0 1 1
3123 1 10.215726059661497 3.225332865688464 6.679256916164442 1 1 1
3664 1 8.30337707598654 1.385801443113578 5.600305206108304 -1 1 0
1552 1 15.916984727173672 3.252227979818749 2.349605132192293 0 1 1
3867 1 16.67069230763272 0.8429070074450397 5.485473181994148 0 0 1
3488 1 16.746257893798003 3.198654385192203 6.811143187958919 0 1 0
2240 1 20.286960942068 3.2589937219974567 3.308806290578503 0 2 1
6375 1 1.5833306065221007 23.905317420137308 8.61434806254303 0 1 1
3200 1 19.539314635983015 2.7843308170694927 5.8067122293336135 0 2 1
327 1 1.4271250534176274 5.026245809522132 5.7367562159063015 0 2 0
173 1 2.3181834823711625 6.878942183470091 7.597078790631541 0 -1 0
1974 1 11.311089079516861 17.00008623122244 18.929844523883755 0 -1 0
5148 1 5.274477077108851 6.967981772227818 3.2990600318895735 0 1 0
470 1 9.418019181668145 6.150818561331995 5.30931766095316 0 0 0
5663 1 12.241146514457682 3.137411350143651 4.8324961324535325 0 2 1
2065 1 12.14536862179898 4.967094391574785 3.089877289562112 0 2 0
5181 1 12.147968533986774 7.356604105405261 4.750657529464233 0 0 0
1523 1 15.489903228188876 5.622073885059946 3.3658070584378397 1 -1 1
3228 1 16.76913889415974 5.68972130127164 5.816145733528667 0 1 1
5464 1 22.8092528314498 5.2537994058220825 5.100123370060187 1 0 0
6681 1 23.063564736665402 7.243363072820403 12.178984414090701 0 2 1
4921 1 19.612635484534707 5.590462542438443 6.510383464939705 -2 0 1
1495 1 2.3152930330427295 10.978507915603073 2.736129737875618 0 0 1
115 1 2.297403119970191 11.39308155148918 7.013398836364966 1 1 0
6534 1 0.9097981375465237 9.096632996623025 6.86453419659122 0 0 1
6647 1 5.688912243260625 8.547573268602736 5.366587988065017 0 1 0
3816 1 3.9206260194929525 10.996389104958284 4.890566649203475 -1 2 0
6605 1 5.878685738401872 13.01551394017958 4.538301122300472 0 1 0
2138 1 8.246979129592539 8.682535062260628 5.468109922774087 0 1 0
1830 1 9.466928340552048 9.845071111530995 3.0776455648023298 0 0 0
3482 1 8.231555832873948 12.222406004859454 3.998070991431481 0 -1 1
2101 1 12.051918865807439 9.752733342427314 3.5415075089490426 0 1 0
6340 1 12.207034669612202 11.214220400622688 5.7823643624195995 0 0 1
460 1 18.258925253134482 10.851147603082675 4.514973895209274 1 0 1
6636 1 16.660036786056644 9.970188348719027 6.588514340057924 1 1 1
3479 1 17.73314964631245 11.411004888404749 8.491081574959823 1 -1 1
5136 1 21.004340512674553 9.197527798420666 5.701397016869008 0 1 1
3693 1 23.28651665532718 7.494193557384307 6.0793892266651435 0 0 0
3890 1 1.6688973550958461 14.030338036004466 6.6477224550051215 1 0 1
5534 1 2.876244946448484 16.860309266914584 5.076666954039701 0 1 0
1709 1 4.636666505813616 14.779853218485814 2.9489375063259504 0 0 1
2103 1 8.011837557042018 15.84055761742034 7.321401256553986 0 0 0
1511 1 10.005011017156313 12.445012159355787 5.954275596070645 1 0 1
2202 1 10.355643484144778 14.591382897854102 7.73700463824632 0 1 0
4710 1 16.738228326216458 15.438527461487514 5.90634092501475 0 0 1
5612 1 21.06308394502841 11.734113837985085 4.187405737134552 1 2 0
1656 1 16.402761999813148 13.237181125195526 3.601493739483885 -1 1 1
320 1 21.471868872814156 13.411817567894161 6.31238379426493 0 1 0
6611 1 4.565027019239055 1.2216776606156583 5.016983170107533 2 0 1
1702 1 3.521849841919759 18.089486439015747 8.017561633948063 0 0 1
3877 1 1.4292947153864062 19.09042974540296 6.6543066239960735 2 0 1
3366 1 8.205649139651227 16.55958470766469 4.8560448031357035 1 -1 1
146 1 5.688353199009368 19.43498942298721 6.577393153881819 2 0 0
6609 1 6.047176900147564 18.812662197957145 4.048741534498111 0 0 0
5202 1 10.76495435159367 21.472886062352398 3.7515730276262405 0 1 0
1985 1 9.757138248011525 19.192908503189706 7.865346470683031 0 1 0
1501 1 12.124234994500581 16.92915427644585 3.67860816980405 -1 0 1
6364 1 13.542349886932794 17.44878872164094 6.134277583435474 1 -1 1
3755 1 18.341397346176773 19.44348082141803 3.5548901573702025 1 0 0
3039 1 20.27482940447426 15.784933933772871 5.857487842177835 0 0 1
3257 1 16.26764553054231 18.645777097087755 6.357825032868119 1 0 1
498 1 21.405452221070558 17.222041936895003 2.820130394846313 1 -2 0
1888 1 22.601079839502713 17.201005557104967 6.7873446522388114 0 -1 0
3704 1 21.712103982373677 19.189509766805354 5.032545302865328 0 0 1
3040 1 1.3251841177821522 21.36811694085818 4.943440974736393 0 1 1
4757 1 3.811293490169425 22.55832467556254 4.150174582062087 1 1 1
3497 1 5.672272423131252 21.98306889622604 7.534079256232381 0 0 1
4808 1 7.347603048948253 23.497084494453052 6.431613042876396 0 -1 0
2261 1 8.422596975877154 22.748581797354802 4.114470431503387 1 0 1
1777 1 7.647587807652275 1.5740615371126008 8.674943079078934 1 0 0
2263 1 16.133046507291855 21.619085124136912 7.266230959178354 0 1 1
285 1 12.991505466127478 20.278580356535343 5.222219646745181 0 0 0
1370 1 19.400815771108007 19.78919282312206 5.98179769449765 0 1 1
295 1 16.60251359915212 23.340305244113036 3.257854148121884 0 0 0
82 1 24.580241967983284 22.555594011347818 3.2753486822882425 -1 -1 0
397 1 9.583832176176715 17.81247318584028 0.07910628369087505 1 1 0
1713 1 7.055617673777819 16.891749805021572 19.327384277951058 0 0 0
3946 1 0.7648567256082628 3.370682013271298 9.048766668329128 -1 0 1
186 1 3.2672271164492654 2.473072462536366 8.312586793225217 0 0 0
5537 1 5.556473906294969 3.4947516420991716 9.643156709969006 2 1 0
3487 1 6.614249202960759 19.559203289455386 18.276536179128584 1 0 0
3827 1 4.964135575193123 5.269727412646349 11.638671302842527 1 1 1
3943 1 10.715078357435107 2.3486780021859057 9.68181441967177 1 1 1
6639 1 13.741399089677559 3.206200896488339 7.056816244831635 1 0 0
3732 1 12.727681494192428 0.7398216275960827 8.110630006883158 1 1 0
6333 1 20.74546600548187 2.3819495095207563 8.856218811635234 0 -2 1
520 1 18.125007624206418 2.8663931375684073 9.191835249625358 -1 1 0
1583 1 7.585623434442256 7.766859628455111 19.16503707578771 0 0 1
4959 1 22.940350916278216 4.89759850195647 14.438488630638657 -2 0 1
5373 1 2.6723385815066285 6.431989309988126 11.941810848576178 1 1 0
100 1 1.2107793941374752 5.674778626649611 9.691131317026075 0 0 0
337 1 6.114319527405665 4.88802082918127 7.489707589704507 1 0 0
6 1 5.0408879923304895 7.401468521818983 7.5420690759811535 1 0 0
1730 1 8.976954708216603 5.489351754807904 8.01854527190217 0 0 0
1853 1 12.620999168006666 5.398141301960939 8.73791880328726 0 3 0
4774 1 13.267974204751637 7.5056529209334055 7.3049333554755 -1 -1 1
4835 1 15.828156364650585 7.608399269031412 7.631688611062889 0 0 1
5646 1 17.305450243335503 4.923987716946986 10.79065993143793 1 1 0
2139 1 21.44617884902732 4.418299441066518 10.655816962696498 0 0 0
4963 1 19.65640070735613 8.369127306611368 9.910070164786635 -2 0 1
465 1 20.961787681970822 6.537052418510045 8.657833946555888 -1 0 0
370 1 21.09185114806225 22.413575596666053 17.718068223091688 -1 0 0
2079 1 3.2403994350962004 8.808626672359411 10.57381602602139 -1 0 0
2085 1 6.0509644627405486 9.056739837571739 9.126714680578516 -1 0 0
1593 1 3.5587628841128507 11.59737401325336 9.30641187714253 0 0 1
169 1 10.24389096178595 7.743847077010723 9.553127049569015 0 -1 0
5593 1 8.577982331127474 10.46827693385466 7.421031884538716 1 1 1
4905 1 12.549392845856563 11.399371481325502 10.118977115645276 -1 1 1
6479 1 11.502953529006907 9.684131431363124 8.115589530542554 0 1 1
2021 1 16.302082253835724 10.457784985972198 10.830340755632005 0 2 1
3107 1 17.24363080291097 7.562033158679506 10.012549477762173 0 0 1
3119 1 14.893424101863687 11.994855203815773 5.819330885362915 2 0 1
4793 1 20.054273550812123 11.260011284971009 11.927260889711565 0 1 1
3630 1 20.104651242837566 10.645984730428502 8.039625837756677 0 0 0
5297 1 21.880855721983878 12.571565270571659 9.090924100264292 0 0 0
33 1 0.6531099679431023 13.363719351876101 10.811566964411274 0 0 0
3754 1 3.3367550582382313 14.122522108574632 11.092235412682184 1 0 0
2300 1 20.14488447274969 2.16598774522655 13.230603490991822 1 2 1
4812 1 5.8821322642205365 13.961714015786551 7.395248098349333 1 -1 1
175 1 3.5076734177470072 15.200817713262953 8.497932079323803 0 0 0
2016 1 7.984690287082563 12.561669415175215 11.09071183551421 1 1 0
1689 1 6.478006493413332 11.912834126786672 9.024562102240399 2 0 0
3162 1 14.037381946252326 14.75450047775632 6.012564166695053 0 1 1
6714 1 14.134084303126928 14.89939315269232 9.030856756223466 2 1 0
6370 1 18.231464789321638 14.385844571356158 7.612523134541851 0 1 1
6660 1 18.720058807983584 15.48661639486857 10.00284722110331 1 -1 1
2149 1 14.582781733509027 12.09052618914454 8.86674717442499 -1 1 0
4696 1 23.167167540483195 16.193795747814256 10.490821486515802 -1 -1 1
2218 1 23.172012473268282 21.215986518104756 16.023274256305967 0 -1 0
5624 1 21.195025131381918 14.259422873714508 11.123930261053827 0 0 1
6713 1 2.352449707710762 17.95867799815269 10.397811943180546 0 0 1
324 1 8.187446767099384 15.744358215466855 10.347250006688151 1 0 0
1694 1 7.272363009700256 18.28029304791647 8.239585340292454 0 0 1
5490 1 10.680162476802662 17.379487859158722 10.974118423466328 1 0 0
2 1 11.948145595474402 16.85935627077999 8.326091664413385 0 1 1
216 1 14.078787011857582 18.58918804035897 10.119879186656865 0 0 0
5225 1 19.55409846666022 17.87892184856475 8.271826818210544 -2 1 0
268 1 15.917755271850616 17.02135818572837 8.891985848506827 0 0 1
5360 1 18.872393934532745 20.298811333212317 9.736470634322346 0 2 0
120 1 22.4619235418906 18.268126552301304 9.067857376451837 0 0 0
347 1 22.782391125853973 19.814698098719298 12.075896287293348 0 0 0
2271 1 2.94408070617952 20.7079016888794 10.710482432606979 0 0 1
3639 1 1.4016476024705329 8.398089482983593 18.47456868022786 1 0 0
3014 1 5.674538219224427 22.000268996324568 10.197464650549632 -1 0 1
3376 1 7.972426970416193 22.971673037126656 11.331097012313926 -1 -1 1
330 1 8.682143906403093 19.953951005144543 11.413433172819582 0 1 0
1335 1 10.273507442922552 21.422179941522163 9.361417337340752 0 0 1
3934 1 13.17282788508063 21.108904539566286 9.895813270720755 1 0 0
60 1 13.650515501918482 21.871837611115637 7.242094738112274 1 -1 1
1759 1 16.733058583572653 22.23955107984413 9.881874620233742 0 1 0
3235 1 22.958292616528723 23.69567090865632 14.38243342518345 -1 1 1
3853 1 20.621724813101775 21.487386391508725 11.437948282393197 0 0 0
1348 1 14.64699631173358 1.5847112042369962 3.902932709883931 1 0 1
3833 1 23.423495274961574 20.968128559651234 8.803990724084057 -1 0 1
434 1 8.640352108247038 15.171622820306155 1.1033385909681404 1 1 1
1784 1 1.457930200575768 1.0495789213545517 15.069756108613593 -1 0 1
3658 1 4.027865694111692 3.333043016060055 13.457065649007266 0 0 1
5357 1 22.921677345344307 18.719034174412183 0.8998533126299415 -1 0 0
1638 1 3.2008196819471673 2.545965838217557 17.0046892034004 1 1 0
5508 1 8.483035644635718 4.146916149897674 10.525488035911383 0 0 0
5223 1 0.3546682061375976 2.476228276550737 5.980495476962671 1 0 0
6394 1 24.46893495818611 3.642593783507159 9.138955845101354 0 0 1
6472 1 12.702335383510462 4.99531065081964 11.27014284822151 2 1 1
2015 1 12.154192124434124 17.50471306303618 0.805822805216169 -1 -1 0
4813 1 17.28222379757591 0.6643750328847596 10.807304773285223 1 1 1
5621 1 17.60056639292957 1.5909431218654244 13.47285890577605 1 1 0
6454 1 14.442786999153311 3.37047029081935 16.75477674345608 0 1 1
4878 1 14.473125096698586 21.670098902762387 2.9377652284688422 1 0 1
2133 1 18.210833354639252 1.8782318346897524 18.441800862346646 -1 -1 0
1804 1 18.668266501458852 5.388114939568028 15.762759282103408 0 0 0
3273 1 1.650424276884022 6.747915433418466 16.19995010858089 -1 0 1
4889 1 7.669616152282245 8.359291145970921 10.898560856858381 0 1 1
2132 1 1.579610070591709 4.19352527418085 17.99546026944468 0 0 0
3838 1 7.2158749134549955 6.221621665455662 12.67233408897537 1 -1 0
1729 1 9.98879455578597 5.429250553160342 13.635699736981987 1 1 0
6383 1 11.088131309932752 6.167080194854496 16.199080283151126 0 0 1
2052 1 15.221721131429366 5.1619867625486044 12.856298763539295 -1 0 0
5284 1 15.10465452497931 7.966380690978358 13.942255855727673 1 0 0
3594 1 19.54554569035905 5.31898547385784 12.700245844754125 0 0 0
5288 1 19.155389280640936 8.086284642271579 14.467651686743748 1 0 0
5528 1 16.464946465330982 3.7393421933030266 14.732722658837242 1 1 0
6616 1 22.580273574958017 6.148060075019965 17.033175192952 1 0 1
3498 1 18.51432428164976 18.88854502825104 18.717457005192276 0 0 0
1755 1 2.3021720892489403 8.458161872880806 14.188796052742978 0 0 0
3231 1 10.49092099681462 21.250838829772995 19.064421759088564 1 1 0
5392 1 5.710067646070567 7.621932029803881 14.636173929040815 0 0 0
2990 1 4.90101431092565 9.404075099288297 12.534466572882245 2 -1 1
3737 1 2.9756289032460868 13.381794217062094 14.676197481368767 1 -1 0
4775 1 11.398073146123503 6.904517980837517 12.083444828636546 0 2 1
1746 1 8.641819676201985 10.199928879516298 12.658012657149488 1 0 0
2267 1 12.488914505253394 9.493171912095713 12.731476528744262 -1 2 1
3010 1 14.617749735564761 11.896788811131325 12.533402227838934 1 1 1
5178 1 17.758705731309036 11.60222440847404 13.176609361867369 0 1 0
2993 1 20.549084290200724 8.4218361146967 12.33843082372184 -1 0 1
5245 1 22.360820450412916 11.058794260981353 13.856683202343794 0 1 0
3192 1 3.958054657670818 17.011521749480654 12.311416251752261 1 0 1
1845 1 1.7175663331111315 15.775270547226665 14.10818951698469 1 1 0
194 1 4.769788588222113 12.119390242141609 12.691632678174926 1 0 1
3675 1 6.573030904458345 16.488489115683162 13.073397403316589 1 1 0
5175 1 10.248835944354246 13.788141165148517 13.600608057181244 0 0 0
1658 1 10.600053623431307 13.175894260257794 10.202111806455308 0 1 1
4802 1 11.121207136307234 11.045750196929657 14.377083062061976 0 1 1
3955 1 7.315983725553392 13.827465585688984 13.374075325605078 0 0 1
1618 1 13.166489906213389 16.761747109499517 15.356747194638704 -1 0 1
1368 1 9.984612485213209 16.618378681930242 14.747466568087102 0 0 1
225 1 12.062213257172107 15.250320560392767 12.073070280761154 1 1 0
1524 1 14.81864309892743 14.743740270064686 11.822088078261393 0 1 0
3543 1 16.389022584639555 13.090482851112819 16.17603154099356 0 1 0
6456 1 16.811974283522037 16.278322905888075 13.015557003466782 1 0 1
4916 1 18.049215390976087 14.324893317922122 14.366330888487294 0 1 1
3927 1 22.325895555186168 13.598138285386113 13.641193566964162 0 0 0
1763 1 4.014547963422555 19.11962015038143 14.231017729060616 1 0 1
5100 1 0.7708262379748765 17.07476357505356 16.336402778346443 1 0 0
1884 1 5.981849486812324 18.970712548941417 10.542334478409916 0 1 0
3839 1 6.052757246021565 16.796731664086685 16.503873823875733 1 0 0
5439 1 6.542839008799286 20.22173308495575 15.130598174897827 0 1 0
2195 1 11.57074585887531 19.85914642081715 12.731864824678574 0 0 0
3726 1 11.254540581450357 19.822031145355393 15.34047226559756 1 0 0
3756 1 8.103068821971348 18.581948954182806 13.838385282628291 1 -1 0
5018 1 14.101680234689427 18.29226310119487 13.088195705759478 1 0 1
444 1 16.41632269402849 19.953726224190135 13.058004149092723 -1 0 0
6520 1 17.581473748654087 18.364577830167452 11.18705370264732 0 1 1
3912 1 21.364781868668977 19.79629716042223 14.523203834328028 0 0 0
5515 1 23.50687798446296 17.34227018435799 12.910244925708067 0 0 0
1999 1 21.768899293191954 17.09143997337087 15.2282703426706 0 0 0
1690 1 22.711307215059886 23.924353040631235 6.336935898798212 0 0 0
1607 1 2.905974577339261 21.19400660709881 13.41915081743143 0 1 0
267 1 6.858231314117075 23.039034164077144 14.108834340224263 0 0 0
3394 1 11.088903374065895 22.987251941232646 11.971932724626114 1 0 0
3042 1 14.832928187645042 22.227895547629213 12.051757125599538 0 0 0
1386 1 15.216827402690084 23.272699553826797 14.643490949414957 -1 0 1
1992 1 10.214962868644808 5.298267239818312 18.931900186396604 1 1 0
6572 1 20.044285930839553 22.555229714342882 14.453915151930396 0 -1 0
226 1 23.416818603257976 21.57606517210482 5.7952740787254555 0 -1 0
3109 1 12.851818163621157 21.91014505055051 16.29120253676189 0 -1 1
5077 1 10.705961773645365 0.7643419047416861 3.549236714619921 1 1 1
410 1 20.104935695129065 24.006745196777285 7.164628453118157 2 -1 1
3941 1 6.754639229680382 2.497293088770552 18.468862254054667 0 0 1
3241 1 1.0128758578737294 19.61595864413173 3.014257983179571 1 1 1
1948 1 0.8504688898791223 10.369209844892284 10.925850447534616 2 0 0
510 1 4.800844709346311 12.995920889833311 19.74088337858205 1 0 0
4758 1 11.283677379417073 2.650068846111536 13.370092139371321 1 -1 1
5581 1 2.781776296644999 0.47150233707974887 -0.0947906211522408 -1 1 0
248 1 18.299274447381705 23.038487926713433 17.664900438926047 0 -1 0
4832 1 10.013984102521198 2.5048031065450904 18.433764937252242 0 0 0
3949 1 4.850140334096022 0.8009951604078557 18.001723494250005 0 1 1
1706 1 20.26164645198151 3.607616134288884 17.55860833888539 -1 0 1
6591 1 0.6309855082873139 22.234338849218044 14.459106782255857 0 0 1
456 1 14.06142298787076 1.5210728813062737 13.546207270476803 0 -1 0
6648 1 13.283211427800417 8.431020764483376 0.10884526196302136 0 0 1
5048 1 4.42745793453852 6.448118928303225 16.853525465281546 -1 0 1
3234 1 4.858984711211807 4.075470884206943 15.655429840910081 0 -1 1
84 1 7.836872981545156 3.5044694599208 15.70404181623315 0 1 1
6391 1 8.623238346787417 23.405077811332557 16.046255928457896 0 1 1
2092 1 9.023199380658983 1.4171800910247947 14.537969345129206 0 1 0
6673 1 13.59723861386044 7.742206183549351 15.942331289391397 0 1 1
6603 1 14.726074790491495 6.069519248200685 17.810540379037704 0 -1 1
1608 1 17.439494402761156 6.22010803430459 17.88650983908335 -1 -1 0
5502 1 17.167825839859827 9.527298750748447 14.883476731434758 0 0 0
1707 1 19.324484872428783 8.449064900236733 19.16346606995275 0 -1 1
483 1 9.454032311212096 23.998413847464764 8.119335227119265 -1 0 0
2033 1 20.754688487215198 8.118413736834817 16.915571518973557 -2 0 0
110 1 0.4074052082049491 1.4320509231550111 18.152209920872952 0 1 0
2026 1 2.4974755558644977 10.206925742845025 16.483907393635764 2 0 0
280 1 0.9276854159913535 12.171641643735587 16.00685078570475 1 0 0
2311 1 7.043011371576019 12.937039193149468 15.789054734802722 0 0 1
3118 1 7.558349104968124 9.857428208879881 15.472205345488385 0 0 1
5155 1 4.90945272547742 10.75312820869394 17.481169417121194 0 -1 0
1864 1 9.147822555307282 8.458856601438942 16.853729357422253 0 1 0
3620 1 13.249277941192846 10.097465287285624 16.882642058532674 1 -2 0
3057 1 10.578960163706244 10.581108578463025 17.599757938128363 -2 0 1
172 1 17.406325086955633 9.618310169053519 17.516032684360404 0 0 0
5415 1 18.27032671488469 12.003525196613593 18.01668390280469 1 1 1
3137 1 22.14265031220679 10.336977571174565 16.45363224952534 1 0 1
3161 1 21.54571597519808 23.296032781628814 9.643975621099832 -1 -1 1
1801 1 23.081399490982946 17.122029072098766 17.510235028081897 -1 0 0
1640 1 4.807791131224013 14.366213875667192 16.824207890159677 2 1 1
5016 1 18.207686791390216 23.693430920691025 1.1248061744512623 -2 -2 1
4944 1 4.979381165679951 8.438841377529775 18.685655617146143 0 0 1
5510 1 14.04567764602683 12.272541932860813 15.277523298192241 1 1 0
1890 1 12.786639982318901 18.59131244735429 17.32769136245925 1 1 0
3283 1 12.922172742363156 22.66788956005074 18.99508541113156 0 0 0
515 1 16.117492273664826 16.39624671038408 16.15807249717807 0 1 1
3238 1 22.51189043341013 4.899186857076506 19.644023465041446 0 2 1
5372 1 20.634633208669957 14.35253319749712 15.45958462246238 -1 1 0
6483 1 20.959019535400117 12.681369315230235 17.51451398998341 0 -1 0
3653 1 4.303387760230125 23.006678252431325 15.102306080071376 1 0 0
3448 1 3.362443946340587 18.189522869143342 16.607537728892986 1 0 0
3905 1 2.480989921449535 15.611219617862284 18.613659381722876 0 1 0
5122 1 5.127936418315028 23.14506719732218 18.57016423259126 1 0 0
3251 1 9.451485269111966 13.088928484981047 16.784983497452426 1 0 1
6342 1 18.270584025610987 22.40727576199801 5.650820978466569 0 0 1
4800 1 9.075136635325832 20.717872776951875 16.83551040390396 -1 -1 1
3461 1 9.17967567637062 16.280560551740948 17.44280989628313 0 0 0
6433 1 16.288618445122694 21.37711934716519 16.682329761435593 0 -1 1
5531 1 15.358606671974494 18.765797847606063 17.825647091997695 -1 -1 0
190 1 23.0278297798489 13.49190759795084 19.576578863030914 0 0 0
1722 1 18.811721734468534 17.669233889021342 16.038025545254197 0 1 1
1840 1 18.40052798053824 20.262837647608034 15.387557243928592 0 0 0
3799 1 0.36287992843480765 12.849422519982323 18.89375580958053 0 2 1
2095 1 8.595269253256426 14.097579362595411 19.624247172716895 0 -1 0
6486 1 10.776605427872328 7.4160645724129735 0.058186002777441154 2 0 1
3176 1 16.481016431394803 5.601411221630076 -0.13201329969398046 0 1 1
258 1 13.626312889808748 15.439596408484002 -0.08947730101935747 0 0 0
1487 1 2.0851784702584135 1.0523658504688735 23.26671007782122 1 1 1
6356 1 3.1860601564236672 3.1975271802593124 24.449361602507455 1 0 1
2009 1 7.410203808175248 1.137589929707811 21.39628068097717 1 3 0
283 1 24.435617087073012 21.225829232194734 35.57705241675852 1 0 -1
477 1 7.600030427471983 1.4978208141352711 24.73823080900461 0 1 0
1680 1 6.005654712562075 3.6931931692931768 23.820534967922175 1 1 1
3437 1 8.95457806127605 3.2782199728442984 21.625979676614985 -1 0 1
3714 1 11.978291456099024 1.4686132968075132 24.661368166841218 1 0 0
5113 1 15.944298666573703 4.582624231765014 24.01080675789728 0 1 1
1427 1 11.497147542863518 1.3012520069178184 20.286076597165437 1 -1 1
2274 1 23.68255478114315 15.829356440490638 37.37333239283289 0 0 0
5469 1 17.0565695883898 1.163037766815691 37.78417282814512 0 1 -1
1893 1 18.7753281314514 1.709761862005596 23.926992421006847 1 0 0
3167 1 13.883938095139943 5.011555791286828 20.41266146608898 0 1 1
6689 1 22.110149104458774 2.4089708168408053 20.832845109916825 1 0 0
1457 1 23.02139062940728 2.5861743281533665 23.4973871784138 -1 0 1
447 1 17.031902975506714 23.824709411860457 37.17898023709182 0 -1 -1
6468 1 3.253973834130555 7.52572015799189 20.74332394834395 0 1 1
5353 1 9.150546540290797 7.688891545492366 23.646501326558813 0 0 0
2985 1 4.558657354856332 1.9202039041810768 21.315397748510854 1 0 1
2114 1 6.8845096693198915 6.32218012318251 23.249859945891917 1 0 0
5151 1 20.8287227969981 22.394014252507954 21.059867916706818 0 0 0
3993 1 10.978937797142496 5.843036142605139 24.16193500844314 1 0 0
5320 1 17.812082879567992 23.04943973253586 20.234911403307237 0 -1 0
3592 1 13.874988897292612 6.5105219396545495 24.052315448634936 -1 1 0
1997 1 10.464047030778493 2.478936277040484 38.11923377199511 1 1 -1
1894 1 1.097528500063413 22.674491653735803 36.00964930495208 0 0 -1
5501 1 18.38773276030009 4.4034567870530354 24.28039098676426 0 1 0
446 1 20.311036822351205 6.308858224604832 23.33972850148207 -1 0 0
3899 1 1.4479851681480334 23.48405197924128 38.41053806219381 2 -1 0
6589 1 2.365935369753439 11.900054186814426 20.55862258665001 1 0 1
2252 1 2.676877710081731 11.59327424305126 23.295610199360492 -2 1 1
3977 1 4.79432442270129 8.090685468696737 23.342440602260062 0 0 1
374 1 6.5991011544382285 4.053249857617799 38.31420615554508 0 1 -1
211 1 9.32525568194374 10.779870046547268 23.910280397465943 0 -1 0
4961 1 13.498768158959106 22.679278034404145 39.99797055159402 -1 -1 0
3731 1 12.347886641109962 8.767147384416546 21.202060456941783 0 -1 0
5432 1 13.995420134670669 9.207585159107433 24.529124040163868 1 1 0
6631 1 16.534642339309435 9.775365330362263 23.700458633228457 1 -1 1
1474 1 16.397671138404693 12.504461216720399 23.451698915910704 0 1 0
1788 1 0.6720348248187932 20.02512808942603 36.64104290001872 1 0 0
5398 1 18.796800633448747 12.100540800202394 20.93657380027412 1 1 0
1833 1 19.627366185904517 8.975378633643585 23.79118663357102 -1 1 0
3347 1 20.354412288426772 10.092364537707391 21.191567360781264 0 0 0
484 1 22.877363707422596 11.216757407558894 21.08764591002722 1 0 0
6398 1 2.1709108041044742 14.164898896831701 24.11107366153215 0 1 1
2116 1 1.5143836614723214 2.6984801906794607 39.3810712405928 2 0 -1
2087 1 7.206956033765002 14.919858467991782 24.47830198858715 -1 0 0
497 1 10.980991771640449 15.463919453411146 21.3943341858589 3 -1 0
6549 1 19.559706656522007 1.25417397577655 20.98334136847307 2 0 1