LAMMPS data file via write_data, version 29 Oct 2020, timestep = 6000000

6750 atoms
2 atom types

0.22519104329733253 48.9948089567044 xlo xhi
0.22427433883066428 48.795361591570554 ylo yhi
-0.2386853895667791 60.30068538956875 zlo zhi

Masses

1 18.015
2 12.01

Atoms # atomic

2267 1 2.1367070243716535 2.2289274172722853 2.052252646416237 4 1 1
5613 1 3.6120822882132204 4.164154972202102 0.9174945165065325 1 -2 0
4763 1 7.112894836029576 1.4737128267153055 1.5335304016138966 1 -2 1
5643 1 5.874883779625496 3.586483429838081 1.9947290969324571 1 2 1
2294 1 9.712204142775686 1.015712795033676 2.3676092707588277 -1 -2 0
5137 1 11.170569154340207 3.0526296204544585 1.3779777805527225 1 -4 0
5416 1 13.593688986620121 2.6842301900618826 2.676051480319354 1 2 0
3729 1 0.5211155114687251 24.281691397587135 13.340103917189616 4 -2 0
5258 1 18.630777794583345 1.9230468253905135 1.1395317280898383 -2 0 0
5024 1 21.21634831278578 1.764246447258078 2.1265433775099067 3 -1 1
3253 1 22.728976899330966 3.9144597447098772 1.0279940561324559 0 0 1
3437 1 2.86637397187634 6.650130553360211 2.0029708506896524 -1 0 1
3140 1 21.659750522455518 23.81348897779801 16.546181513046736 0 -1 1
3674 1 7.71640578508884 5.294500185491204 1.3802558047781834 1 -1 0
6387 1 6.9998522902659674 7.80850264031077 2.1971256669339567 -1 2 1
3651 1 4.577362333278547 8.308534401448776 0.9428168649817141 -1 0 0
3957 1 10.32093758382453 5.359937309454831 2.1573376399788855 3 3 1
5256 1 11.690651671653072 7.526903703434814 1.1617303404422288 -1 2 0
5165 1 15.083622640514315 4.709548195600818 1.1223919141600067 1 4 0
3224 1 14.156709474298212 7.242818947575425 2.159624881271645 0 -2 1
4921 1 17.575739264657543 4.259041863487987 2.257610284504626 -1 -2 1
1509 1 19.14967862286962 5.907165578826502 1.0536211114930425 -2 3 1
1539 1 21.992070788427277 6.227663267349528 1.8724302157755508 1 0 1
92 1 23.411494366682085 8.218420211657783 1.2432560197835814 0 -1 1
5138 1 3.5087189755608374 10.583136022069496 2.347813868264204 0 -2 0
2152 1 1.0062633609312797 10.714472982005573 1.2142856724519704 1 -1 0
4963 1 8.159023653074524 9.911691360799583 1.2677560234277059 -1 1 1
3546 1 10.91427062202887 9.981413494562853 2.0505018183318735 -1 -2 0
222 1 12.484036318107746 11.785460089142427 1.0429717535630318 1 4 0
1762 1 15.930542535488291 9.076497808298368 0.9765884502199738 0 1 0
496 1 15.17718804328833 11.435471293628941 1.9988207227718835 1 2 1
3449 1 18.338440735423188 8.308471314881816 1.9190495698592023 2 3 1
5542 1 19.61965804890015 10.526411225483374 1.2618366016798261 0 2 0
1694 1 22.092026425584677 10.444540487110604 1.9341336818071966 -2 -3 1
5617 1 2.1475565921598316 15.374714175389036 1.2950710868163045 -1 2 1
3668 1 9.839893800765052 18.73819694892923 19.65512096850754 -3 -1 1
3817 1 4.362360774684988 14.72439621179633 2.2551053509979386 1 1 1
1796 1 7.28688261603917 12.303989059177884 2.1406785631018197 1 4 0
291 1 5.044313355961259 12.306323142001473 0.7784458555525229 2 -3 0
3102 1 9.11086693585706 14.085434322806691 1.0567064258888528 -1 1 1
3799 1 11.551644272544667 14.00698368121572 2.11553203581512 -1 -1 1
3926 1 15.692673815401523 15.81936858188257 2.472449886442632 1 0 1
589 1 13.189793677703253 16.027350885498024 1.4614881728884321 0 3 1
1939 1 16.452100503797556 13.408244914069861 1.0674141085718356 1 -3 0
1361 1 18.773929759203472 13.139210566523419 2.115633157959421 -2 0 1
5073 1 20.167053978745514 15.088128300506206 1.06696550181519 0 2 1
3429 1 23.69029137390684 12.450373906062588 1.2819400438526454 2 3 1
6731 1 22.744065288323306 14.882397342565087 1.8540432286417916 -1 0 1
3974 1 2.5104623692284735 19.642992622016084 1.3292346039324234 -1 -1 1
5489 1 0.8325511743123177 17.57535957539759 1.8423130100754652 2 0 0
1783 1 4.75143904243987 19.20771400683092 2.026889487830184 -3 1 0
6529 1 5.833292713366893 16.778864387334778 1.2448450544363687 1 -1 1
3438 1 8.281060577404308 16.417239692779543 2.3548926619186 3 -4 0
2989 1 9.621564209360978 18.49366005735816 1.4997743634415681 -2 -2 0
3579 1 12.29530470223028 18.42115577684107 2.3581954751487384 0 3 0
6562 1 14.075489337352355 20.45071318523593 1.261629830719397 -1 -1 0
3595 1 16.374406918227784 20.176140053458532 2.1774303204590297 -2 0 0
5393 1 16.960085116923047 17.91919206524326 1.0030255731779187 -2 1 0
4868 1 19.614812313832637 17.680603155241293 1.8856454691764815 -2 -2 0
3781 1 20.985323878179205 19.64336494381941 0.8264598040086581 1 -1 0
500 1 23.414897015689277 18.970832306743517 1.5360969541276663 -1 -1 0
3466 1 23.37983766331181 7.903432583415444 19.72666553348827 3 -1 0
2244 1 1.2012635761319148 21.841249993173715 1.9646745368186083 1 1 1
161 1 0.4933807270305024 24.02443546996004 15.986825152789667 -2 -2 0
4771 1 6.4347778589665054 21.17277345391026 1.3307818311160504 -1 1 1
2161 1 5.267004529345481 23.514232269560488 2.0934922436681935 1 2 1
5391 1 9.131245052338429 21.100047200709984 2.4204676565076104 2 3 0
5146 1 10.3837707778885 23.09160388646498 1.2956979981439538 1 -3 1
1725 1 12.677056275424514 22.703141164172433 2.1838691713257887 1 -3 0
1955 1 0.6256553137964832 13.373357130135046 2.0459846352112523 -2 4 0
2018 1 17.822966029362735 21.953733314566232 0.9964920685825656 1 3 0
198 1 20.467911470894176 21.859540265079907 1.947751583267256 -1 -4 0
3880 1 14.019556160905797 20.181606958562146 19.611478344873962 0 -3 0
3618 1 22.032894754608048 23.79295419150562 0.8697998822590689 2 -1 0
5607 1 19.275597597897765 6.482614997407711 19.776448863962248 2 -2 1
6670 1 2.213363435940628 2.166062516940869 4.821515072596369 -1 4 1
5101 1 1.2304706790640911 4.580771206728971 5.882055220232122 -2 -2 0
3245 1 4.5596958403490015 1.7033598524798352 5.780870337311076 -1 1 1
6697 1 6.12421905287252 3.887032075973921 4.656070337955849 2 2 0
2090 1 12.30155076632079 0.6892696026940277 5.9491273221868175 0 3 0
129 1 8.487516427736635 3.565415103198495 5.539084007773747 -1 2 0
5114 1 9.569692153755625 0.8590606043618592 5.049459173098888 -2 2 1
4973 1 13.788644723188584 3.008464673007998 5.214557321152353 1 -1 1
517 1 16.225783388346265 2.185286323998801 6.040901169000202 0 0 0
1895 1 20.182587948498405 4.51880019420232 5.93893951582015 -2 -1 0
3055 1 20.952207381541847 2.1611981384523435 4.862232626879048 3 0 1
6720 1 23.452280695684536 1.9119481551905655 5.597164878207681 2 2 0
5368 1 2.855855707198837 6.566701672672134 4.834908626181382 2 2 1
3294 1 5.33640792762084 6.017800252256103 5.885629375115671 0 -3 1
6638 1 6.775898559007972 8.05776284026416 4.875730554103441 0 -3 1
10 1 10.192478518971212 5.7039506965655 5.013737681783479 -1 0 1
5409 1 9.194077641702076 7.89923491435596 5.696013089227719 1 -1 0
4683 1 12.607685365665592 5.493947634056386 6.220551908959242 2 0 1
1656 1 14.052499015894472 7.319810185834598 4.8347070422754195 -1 1 1
4689 1 16.681155454453197 6.78552758180204 5.661345690356255 0 2 1
3139 1 17.622517238943246 4.240907314826322 4.9042624813603215 -1 3 1
3288 1 21.914054995544014 6.250107664724927 4.561621262632797 0 3 1
3746 1 24.185709292792183 5.869002627796122 5.853963513551971 1 3 0
358 1 1.9102044517497627 8.697551034799144 6.0080426237786355 0 -2 0
4820 1 3.3605309419418665 10.725962704853268 4.966400099104775 4 0 1
1952 1 5.713310572885825 10.533454848427377 5.865687711864481 0 -1 0
5260 1 7.356991321445678 12.623361106488872 4.717232578549332 2 0 1
1493 1 10.993067290895755 9.840430255573994 4.879111935958169 1 -1 1
2286 1 9.748508635594785 12.068268003595815 5.797353981316335 -2 -2 1
5134 1 13.529642024380681 9.598107792720564 5.716532777478431 3 2 0
3805 1 15.357597440946877 11.497520304796126 4.722282393138183 0 -2 0
3636 1 18.461043764087417 8.48276149188801 4.5464615046273575 -1 2 1
3051 1 17.770255156315375 10.94391626811413 5.5678026068614965 1 0 0
4875 1 20.834233344516264 8.515805867843332 5.684321287029618 1 1 1
5120 1 22.27362819410341 10.712641797936184 4.710858073891204 1 -3 0
3172 1 24.408781135847164 16.604869442966226 0.9086097347241782 2 3 1
221 1 2.233165268692516 12.973590679219367 5.901615320749684 4 2 0
40 1 3.8942810752008357 14.882854397553142 5.241437220401053 -3 -2 0
1626 1 6.5406039622036065 14.752651165087169 6.015376108127239 0 1 1
3106 1 11.709116531409915 13.615310089015315 4.758669898371063 0 0 0
600 1 15.656964504199227 16.07117959165911 5.045306282601759 1 1 1
1632 1 14.373980747000086 13.897912672408923 5.602480874288084 -4 1 1
3523 1 19.0129297108763 13.161271703837063 4.953952585359385 0 1 1
5499 1 18.137682674575093 15.590873469326615 5.522010540163352 0 -2 0
1514 1 21.52471110244272 13.078222337742893 5.647665540495427 1 0 1
3887 1 22.960120267406413 15.03132686533739 4.600102215517276 0 -2 0
3155 1 3.295622653565418 17.32576453567433 6.1004567662439175 2 -2 1
5245 1 0.7656110294939705 17.675422222658934 4.70202412794153 0 1 0
1537 1 4.772089891112737 19.115047790004834 4.865237532745701 1 0 1
6487 1 7.2167757543098645 18.740617214265864 5.811423917209032 0 0 1
1655 1 8.591961713969921 16.305792777373675 5.006809690635584 0 2 1
3980 1 10.979763176730843 16.06261322166651 5.86328835950805 0 1 1
3800 1 12.221221653453878 18.365434865455438 5.130941299471432 -1 1 0
5203 1 14.635226203250882 18.09006859793928 5.984356421938399 2 2 0
1325 1 16.199582247183848 20.186591585640258 4.9255969113463065 -3 -1 1
3622 1 19.535116362389953 17.387688006807636 4.260542515951079 0 -3 0
6462 1 18.561011799739077 19.734286805495916 5.643342959585197 0 3 1
2102 1 21.90335556772898 17.514817664202116 5.649726598263616 3 1 0
6567 1 23.075788261492548 19.541001139077483 4.425703305360864 3 -1 0
310 1 1.299277098762244 21.857948254849436 4.5966625817296345 -5 -3 0
1577 1 3.950493681561197 21.74722505266096 5.325764759573122 2 -4 1
4957 1 7.159459418821102 1.0893807519592706 19.425171700469992 3 -3 0
1958 1 5.438814538797589 23.994928936514974 4.762110134974114 -2 1 0
1900 1 7.9284746633804515 23.349980823342865 5.863371763200073 -2 -2 1
2169 1 11.128853809687495 20.485493193532445 6.229651501051739 -1 -1 0
5523 1 8.63418727359578 20.70405596178154 5.1229757233693105 3 1 0
3906 1 12.665935737992717 22.450233397296675 5.049209924207222 1 -1 0
3413 1 15.278323822245213 22.482565394414184 5.896705664020861 2 -3 0
6618 1 20.29978977761634 21.600434751359316 4.792878369176683 0 0 1
3386 1 19.345355488268968 23.976571007342997 5.849934385891848 5 3 0
5013 1 16.746369655918812 13.469860611474138 19.668052547337684 -1 1 1
3036 1 22.842774927535007 21.796616118963083 5.651611195896091 1 -1 1
5496 1 3.3007540939653146 24.111185953531837 16.912530210848555 0 -4 1
5672 1 2.3399082467849492 1.7744870902309486 9.281068571363683 2 -2 1
6620 1 1.8910822862494643 4.306551349681356 8.438995546282317 0 -2 0
5277 1 4.934394707789698 1.8298400934163057 8.213353576785922 2 -2 0
5246 1 6.15423099111793 3.8383487655317663 9.298849054499392 -1 -1 0
12 1 8.760232827273123 3.669920479194176 8.214649207991737 -2 2 0
3110 1 9.552065119071996 1.3083577170223795 9.605243770352851 0 0 1
3547 1 12.211990774297144 0.902078445956884 8.465387955334286 2 -2 0
5398 1 13.326750084574595 2.7601685767494915 9.702342025660974 5 3 0
3502 1 15.996207357207936 2.3933225591787775 9.024961117981466 1 -2 1
2306 1 13.2963758551837 2.822413525896361 12.230497818232353 -4 -2 0
1636 1 21.087807233459564 1.9989632205640309 9.358347032878362 0 1 1
2067 1 20.200447804142826 4.1755442729583985 8.473586173737157 0 3 0
5638 1 23.412719670643003 1.4798536258954629 8.253040190940036 0 3 1
5360 1 2.7714713482494946 6.28262548120336 9.594845362883925 1 6 0
4746 1 5.432870053145517 6.164129814444846 8.659145041182583 1 2 1
3539 1 6.660899320119272 8.301876204313892 9.704365364232112 1 2 1
6577 1 10.335997933424759 5.43513562208948 9.426469630083396 4 2 1
6504 1 9.173995619262083 7.656428593107502 8.559206883904185 2 0 1
5394 1 12.952956757844246 5.206956018366047 8.637076013691585 3 4 0
185 1 14.304632482987644 7.243503138001854 9.305288713306235 1 0 1
3410 1 17.75663284174184 4.599334009698104 9.372825465814461 1 -1 1
376 1 16.67908292783097 6.672884023299404 8.307553486061112 -1 0 0
1857 1 21.74076891245539 6.290407899497216 9.314481833719258 -2 2 0
6544 1 20.77377834910107 8.334599911479723 8.589624013416751 -2 -5 1
1523 1 24.242325271887392 5.986585363332823 8.632927205210448 1 -2 1
6597 1 1.7799053176770885 9.156494570010773 8.624457045925135 -1 3 1
1591 1 3.4908196805151404 10.747770862983941 9.90918389442273 -2 1 0
1647 1 6.0083291266695635 10.548544272149755 8.441654242576117 1 2 1
3221 1 10.76846653903065 9.811339672384317 9.434587160429729 1 0 1
5292 1 9.874730574869226 11.974948062731197 8.214631224340495 -1 0 0
3232 1 13.499338304662906 9.50168854146892 8.570122559884092 4 1 1
5426 1 15.291232001986037 11.537359716998957 9.226261001036391 1 1 0
3280 1 18.355608585425276 8.487099466895861 9.430559754427616 0 0 1
473 1 17.944638242775962 10.957916194664138 8.196308552213132 2 0 1
5131 1 22.49160886474358 10.250489851629448 9.450162048847586 -1 -1 1
4691 1 2.3697209440206746 12.77315204453664 8.79355884289561 2 -2 1
3388 1 3.6987058268687916 14.928421133388058 9.902112366591895 -2 1 1
5074 1 7.569312632213817 12.564829264891623 9.327647736730874 -1 0 1
6535 1 6.311238893853014 14.727740990046165 8.824554196506591 1 -2 0
1832 1 11.85305621025321 14.039350294940295 9.446263566585563 1 1 0
1450 1 10.57872314503238 16.09353562708899 8.553116045552489 1 0 1
482 1 14.16588915701413 14.10564542727394 8.329129836832498 3 0 1
6643 1 15.763014025815831 15.900641527579113 9.589659927561524 1 -1 1
356 1 19.369624826705298 12.892930658619795 9.541039898678909 -4 2 0
4698 1 18.18966149968109 15.0551888174223 8.430144509808777 -2 2 1
1672 1 22.02539810972022 12.78679298263673 8.40668331206605 -1 3 0
3251 1 23.390253860308533 14.978768695010102 9.209731370380693 3 2 1
4796 1 0.7034044651799927 17.621527234201064 9.599199400337266 -3 5 0
410 1 3.3655962187739035 17.245151955562655 8.771160604980855 1 -2 1
3145 1 4.855845048088248 19.500258735150524 9.356344058893592 1 2 1
6428 1 7.273590959259368 18.894549915816466 8.633460246986296 0 2 1
3147 1 8.175921004979159 16.58594144313403 9.846502734764446 -2 2 1
6600 1 11.904643266403323 18.33521128771216 9.559412273008228 1 0 0
1628 1 14.540488447379232 18.088271098575536 8.721163516669355 -2 -1 1
3770 1 16.30498548786027 20.187132073268238 9.46316132696612 -2 1 0
3876 1 19.497763972228377 17.050242904600818 9.37861453095696 0 0 0
64 1 18.529579101615468 19.413380731855742 8.453529638574004 -1 -1 0
6653 1 21.833318242538073 17.38120645404294 8.230875670783098 0 1 1
2333 1 23.394248909772426 19.256106323239916 9.309242763587388 0 1 1
5225 1 1.7696411919140838 21.959357746060874 9.370485701156205 -1 0 0
5483 1 4.242703674415102 21.644649745496565 8.122353526852695 -1 -4 1
336 1 3.916328773852468 3.6626083431673875 19.65338121502907 0 -1 0
6687 1 5.813368484379793 23.759594746390942 9.23350874477586 5 0 1
5282 1 8.12420136206169 23.395588702738895 8.499740243543155 0 -2 0
5230 1 11.144441955350379 20.83251027250013 8.825158946431692 1 -1 0
3219 1 8.70333844233179 21.131584135006783 9.631214587335517 0 1 0
3286 1 12.605005053939136 22.85747650624983 9.564392872565504 -1 -1 1
3796 1 15.190412312468217 22.45999593147192 8.67774565403621 3 0 0
3477 1 16.835660153426925 24.413192864931023 2.078562796740005 1 2 1
3882 1 20.054068048393034 21.645889833305233 9.593732109596777 1 3 1
3831 1 22.556823639713723 21.61738495192775 8.417223051928955 2 3 0
6555 1 14.442673545896463 0.3745282058723809 1.6260816206674154 -1 2 1
6406 1 2.025177776672443 1.649682071812526 12.02603836036136 0 2 1
3733 1 4.489427147824936 1.473706104937388 12.997346339696286 -2 1 1
5123 1 6.097641506040709 3.425691565404179 12.040558006294077 -1 1 0
4864 1 4.644614783370752 1.2881349015283818 15.667583827243961 2 0 1
219 1 7.953611165347604 3.2896870722682845 15.979820057623062 1 0 0
3298 1 9.336696837296817 1.2623044978750768 12.3109676571496 -3 1 0
5285 1 8.374764956087303 3.368030941550429 13.056364197881177 1 1 0
5175 1 11.906724556838197 0.8389224888696887 13.261947487442242 -1 -1 0
1891 1 12.225744839827131 0.5673096862686181 15.790133808203603 0 3 0
6454 1 15.722475193277537 2.5502583917948702 13.382601041231988 -3 2 1
1663 1 15.579460225637055 2.3360885827992854 16.038507435435793 -1 0 1
3919 1 20.06820560227193 4.131328455270858 12.972835721309975 1 -1 1
3745 1 21.18069517208855 1.7668421932851015 11.843529102663238 0 2 0
339 1 23.530554264850426 1.4794230815148393 12.977931677570638 -2 0 0
5038 1 23.36981935694037 1.4773443958706256 15.711875120970017 2 1 1
5054 1 18.10758558162969 22.373142364463668 17.162300816979375 -1 -3 1
3969 1 1.226035853127638 3.7609573451607594 15.825964799160403 -1 1 1
1618 1 1.6222550845935753 4.026700735798308 13.223035696849294 2 1 1
1735 1 2.9928500289442597 6.30651699781897 12.288914144366451 4 -1 1
2105 1 5.699819984912282 6.0588809399779775 13.250073301480034 3 0 0
5575 1 6.850899383304846 8.13783563183763 12.225611805684112 4 1 0
2198 1 5.199110606614144 6.101760995020554 16.023608771364387 1 1 0
3936 1 10.020349355889103 5.145253780378721 11.79992530537449 1 3 1
6601 1 9.375006622174038 7.711557448298483 13.169522617706205 -1 1 1
5333 1 12.386850047167721 4.807276456850946 15.748776009583668 3 -2 0
1890 1 14.195838930250607 7.029924298264041 12.087221971684343 0 0 0
3519 1 12.278734445571263 5.200106633798339 13.03980273694614 1 -3 0
1910 1 17.383698501213967 4.216090088119008 12.143557468758262 0 -2 0
1560 1 16.484664155971434 6.486032080785292 13.18196427641449 -1 2 1
4758 1 21.420289636655998 6.0489038966947986 11.9816991768815 1 1 1
3664 1 24.133666281997975 5.998252740706002 13.175355874813999 -1 -1 0
3558 1 6.305355972693467 21.518706160687877 19.63044726053774 0 2 0
3217 1 1.8058558972324303 8.358385587149064 13.460328397224513 2 3 1
37 1 3.1314149042587736 10.475976038016196 12.631471607427178 -2 0 1
6674 1 5.518245420978144 10.236106449573516 13.244903065626753 1 -2 1
4964 1 7.21957639000562 12.170174944232137 12.246523518985445 4 2 1
3675 1 10.747242781090451 10.066053881962018 12.406344067453187 0 1 0
3501 1 9.823484810110141 12.294539758534524 13.498652170822078 1 -3 1
1607 1 14.676793777655952 11.438404753658943 12.23587238414968 -2 3 0
5174 1 13.516868504286814 9.355338960975994 13.294304283036869 3 -3 1
4716 1 17.9836097311995 8.614327434880353 12.141725762491573 -1 2 1
1321 1 17.32920733235411 10.893054513817894 12.987330611249577 -2 2 1
3574 1 20.377182008788363 8.301850677475496 13.120742098734441 0 -1 0
4779 1 20.822457528162207 8.395528627039987 16.00610081322289 0 -3 1
333 1 22.250321305424865 10.15471139437734 12.029508526508152 2 -1 0
5640 1 0.3192774091224373 6.298541572739147 16.87559391363308 1 0 1
3492 1 5.637300985138001 16.885693425492533 19.417898038616197 0 1 1
5403 1 2.3466683108243207 12.904953645425403 13.577101380066125 1 2 0
3243 1 2.482009755511224 13.184341978736219 16.52795613305052 2 -1 1
4710 1 3.6916011626564313 14.987536937038755 12.441071491975103 1 -1 1
3369 1 6.219012653154734 14.589130979191003 13.571387723753721 3 0 0
2295 1 6.361334462267551 14.36622688302149 16.33033351215017 -1 3 1
1994 1 11.375247050152938 14.122672751736829 12.167609802407666 -3 1 0
2005 1 10.676660291757315 16.361796495696744 13.30445419344387 0 -1 0
5112 1 15.58775974600699 15.702999110548248 12.084165764827137 0 2 0
3077 1 14.029248112642131 13.895467916067275 13.046642281710128 2 1 1
5600 1 18.7934759726679 12.895221300390203 12.293548543328523 0 -2 0
1370 1 18.048998272738224 15.428027427549994 13.29298646184034 0 -1 1
4749 1 18.31132102403747 15.42858565015879 15.990021075633848 -2 -2 1
609 1 22.9651197248223 14.732801395271355 12.051054452673693 3 -1 1
1772 1 21.271723484542353 12.503693922435078 12.909045997386167 -3 -1 1
3904 1 3.1111429987247017 17.53968151402573 13.312617100714087 -2 0 1
261 1 0.4732842948583481 17.45539015068406 12.548135775744385 1 1 1
5309 1 24.130295240618388 5.926040345163027 15.803859044419625 1 4 0
380 1 4.954860818050182 19.693750778726535 12.261482472878502 1 -3 0
4731 1 7.363936051216907 18.889569215579723 13.31766192985641 2 1 1
5240 1 8.086757315918316 16.41072945516393 12.401135351327149 2 1 0
6375 1 12.101117919983837 18.532213295117337 12.347709335502797 2 1 1
5485 1 14.853676177358482 18.188870606307972 13.022605337205233 -2 2 0
6672 1 16.375995146247487 20.210854527330053 12.30218670282175 3 0 1
1319 1 19.719168810214686 17.51648804038036 12.074682382931035 -3 3 1
1445 1 18.81035394343942 19.93606055465054 12.978238197616596 1 0 1
4877 1 19.02695362510652 19.970268505503988 15.787194859173319 1 2 1
3741 1 23.59634722822039 19.091443728564084 12.05286705821669 2 -2 0
5345 1 22.046200454188945 17.143306080805797 12.912538086183245 -2 0 1
349 1 22.338590493026263 17.270201506724387 15.729544782883568 1 0 0
1920 1 1.2274980361028822 22.069654441869268 12.024668728438268 1 0 1
1996 1 3.814263378537407 21.809063182993654 13.11757520449761 -1 0 0
340 1 4.151144875777238 21.73085115545375 15.956506029055042 0 2 0
224 1 3.063246245661524 24.13689810155256 19.574562211712852 0 -2 1
5503 1 5.256769748485041 23.821604404443537 11.992056083409585 -2 -1 0
3884 1 7.580359839194126 23.513726551930365 13.320481283392489 -1 2 0
5314 1 11.302865767719783 20.89056850139213 13.542625959138334 1 -3 1
6334 1 8.65061720163759 21.032781936760475 12.405631653222613 3 0 1
6690 1 13.179970100694906 22.90279610019357 12.64477789539373 -2 1 0
3118 1 15.374549742875312 22.32800151402976 13.567543979064734 0 0 1
3046 1 15.61197664049628 22.602938769351738 16.33780816326552 2 -1 1
3912 1 20.346935997419067 21.989967065106757 12.246867237705812 2 0 0
5411 1 22.868811602431382 21.464491604660587 15.704327425583621 -1 0 0
3356 1 24.368978194243496 23.16653134810707 1.9087887557133145 -2 0 0
1887 1 22.75075993913689 21.503472964338467 12.939955230909451 3 2 0
5515 1 3.776618296952362 3.8518372628158106 16.742568111296567 -1 0 0
5160 1 14.21679042354049 24.356600919677224 19.7777312614373 5 -2 1
397 1 24.064519463022467 23.804546259068537 9.085099108283407 2 0 0
4809 1 7.055569233656612 1.1178929325924152 16.8088721057792 1 2 1
6525 1 11.003797472941125 2.7797838151114727 17.07669640008208 -1 2 0
3620 1 17.057182502489884 23.902677512750596 4.883876780814737 2 -1 0
5323 1 20.799638824559587 15.031679026589702 19.582010469970918 -2 -3 0
372 1 0.24010130768236013 6.899404822646155 1.054801235542994 3 -1 1
2075 1 20.16585931163392 3.842304538860966 15.777464684509987 2 -1 0
275 1 18.11028234885332 2.008439052529511 16.771682432785838 1 -1 0
5011 1 24.173229167425887 23.68708626160655 11.980834761914432 -1 1 0
3937 1 22.595247260945815 3.8737286299596487 16.91363791034424 -1 -1 0
4822 1 8.764444787655291 14.444373304429606 19.704437338647406 -1 1 1
514 1 1.9189559979651893 8.483041207959898 16.13794645307748 0 0 1
403 1 13.823563826572077 20.371252586466788 16.91205775870156 1 3 0
6452 1 19.22996174696479 24.223443422453503 8.443859373423967 -3 2 1
1799 1 4.370696258254075 8.293180773334363 17.15548540739556 0 0 1
1381 1 7.600030914491795 5.520471922944386 17.15291616602567 2 -2 0
4831 1 8.928063145414564 7.587922346049405 16.13384089924706 -2 -3 1
6648 1 21.827943597533668 24.06538458842776 19.552490957474735 3 -2 1
2016 1 11.728939593015474 7.236852129730005 16.88147199530992 2 -1 0
1521 1 14.88326600252081 4.851956426552644 17.050493154801213 -1 -1 1
6589 1 0.44746443634647004 6.429397280847964 19.75654116565683 2 -2 1
4703 1 2.5029720940726348 19.74679971780357 19.608413758720665 -1 1 1
3708 1 16.326818029033802 6.655875637984873 15.977263191212046 0 -1 0
3319 1 19.16962668784732 6.284419773873977 16.88005347472207 -3 -2 0
34 1 11.860956550296986 7.377190290629779 19.488442977511173 1 2 0
1620 1 23.340752085405896 8.06712382194118 17.093704666668422 -1 0 1
5176 1 0.8681249715056408 24.473797617029067 8.40282886804863 1 0 1
3158 1 0.9777651023773887 10.988211464523383 17.27948455298982 0 0 1
5156 1 5.730728571713841 10.155601086810904 15.995762189255313 1 1 0
2017 1 9.724496501304328 12.00569932278529 16.270457066725577 -1 2 0
49 1 8.31133564820691 10.03664104026106 16.887993270395196 -1 -1 1
2240 1 13.082594318346056 9.33570584452681 15.988314532850275 -1 3 1
3734 1 13.37660324197816 16.022361023409182 19.563472039266205 2 2 0
3764 1 12.394198785097084 11.90369043197684 16.60981412796915 2 0 0
5477 1 15.598160584621139 9.12276966165737 16.964236834907364 -2 -1 0
1654 1 2.7588183617621382 23.85042819205444 1.182027314356917 0 3 1
1675 1 17.30104146828048 11.1143829570303 15.727634190975532 2 0 1
563 1 11.139693391151143 20.64734552848933 16.197381942669136 0 4 1
581 1 19.969843762986144 10.835662764357107 16.639009806345957 -4 -1 1
2983 1 14.600148810653431 0.4187730767009544 17.522421243690573 1 0 1
115 1 17.615685634056298 17.915025251677452 19.44055470287938 1 -1 0
134 1 1.4510670081518287 15.595626075716279 17.280342259999085 1 0 1
3205 1 4.905634858655053 12.572555431947059 17.151120302952698 4 2 1
3464 1 19.19175718330344 24.37865552617227 13.269616086874603 0 -2 0
5530 1 23.888741959881205 12.685037285186324 19.347568673692184 -3 3 0
36 1 10.565700916424484 16.10113176291395 15.969871939249057 0 1 0
428 1 8.805775727832811 14.290235354982167 17.000016273781114 2 -1 0
5001 1 18.05680136585686 22.478178259211987 19.68675289428572 0 -3 1
5381 1 13.9650091512367 13.861334897617228 15.717744876218019 0 2 0
5507 1 13.501409563912246 16.206280838497932 16.79673956254181 1 0 0
1775 1 16.49089915521143 13.474612401678586 16.968904106017778 3 1 1
4907 1 18.464518408403094 2.0628950035517217 19.618899780095003 1 2 1
464 1 10.255568013214182 22.9109647733382 17.343658353175147 1 -3 0
5443 1 20.7029490401359 15.087314871360725 16.817839256063806 3 -1 0
533 1 21.366027579751776 12.84097560419949 15.720654331026285 -1 -1 0
2136 1 23.785751461395815 12.475690478929097 16.596456157594478 0 2 0
5002 1 22.703433264051196 3.9178343131247826 19.716728765044003 -2 3 1
432 1 2.915609878962733 17.473528743009325 16.11501222443133 1 1 1
5228 1 2.48218332895533 19.95681380185431 17.140287128778994 1 -2 0
3905 1 24.343600555796105 23.44393427057504 4.454790255555445 -1 -1 0
5474 1 7.22890880995957 18.871772460579916 16.004613956242263 1 -2 0
1712 1 5.5226635871703476 16.779916669448934 16.868404440509767 0 2 1
2179 1 9.594108816576531 18.52357370595529 16.93276741790092 1 0 0
4755 1 14.791487493871138 18.220192236290163 15.883397171283772 1 -1 1
121 1 15.861659172536662 9.148375097605573 19.71814610506845 -1 3 1
3917 1 17.46367165194854 17.867766189651412 16.544174700631004 1 -3 1
1496 1 21.424573485802007 19.40477674805449 19.60052282578465 1 -1 1
1633 1 21.537749319964398 19.52475723048189 16.82883374877249 -1 -1 1
1540 1 0.5622297312609211 24.26589946551014 5.794924332812631 0 -2 0
6701 1 8.116992269998384 10.1383412581895 19.479197469857525 3 1 0
5618 1 14.832680974865271 5.017547985008378 19.937438465134377 4 2 0
1755 1 7.622337385816575 23.329507506828364 16.207657637546763 2 -1 0
5021 1 12.365783183845258 11.742234301261782 19.431278522149317 2 -1 1
3543 1 4.392697739720641 8.089616891909376 19.729207679510743 -2 1 0
3312 1 6.411930953726174 21.165923686326447 17.003403781985522 0 -2 0
44 1 20.07629592880456 10.960175425949789 19.596812926093857 -1 -1 0
1761 1 8.110994916861994 5.346924223255172 19.769040140060238 4 2 1
2129 1 5.185564992747826 12.636517961648371 19.859480874758837 0 -1 0
1879 1 2.6230145790791703 1.8298247044318896 23.3150917509566 -2 -2 0
1970 1 9.137117459716103 6.217311438495037 39.63804121938533 2 4 -1
317 1 1.2074425349544051 3.7674191171616633 24.24833940304053 3 -2 0
6357 1 6.825368753477402 2.8871280529336056 23.116212165189143 3 -1 1
6647 1 6.54863971549926 3.4438893674585165 20.372655446619884 1 -1 0
3376 1 5.05461307875007 1.3172502014178789 24.114712510401414 1 1 1
3607 1 9.566777164115717 1.1470825907324156 20.70507637158873 1 -2 0
249 1 9.44116496707857 2.2842891183490988 23.29983608854192 1 -1 0
2116 1 13.310317945294697 3.5132030770388996 23.68414921330381 4 3 0
4827 1 24.56596262940745 9.856087671410634 36.27930446775643 2 -2 0
6684 1 15.988342375380459 24.43423105693027 39.489624276622436 2 1 0
167 1 8.581101950268856 21.133645386079127 20.66470071903512 -1 1 0
467 1 21.47703974239688 1.3784062682104894 23.44357850922878 0 2 0
246 1 21.031275165874423 1.8958835597194947 20.741739234559454 2 2 0
234 1 3.0610776485614006 5.891184817752727 23.482447537032492 -1 2 0
4844 1 2.9697494938469977 6.043242303115004 20.810278772650243 1 0 1
5534 1 7.313857614465215 7.676549671834803 23.005762001376077 -1 0 0
1864 1 6.999797292015414 7.906252143481856 20.42183333444762 0 5 0
311 1 8.178127529368513 16.89430309314589 20.342692259950294 -3 0 0
3227 1 10.719019306052878 5.2960777930797684 20.8909577680182 0 3 1
1702 1 10.822246606744363 4.545128521194145 23.511405369454163 1 0 1
6631 1 14.370166523898387 7.742329739964646 23.41985896341178 3 -3 1
3334 1 14.362909054712445 7.495944109251545 20.74883707345157 3 1 1
2082 1 17.518012227166544 4.518602297090801 20.632874018226307 0 3 0
3467 1 17.99217539421108 4.527013494972545 23.632662118986705 1 0 0
3821 1 22.41190162604294 6.0153115621288835 23.379571097432567 3 -1 0
366 1 21.742439675506663 6.040170949457021 20.56468788035929 2 2 0
5660 1 3.8053238326415406 10.392433450906347 23.463706783872578 3 2 0
1691 1 1.7441753128943285 15.375385550277873 19.979411008837207 2 -3 1
3856 1 11.508561466756007 9.3171398429201 23.292166964119197 0 3 0
5559 1 10.831616609551022 9.691744520316675 20.52535522273079 2 2 0
5480 1 5.699170673609021 8.875860440374332 39.56437557513674 1 0 -1
5588 1 15.223281730966526 11.955147178503118 23.13153383775443 2 -1 0
1874 1 14.85509947104945 11.7333970088743 20.590684866448765 0 0 0
369 1 16.25590711701283 9.261366346931238 24.412752832946214 -1 2 0
4709 1 18.3554584931719 9.01915307247547 20.415315032784974 0 0 1
2253 1 18.741558516510988 8.558917189353636 23.178624456070356 -2 0 1
2050 1 22.743472828040403 10.356747270867984 23.09785879274629 0 -2 1
4993 1 22.44412427892059 10.565793964281731 20.330803000200344 1 0 1