LAMMPS data file via write_data, version 16 Mar 2018, timestep = 6000000

6750 atoms
2 atom types

0.0000000000000000e+00 4.9219999999999999e+01 xlo xhi
0.0000000000000000e+00 4.9019635930410494e+01 ylo yhi
-1.8687988836802560e-01 6.0248879888355063e+01 zlo zhi

Masses

1 18.015
2 12.01

Atoms # atomic

134 1 3.2762884361660261e+00 2.8968543863714933e+00 2.1180098459423213e+00 1 4 1
3910 1 1.7801523041252054e+00 1.3098074648852418e+00 3.5037918119544664e+00 1 -1 0
415 1 5.6031732723691574e+00 1.1659759098138190e+01 3.2456916721737650e-01 3 0 0
4844 1 6.1131479113426739e+00 2.5447401930834874e+00 2.9312330254812355e+00 -2 -2 1
1543 1 7.4430629732163087e+00 1.3486404422559136e+01 8.6734740558821022e-02 -1 0 0
5070 1 1.1288364681887424e+01 2.1911574942164900e+00 2.9455886198099961e+00 3 -3 0
6356 1 4.4275475312128707e+00 2.6510994806477214e-02 6.7277751331333269e+00 -1 -1 1
88 1 4.5580566372010232e+00 4.6517517328489077e-02 9.5225722273611915e+00 2 -1 0
1962 1 2.4724986439767962e+00 5.4164252063214766e+00 3.4817052244455811e+00 5 1 0
1362 1 4.1451117756326914e+00 7.3024883318235103e+00 3.3720821683163673e+00 -1 0 1
6445 1 6.9116692153628598e+00 6.7448513705264386e+00 2.9735903480370593e+00 0 4 1
617 1 7.6801026324169337e+00 4.5387949620347641e+00 1.5960438452586427e+00 1 -1 1
4864 1 1.2506564031218159e-01 6.0667683242891135e+00 5.6717821918931655e-01 1 -1 1
1535 1 1.1668581013172055e+01 1.2745040059046428e+01 4.9551197972284167e-01 3 -2 1
3110 1 1.0224108404307772e+01 4.3586901053958700e+00 1.3446655945170978e+00 1 -1 1
4920 1 1.2601159119548129e+00 1.0691620734256375e+01 6.3947404567600197e-01 3 -4 0
6496 1 8.8074393223378356e-01 1.0866066884630056e+01 3.1796211924359175e+00 0 0 1
5658 1 5.5849551121640468e+00 1.1749190929810494e+01 2.9782390619913723e+00 3 -2 1
4878 1 1.8405162566009505e+00 7.9841084221836507e+00 -2.9787383043285043e-02 -2 0 1
3734 1 3.3915258016893990e+00 1.0190849431269639e+01 3.9927149162980626e+00 3 -1 0
3733 1 8.2920547483714699e+00 1.1031623639525320e+01 3.2606295815137831e+00 0 0 1
6581 1 8.2612922960778459e+00 8.5927210771375453e+00 1.7143244700214801e+00 5 -2 1
2298 1 1.1052222611346791e+01 8.8933571099646116e+00 1.3895998288396776e+00 2 0 1
42 1 2.7952821098592717e+00 1.4845496767079810e+01 3.0196977252338479e+00 -2 1 1
2309 1 7.6520173626147003e-01 1.3304447679219420e+01 4.2822157098631033e+00 2 2 1
6366 1 2.6824645373327480e+00 1.4997775658740125e+01 3.4545857868934537e-01 1 -1 1
3334 1 7.2344429711067404e+00 1.5903508425787901e+01 1.0365664212441676e+01 1 2 1
2069 1 5.0468622866097128e+00 1.4362727647886251e+01 3.9585240262045236e+00 0 1 0
14 1 1.7360226837770454e-01 1.5732750059479597e+01 7.3686817855094207e+00 2 -3 0
119 1 7.8906440566193945e+00 1.3341538544013886e+01 9.3514397784093095e+00 3 1 0
6480 1 9.1599113710728304e+00 1.5795017450803115e+01 3.5340035001511692e+00 0 2 1
5269 1 9.1722886600504978e+00 1.3343803583371042e+01 2.0215317553228096e+00 -1 3 0
4850 1 5.7376394568275702e+00 4.9467405163795730e+00 -1.3175142227940317e-01 0 0 1
2023 1 1.2078317778031387e+01 6.8498560181190564e+00 5.1828003137136660e+00 1 2 0
6430 1 1.8872816799549703e+00 1.0199883281933071e+00 6.2425270081008319e+00 -3 1 1
3896 1 9.3139375232693145e-01 3.3031534482758516e+00 7.2788997795982793e+00 0 1 0
3253 1 5.9569229690039665e+00 2.4537355807038752e+00 5.5495513909219385e+00 -2 3 1
611 1 8.5791125086354594e+00 1.4874166809063907e+00 6.4978093275677322e+00 1 0 1
1863 1 1.1093723426078288e+01 2.7595868526565401e+00 5.6306460962108327e+00 2 1 1
3547 1 2.7004979497387440e+00 5.0662082469598602e+00 5.9639481407279282e+00 0 0 0
5169 1 2.2512501036394190e+00 7.9342331535395383e+00 7.2761048841077116e+00 -1 2 0
452 1 5.1796665163191014e+00 4.7601068038291601e+00 6.8770282552202255e+00 -3 1 0
5544 1 7.6354262314264458e+00 6.5958335057849906e+00 6.0238542732753499e+00 -2 -1 0
228 1 9.9495827983747844e+00 5.4056784024824029e+00 6.2733074825884412e+00 -1 0 1
527 1 4.4426348397158693e+00 7.1638228387237959e+00 4.7697218105906170e-01 1 2 0
3912 1 4.1773743840369475e+00 9.7468242248932313e+00 6.6410721262596173e+00 0 -1 0
254 1 6.9678601166495948e+00 9.0766205899816264e+00 6.6297939081662101e+00 1 1 0
2268 1 8.6884623246614403e+00 1.0888903691389945e+01 5.8494113344614531e+00 -1 0 1
3934 1 1.1376277535047324e+01 9.8370587364449289e+00 6.2956812824484816e+00 1 -1 0
2004 1 1.1542573727312867e+01 6.5401882419828095e+00 2.3377676907762175e+00 -2 1 0
3228 1 3.2765827576730913e+00 1.2406100481159550e+01 7.1585628648570090e+00 2 2 1
6665 1 7.8810245012868518e-01 1.3090354553034501e+01 6.9924892199331552e+00 3 -3 1
3556 1 5.5279795268642395e+00 1.4238146566139324e+01 6.6071816147775060e+00 -2 -2 0
3837 1 8.0233167754512760e+00 1.3377144943549563e+01 6.7150854938075701e+00 0 1 0
5450 1 9.8717047019488255e+00 1.5287205150316181e+01 5.9523006307508641e+00 2 0 0
3212 1 1.3289726588082800e+00 3.2484312451540474e+00 9.8227007110196123e+00 -1 2 0
5480 1 3.9142902819711138e+00 2.6505781501431716e+00 1.0440978369711946e+01 -1 2 0
5167 1 7.1439436468314268e+00 2.9728794263509850e-01 2.6244752838434762e+00 -1 2 1
6729 1 8.1780795289719812e+00 3.7274586783208168e+00 1.0302422184296148e+01 -1 0 1
2208 1 8.9752989676016046e+00 9.8999513782992876e-01 9.1773811411689223e+00 -2 0 0
3172 1 5.2372839698484885e-03 1.5523516161192719e+01 1.0019827223048152e+01 1 -2 1
559 1 2.3775192927348052e+00 7.9723075120004729e+00 1.0117348098442280e+01 -1 2 1
1729 1 5.5125013988800386e-01 6.0642662803116441e+00 1.0791939679384138e+01 -1 0 0
5256 1 5.6662941264821676e+00 4.6452948060127044e+00 9.4738960630053679e+00 4 3 0
5591 1 5.2102138896868704e+00 7.1295814920813552e+00 1.0391977073257875e+01 3 -2 1
5524 1 9.8535429969376374e+00 5.5318138855169616e+00 8.8717130424174631e+00 2 5 0
3487 1 9.2822281756105820e+00 8.0569753409986102e+00 1.0112680858493746e+01 1 2 0
122 1 3.2125913240257487e+00 1.2258650445104637e+01 9.8399315157346283e+00 1 0 1
6450 1 1.3699162659011859e+00 1.0694719400728220e+01 1.0251440735610471e+01 1 0 1
1918 1 6.1908748658158625e+00 1.1694362000525953e+01 1.0369871246721255e+01 1 -1 0
99 1 6.7403127462578789e+00 8.9995060793116348e+00 9.2992527250184676e+00 2 2 0
3604 1 1.1233722463104623e+01 1.0163505807468356e+01 8.9690672260290665e+00 3 2 0
4847 1 1.0405049441893167e+01 1.2422698900265267e+01 1.0002751154211136e+01 2 -1 0
3093 1 2.7093299345690127e+00 1.4947403388950296e+01 1.0307946177592621e+01 1 0 1
109 1 1.1762492028086386e+01 4.5452902330771060e-02 9.7985846990933787e+00 0 1 0
5313 1 9.6144644847475895e+00 4.1877314434407370e-01 1.2616292813928027e+00 1 -1 0
351 1 6.3362458393895995e+00 1.5909144779760556e+01 3.6284489170671652e-01 1 -2 1
3435 1 1.5498400652798519e+00 3.1539201293588657e+00 1.3848700836872640e+01 5 0 1
5332 1 4.2163631847327698e+00 2.6321594977066654e+00 1.3196579634232160e+01 5 -1 0
6432 1 8.2712625941122546e+00 3.8398144826387606e+00 1.2971080855793829e+01 5 -1 1
3763 1 9.0414235679963735e+00 9.7799229779862917e-01 1.3479574010051953e+01 0 2 0
3154 1 2.0929182884657083e+00 6.1259348559507343e-01 2.3668113320444768e+01 1 -1 1
3585 1 2.6245799663932585e+00 7.8207419097898505e+00 1.3637153624951587e+01 1 0 0
2217 1 5.5955415826836441e-01 5.9320627770272809e+00 1.3499757047346547e+01 0 0 1
6400 1 5.9067613053418473e+00 4.7185573383687300e+00 1.3705989792964598e+01 0 1 1
1661 1 5.2973699282233646e+00 7.1973220148621397e+00 1.3088393314761236e+01 0 -1 1
6488 1 1.0279114883453307e+01 5.5205756635758894e+00 1.3508715553505288e+01 -2 0 1
2331 1 9.5045106500048426e+00 8.0300578216107983e+00 1.3067299774471257e+01 -1 -2 1
1329 1 1.0126630174527948e+01 5.6793441794794175e+00 1.6070488920451286e+01 0 1 1
4893 1 1.5996886366780190e+00 1.0491032846184128e+01 1.2931093375858795e+01 2 0 1
3232 1 3.3069427142379348e+00 1.2094327601911239e+01 1.3638563227174762e+01 2 2 1
5027 1 6.8550232148768968e+00 8.7323156608849288e+00 1.4229588703702326e+01 1 3 1
4890 1 6.2921042482801228e+00 1.1280488072467563e+01 1.3115898662840323e+01 -1 -2 1
2115 1 1.1176834996919281e+01 9.9116996492091545e+00 1.3692700676621643e+01 -2 -3 0
6485 1 1.0845321373683204e+01 1.2370648862347274e+01 1.2808672634170005e+01 1 2 1
5153 1 2.6938030392550649e+00 1.4659231472984832e+01 1.3088593692290457e+01 1 0 0
407 1 9.5033335263985492e+00 1.5025117247147532e+01 2.0994390736634706e+01 2 -5 0
3507 1 7.0796562625067132e+00 1.5663738572789061e+01 1.3135457916304143e+01 0 0 0
4713 1 8.3448013071356630e+00 1.3359235296708869e+01 1.3409492327166051e+01 0 -3 1
3937 1 1.1740727044054488e+01 7.3338541417276355e+00 2.0630067798536874e+01 1 -1 0
320 1 8.3332777706449264e+00 1.0470321388234904e+01 2.1124728444151415e+01 0 2 0
4865 1 1.2273080678152795e+00 3.6421569221198742e+00 1.6852950816620471e+01 2 3 1
3130 1 3.7562312533413467e+00 2.7013718565928686e+00 1.7196157717482013e+01 0 2 1
1470 1 8.3059428967099382e+00 3.6335665644021331e+00 1.7153203903527981e+01 1 0 1
6472 1 9.0944000729684138e+00 1.5177192133678904e+01 2.3635454208760045e+01 2 -1 1
146 1 9.0749684449277890e+00 1.0568743616212966e+00 1.6366780432415272e+01 2 1 0
4757 1 1.1588154225674751e+01 4.5444866745967460e-01 1.2553708157469307e+01 0 0 1
3670 1 8.2930461564604485e+00 3.6476579269316098e+00 1.9842414731005583e+01 -1 2 0
5462 1 1.2112497886677275e+01 7.2829862448087344e+00 2.3490462271301510e+01 2 0 0
5206 1 2.1371443929042653e+00 7.7033621473141256e+00 1.6478243707058077e+01 0 -2 1
4828 1 5.6030405777458969e-01 5.9786522317858717e+00 1.7479824577088781e+01 -1 1 1
3625 1 5.7176788972193977e+00 4.5288593705731204e+00 1.6403185302917450e+01 3 0 0
5355 1 4.7933854018791493e+00 6.8699573705832275e+00 1.7554990385929024e+01 1 -1 0
3129 1 5.1261657997969206e+00 7.0276980096338360e+00 2.0072182026489060e+01 0 -3 1
5293 1 9.2437381291204268e+00 8.0263647873644306e+00 1.7366615593970874e+01 -2 -1 0
3131 1 9.2511507727609388e+00 8.0102722532347652e+00 2.0103818275476186e+01 -1 0 1
3627 1 1.7504963780097866e+00 1.0229802879629950e+01 1.7724555640836183e+01 1 0 1
3430 1 3.6478883030703289e+00 1.1955790697093008e+01 1.6360679249996917e+01 0 2 0
175 1 6.7112015453949558e+00 8.7718609321377041e+00 1.6893220547679523e+01 2 -2 0
6699 1 5.9868814372921975e+00 1.1291375566094359e+01 1.7275627240338078e+01 1 -1 1
3732 1 5.8038445893129689e+00 1.1584198895026494e+01 2.0003112610703930e+01 0 2 0
6661 1 1.1302680571111834e+01 9.6569354782150807e+00 1.6410602229148679e+01 0 2 0
6470 1 1.0158870744744373e+01 1.2433336889794377e+01 2.0030332219504956e+01 1 1 1
549 1 2.6998065486370022e+00 1.4405981417654852e+01 1.7231473986886670e+01 -1 -1 1
2173 1 3.9679983621257642e+00 9.3065327481428728e+00 2.0851093959390191e+01 2 2 1
3502 1 7.3685419896255322e+00 1.5474600897921723e+01 1.7381817786104040e+01 -1 1 1
3179 1 7.9785753336560026e+00 1.3123981533134423e+01 1.6125200220201325e+01 -1 2 0
364 1 7.1112461203241768e+00 1.6022360299434482e+01 2.0057451180573079e+01 3 -1 0
1650 1 5.1279040088288497e+00 1.4185325660674756e+01 2.0847993609979337e+01 1 1 1
504 1 1.0335945710063248e+01 1.2370838405976858e+01 1.7033048479871209e+01 0 1 1
6424 1 3.9083825613649332e+00 2.4272197095248815e+00 1.9845841548779184e+01 3 2 1
6620 1 2.1427453506900043e+00 5.6340193447351405e-01 2.1076334451913240e+01 2 0 0
5407 1 4.6375519096941709e+00 2.1426075109258846e-01 1.6399910293985471e+01 -1 1 0
1883 1 6.5738941855924002e+00 1.6209524125111192e+00 2.3321836752685300e+01 -3 -3 0
308 1 6.4822295159796548e+00 1.9109774426404322e+00 2.0513679449854983e+01 2 -1 0
2212 1 2.6171750963368039e+00 1.4768806739453746e+01 2.3699514729322992e+01 0 4 1
3833 1 1.0860767087180372e+01 2.5555346717531688e+00 2.3301934029451019e+01 0 0 1
463 1 1.0741459382094416e+01 2.8060451701226143e+00 2.0613071143197036e+01 1 0 0
3120 1 5.8689889376799545e-02 1.5638330816972594e+01 1.6420325149104553e+01 -1 -1 1
5017 1 8.2589104460239571e-01 5.8968455788347205e+00 2.0304945364634296e+01 0 1 1
4841 1 3.4318619378936948e+00 4.9127955938914365e+00 2.0674868297817021e+01 2 1 1
4926 1 4.5858541075234865e-01 1.2671964348717141e+01 2.1011214002524429e+01 2 1 1
5287 1 4.2301254980075207e+00 9.2617377652207580e+00 2.3468376925138944e+01 2 4 0
3729 1 7.6515967169786716e+00 6.0012337117417776e+00 2.3597126571020180e+01 3 2 0
401 1 7.5044731647918450e+00 6.1164084244259511e+00 2.1065105580313016e+01 0 -3 0
6555 1 2.5357158626916947e+00 1.4518929262863493e+01 2.0037695257086266e+01 -2 2 1
5039 1 1.2294716662955901e+01 1.4009175522820374e+01 1.6488335449336191e+01 -2 0 1
3470 1 1.1011536284686965e+00 1.2601049770309242e+01 2.3768202758866682e+01 0 0 0
5347 1 1.4950916180823126e+00 1.0337249208783554e+01 2.0356784368544560e+01 1 3 0
5518 1 3.3889952446833305e+00 4.5290438060329281e+00 2.3290583399998518e+01 -1 3 0
4936 1 4.8391600824922341e+00 1.6273644606279049e+01 1.6681243794833435e+01 1 -2 1
4725 1 7.7478618380027209e-01 5.7261741465591474e+00 2.3913234823457010e+01 0 1 1
6691 1 5.1556234306500768e+00 1.3736953434821093e+01 2.3793784306289300e+01 2 -4 1
6471 1 2.4642083651763919e-01 1.5596521382940836e+01 1.3683077120845333e+01 0 1 0
3119 1 1.1609775440983917e+01 2.6735528273928838e-01 1.9788537226330536e+01 4 3 1
4838 1 4.7940640829782968e+00 1.6297621215889517e+01 1.3964918622302546e+01 3 0 1
2041 1 8.5016642577436308e+00 3.4209575402805887e+00 2.3967956208419270e+01 4 2 0
618 2 0.0000000000000000e+00 2.8417180249513345e+00 2.6745389838459072e+01 0 0 0
620 2 0.0000000000000000e+00 0.0000000000000000e+00 2.6745389838459072e+01 0 0 0
622 2 1.2305000000000001e+00 7.1042950623783474e-01 2.6745389838459072e+01 0 0 0
629 2 1.2305000000000001e+00 2.1312885187134998e+00 2.6745389838459072e+01 0 0 0
631 2 2.4610000000000003e+00 2.8417180249513345e+00 2.6745389838459072e+01 0 0 0
633 2 2.4610000000000003e+00 0.0000000000000000e+00 2.6745389838459072e+01 0 0 0
635 2 3.6915000000000004e+00 7.1042950623783474e-01 2.6745389838459072e+01 0 0 0
650 2 3.6914999999999996e+00 2.1312885187134998e+00 2.6745389838459072e+01 0 0 0
6593 1 1.1778402409096136e+01 1.0890204593252575e+01 3.5944280466503152e+01 -3 -1 0
652 2 4.9220000000000006e+00 2.8417180249513332e+00 2.6745389838459072e+01 0 0 0
654 2 4.9220000000000006e+00 0.0000000000000000e+00 2.6745389838459072e+01 0 0 0
656 2 6.1524999999999999e+00 7.1042950623783407e-01 2.6745389838459072e+01 0 0 0
679 2 6.1524999999999999e+00 2.1312885187134989e+00 2.6745389838459072e+01 0 0 0
681 2 7.3829999999999991e+00 2.8417180249513345e+00 2.6745389838459072e+01 0 0 0
683 2 7.3829999999999991e+00 0.0000000000000000e+00 2.6745389838459072e+01 0 0 0
685 2 8.6134999999999984e+00 7.1042950623783407e-01 2.6745389838459072e+01 0 0 0
716 2 8.6134999999999984e+00 2.1312885187135002e+00 2.6745389838459072e+01 0 0 0
718 2 9.8440000000000012e+00 2.8417180249513332e+00 2.6745389838459072e+01 0 0 0
720 2 9.8440000000000012e+00 0.0000000000000000e+00 2.6745389838459072e+01 0 0 0
722 2 1.1074500000000002e+01 7.1042950623783330e-01 2.6745389838459072e+01 0 0 0
761 2 1.1074500000000002e+01 2.1312885187135002e+00 2.6745389838459072e+01 0 0 0
623 2 0.0000000000000000e+00 7.1042950623783341e+00 2.6745389838459072e+01 0 0 0
625 2 0.0000000000000000e+00 4.2625770374269996e+00 2.6745389838459072e+01 0 0 0
627 2 1.2305000000000001e+00 4.9730065436648339e+00 2.6745389838459072e+01 0 0 0
642 2 1.2305000000000001e+00 6.3938655561404980e+00 2.6745389838459072e+01 0 0 0
644 2 2.4610000000000003e+00 7.1042950623783341e+00 2.6745389838459072e+01 0 0 0
646 2 2.4610000000000003e+00 4.2625770374269996e+00 2.6745389838459072e+01 0 0 0
648 2 3.6914999999999996e+00 4.9730065436648339e+00 2.6745389838459072e+01 0 0 0
671 2 3.6914999999999996e+00 6.3938655561404980e+00 2.6745389838459072e+01 0 0 0
673 2 4.9220000000000006e+00 7.1042950623783341e+00 2.6745389838459072e+01 0 0 0
675 2 4.9220000000000006e+00 4.2625770374269978e+00 2.6745389838459072e+01 0 0 0
677 2 6.1524999999999999e+00 4.9730065436648339e+00 2.6745389838459072e+01 0 0 0
708 2 6.1524999999999999e+00 6.3938655561404980e+00 2.6745389838459072e+01 0 0 0
710 2 7.3830000000000009e+00 7.1042950623783341e+00 2.6745389838459072e+01 0 0 0
712 2 7.3829999999999991e+00 4.2625770374269996e+00 2.6745389838459072e+01 0 0 0
714 2 8.6135000000000002e+00 4.9730065436648339e+00 2.6745389838459072e+01 0 0 0
753 2 8.6135000000000002e+00 6.3938655561404980e+00 2.6745389838459072e+01 0 0 0
755 2 9.8440000000000012e+00 7.1042950623783341e+00 2.6745389838459072e+01 0 0 0
757 2 9.8440000000000012e+00 4.2625770374270004e+00 2.6745389838459072e+01 0 0 0
759 2 1.1074500000000002e+01 4.9730065436648339e+00 2.6745389838459072e+01 0 0 0
800 2 1.1074500000000002e+01 6.3938655561404980e+00 2.6745389838459072e+01 0 0 0
1059 2 9.8440000000000012e+00 1.2787731112280996e+01 3.3316610161488086e+01 0 0 0
636 2 0.0000000000000000e+00 1.1366872099805333e+01 2.6745389838459072e+01 0 0 0
638 2 0.0000000000000000e+00 8.5251540748539991e+00 2.6745389838459072e+01 0 0 0
640 2 1.2305000000000001e+00 9.2355835810918343e+00 2.6745389838459072e+01 0 0 0
663 2 1.2305000000000001e+00 1.0656442593567498e+01 2.6745389838459072e+01 0 0 0
665 2 2.4610000000000003e+00 1.1366872099805333e+01 2.6745389838459072e+01 0 0 0
667 2 2.4610000000000003e+00 8.5251540748539991e+00 2.6745389838459072e+01 0 0 0
669 2 3.6915000000000004e+00 9.2355835810918343e+00 2.6745389838459072e+01 0 0 0
700 2 3.6914999999999996e+00 1.0656442593567499e+01 2.6745389838459072e+01 0 0 0
702 2 4.9220000000000006e+00 1.1366872099805333e+01 2.6745389838459072e+01 0 0 0
704 2 4.9220000000000006e+00 8.5251540748539991e+00 2.6745389838459072e+01 0 0 0
706 2 6.1524999999999999e+00 9.2355835810918343e+00 2.6745389838459072e+01 0 0 0
745 2 6.1524999999999999e+00 1.0656442593567499e+01 2.6745389838459072e+01 0 0 0
747 2 7.3829999999999991e+00 1.1366872099805333e+01 2.6745389838459072e+01 0 0 0
749 2 7.3830000000000009e+00 8.5251540748539991e+00 2.6745389838459072e+01 0 0 0
1577 1 4.1552924437127805e+00 2.3912908008268690e+00 2.4322022301111900e+01 1 2 1
5408 1 5.4136959613372051e+00 6.6328734545087427e+00 2.4266061661109369e+01 1 -1 0
751 2 8.6134999999999984e+00 9.2355835810918343e+00 2.6745389838459072e+01 0 0 0
792 2 8.6134999999999984e+00 1.0656442593567498e+01 2.6745389838459072e+01 0 0 0
794 2 9.8440000000000012e+00 1.1366872099805333e+01 2.6745389838459072e+01 0 0 0
796 2 9.8440000000000012e+00 8.5251540748539956e+00 2.6745389838459072e+01 0 0 0
798 2 1.1074500000000002e+01 9.2355835810918343e+00 2.6745389838459072e+01 0 0 0
839 2 1.1074500000000002e+01 1.0656442593567498e+01 2.6745389838459072e+01 0 0 0
841 2 1.2304999999999998e+01 1.1366872099805333e+01 2.6745389838459072e+01 0 0 0
657 2 0.0000000000000000e+00 1.5629449137232333e+01 2.6745389838459072e+01 0 0 0
659 2 0.0000000000000000e+00 1.2787731112280996e+01 2.6745389838459072e+01 0 0 0
661 2 1.2305000000000001e+00 1.3498160618518829e+01 2.6745389838459072e+01 0 0 0
692 2 1.2305000000000001e+00 1.4919019630994494e+01 2.6745389838459072e+01 0 0 0
694 2 2.4610000000000003e+00 1.5629449137232328e+01 2.6745389838459072e+01 0 0 0
696 2 2.4610000000000003e+00 1.2787731112280996e+01 2.6745389838459072e+01 0 0 0
698 2 3.6915000000000004e+00 1.3498160618518829e+01 2.6745389838459072e+01 0 0 0
737 2 3.6915000000000004e+00 1.4919019630994494e+01 2.6745389838459072e+01 0 0 0
739 2 4.9220000000000006e+00 1.5629449137232333e+01 2.6745389838459072e+01 0 0 0
741 2 4.9220000000000006e+00 1.2787731112280996e+01 2.6745389838459072e+01 0 0 0
743 2 6.1524999999999990e+00 1.3498160618518829e+01 2.6745389838459072e+01 0 0 0
784 2 6.1524999999999990e+00 1.4919019630994494e+01 2.6745389838459072e+01 0 0 0
786 2 7.3829999999999991e+00 1.5629449137232333e+01 2.6745389838459072e+01 0 0 0
788 2 7.3829999999999991e+00 1.2787731112280996e+01 2.6745389838459072e+01 0 0 0
1058 2 9.8440000000000012e+00 1.5629449137232328e+01 3.3316610161488086e+01 0 0 0
790 2 8.6135000000000002e+00 1.3498160618518835e+01 2.6745389838459072e+01 0 0 0
831 2 8.6135000000000002e+00 1.4919019630994494e+01 2.6745389838459072e+01 0 0 0
833 2 9.8440000000000012e+00 1.5629449137232328e+01 2.6745389838459072e+01 0 0 0
835 2 9.8440000000000012e+00 1.2787731112280996e+01 2.6745389838459072e+01 0 0 0
837 2 1.1074500000000002e+01 1.3498160618518829e+01 2.6745389838459072e+01 0 0 0
873 2 1.1074500000000002e+01 1.4919019630994494e+01 2.6745389838459072e+01 0 0 0
5324 1 6.7679058553489728e+00 1.5808637577966000e+01 2.4552984279722683e+01 -1 3 0
619 2 0.0000000000000000e+00 1.4208590124756650e+00 3.0030999999993671e+01 0 0 0
621 2 0.0000000000000000e+00 0.0000000000000000e+00 3.0030999999993671e+01 0 0 0
628 2 1.2305000000000001e+00 3.5521475311891644e+00 3.0030999999993671e+01 0 0 0
630 2 1.2305000000000001e+00 2.1312885187134998e+00 3.0030999999993671e+01 0 0 0
632 2 2.4610000000000003e+00 1.4208590124756650e+00 3.0030999999993671e+01 0 0 0
634 2 2.4610000000000003e+00 0.0000000000000000e+00 3.0030999999993671e+01 0 0 0
649 2 3.6914999999999996e+00 3.5521475311891644e+00 3.0030999999993671e+01 0 0 0
651 2 3.6914999999999996e+00 2.1312885187134998e+00 3.0030999999993671e+01 0 0 0
653 2 4.9220000000000006e+00 1.4208590124756650e+00 3.0030999999993671e+01 0 0 0
655 2 4.9220000000000006e+00 0.0000000000000000e+00 3.0030999999993671e+01 0 0 0
678 2 6.1524999999999999e+00 3.5521475311891644e+00 3.0030999999993671e+01 0 0 0
680 2 6.1524999999999999e+00 2.1312885187134989e+00 3.0030999999993671e+01 0 0 0
682 2 7.3829999999999991e+00 1.4208590124756659e+00 3.0030999999993671e+01 0 0 0
684 2 7.3829999999999991e+00 0.0000000000000000e+00 3.0030999999993671e+01 0 0 0
715 2 8.6134999999999984e+00 3.5521475311891657e+00 3.0030999999993671e+01 0 0 0
717 2 8.6134999999999984e+00 2.1312885187135002e+00 3.0030999999993671e+01 0 0 0
719 2 9.8440000000000012e+00 1.4208590124756659e+00 3.0030999999993671e+01 0 0 0
721 2 9.8440000000000012e+00 0.0000000000000000e+00 3.0030999999993671e+01 0 0 0
760 2 1.1074500000000002e+01 3.5521475311891644e+00 3.0030999999993671e+01 0 0 0
762 2 1.1074500000000002e+01 2.1312885187135002e+00 3.0030999999993671e+01 0 0 0
624 2 0.0000000000000000e+00 5.6834360499026637e+00 3.0030999999993671e+01 0 0 0
626 2 0.0000000000000000e+00 4.2625770374269996e+00 3.0030999999993671e+01 0 0 0
641 2 1.2305000000000001e+00 7.8147245686161639e+00 3.0030999999993671e+01 0 0 0
643 2 1.2305000000000001e+00 6.3938655561404980e+00 3.0030999999993671e+01 0 0 0
645 2 2.4610000000000003e+00 5.6834360499026637e+00 3.0030999999993671e+01 0 0 0
647 2 2.4610000000000003e+00 4.2625770374269996e+00 3.0030999999993671e+01 0 0 0
670 2 3.6914999999999996e+00 7.8147245686161639e+00 3.0030999999993671e+01 0 0 0
672 2 3.6914999999999996e+00 6.3938655561404980e+00 3.0030999999993671e+01 0 0 0
674 2 4.9220000000000006e+00 5.6834360499026637e+00 3.0030999999993671e+01 0 0 0
676 2 4.9220000000000006e+00 4.2625770374269978e+00 3.0030999999993671e+01 0 0 0
707 2 6.1524999999999999e+00 7.8147245686161639e+00 3.0030999999993671e+01 0 0 0
709 2 6.1524999999999999e+00 6.3938655561404980e+00 3.0030999999993671e+01 0 0 0
711 2 7.3829999999999991e+00 5.6834360499026637e+00 3.0030999999993671e+01 0 0 0
713 2 7.3829999999999991e+00 4.2625770374269996e+00 3.0030999999993671e+01 0 0 0
752 2 8.6135000000000002e+00 7.8147245686161639e+00 3.0030999999993671e+01 0 0 0
754 2 8.6135000000000002e+00 6.3938655561404980e+00 3.0030999999993671e+01 0 0 0
756 2 9.8440000000000012e+00 5.6834360499026637e+00 3.0030999999993671e+01 0 0 0
758 2 9.8440000000000012e+00 4.2625770374270004e+00 3.0030999999993671e+01 0 0 0
799 2 1.1074500000000002e+01 7.8147245686161639e+00 3.0030999999993671e+01 0 0 0
801 2 1.1074500000000002e+01 6.3938655561404980e+00 3.0030999999993671e+01 0 0 0
637 2 0.0000000000000000e+00 9.9460130873296642e+00 3.0030999999993671e+01 0 0 0
639 2 0.0000000000000000e+00 8.5251540748539991e+00 3.0030999999993671e+01 0 0 0
662 2 1.2305000000000001e+00 1.2077301606043163e+01 3.0030999999993671e+01 0 0 0
664 2 1.2305000000000001e+00 1.0656442593567498e+01 3.0030999999993671e+01 0 0 0
666 2 2.4610000000000003e+00 9.9460130873296642e+00 3.0030999999993671e+01 0 0 0
668 2 2.4610000000000003e+00 8.5251540748539991e+00 3.0030999999993671e+01 0 0 0
699 2 3.6914999999999996e+00 1.2077301606043163e+01 3.0030999999993671e+01 0 0 0
701 2 3.6914999999999996e+00 1.0656442593567499e+01 3.0030999999993671e+01 0 0 0
703 2 4.9220000000000006e+00 9.9460130873296642e+00 3.0030999999993671e+01 0 0 0
705 2 4.9220000000000006e+00 8.5251540748539991e+00 3.0030999999993671e+01 0 0 0
744 2 6.1524999999999999e+00 1.2077301606043163e+01 3.0030999999993671e+01 0 0 0
746 2 6.1524999999999999e+00 1.0656442593567499e+01 3.0030999999993671e+01 0 0 0
748 2 7.3830000000000009e+00 9.9460130873296642e+00 3.0030999999993671e+01 0 0 0
750 2 7.3830000000000009e+00 8.5251540748539991e+00 3.0030999999993671e+01 0 0 0
791 2 8.6135000000000002e+00 1.2077301606043163e+01 3.0030999999993671e+01 0 0 0
793 2 8.6134999999999984e+00 1.0656442593567498e+01 3.0030999999993671e+01 0 0 0
795 2 9.8440000000000012e+00 9.9460130873296642e+00 3.0030999999993671e+01 0 0 0
797 2 9.8440000000000012e+00 8.5251540748539956e+00 3.0030999999993671e+01 0 0 0
838 2 1.1074500000000002e+01 1.2077301606043163e+01 3.0030999999993671e+01 0 0 0
840 2 1.1074500000000002e+01 1.0656442593567498e+01 3.0030999999993671e+01 0 0 0
658 2 0.0000000000000000e+00 1.4208590124756663e+01 3.0030999999993671e+01 0 0 0
660 2 0.0000000000000000e+00 1.2787731112280996e+01 3.0030999999993671e+01 0 0 0
693 2 1.2305000000000001e+00 1.4919019630994494e+01 3.0030999999993671e+01 0 0 0
695 2 2.4610000000000003e+00 1.4208590124756663e+01 3.0030999999993671e+01 0 0 0
697 2 2.4610000000000003e+00 1.2787731112280996e+01 3.0030999999993671e+01 0 0 0
738 2 3.6915000000000004e+00 1.4919019630994494e+01 3.0030999999993671e+01 0 0 0
740 2 4.9220000000000006e+00 1.4208590124756663e+01 3.0030999999993671e+01 0 0 0
742 2 4.9220000000000006e+00 1.2787731112280996e+01 3.0030999999993671e+01 0 0 0
785 2 6.1524999999999990e+00 1.4919019630994494e+01 3.0030999999993671e+01 0 0 0
787 2 7.3830000000000009e+00 1.4208590124756663e+01 3.0030999999993671e+01 0 0 0
789 2 7.3829999999999991e+00 1.2787731112280996e+01 3.0030999999993671e+01 0 0 0
832 2 8.6135000000000002e+00 1.4919019630994494e+01 3.0030999999993671e+01 0 0 0
834 2 9.8440000000000012e+00 1.4208590124756663e+01 3.0030999999993671e+01 0 0 0
836 2 9.8440000000000012e+00 1.2787731112280996e+01 3.0030999999993671e+01 0 0 0
872 2 1.1074500000000002e+01 1.6339878643470161e+01 3.0030999999993671e+01 0 0 0
874 2 1.1074500000000002e+01 1.4919019630994494e+01 3.0030999999993671e+01 0 0 0
876 2 1.2304999999999998e+01 1.4208590124756658e+01 3.0030999999993671e+01 0 0 0
947 2 0.0000000000000000e+00 2.8417180249513345e+00 3.3316610161488086e+01 0 0 0
948 2 0.0000000000000000e+00 0.0000000000000000e+00 3.3316610161488086e+01 0 0 0
949 2 1.2305000000000001e+00 7.1042950623783474e-01 3.3316610161488086e+01 0 0 0
953 2 1.2305000000000001e+00 2.1312885187134998e+00 3.3316610161488086e+01 0 0 0
954 2 2.4610000000000003e+00 2.8417180249513345e+00 3.3316610161488086e+01 0 0 0
955 2 2.4610000000000003e+00 0.0000000000000000e+00 3.3316610161488086e+01 0 0 0
956 2 3.6915000000000004e+00 7.1042950623783474e-01 3.3316610161488086e+01 0 0 0
964 2 3.6914999999999996e+00 2.1312885187134998e+00 3.3316610161488086e+01 0 0 0
965 2 4.9220000000000006e+00 2.8417180249513332e+00 3.3316610161488086e+01 0 0 0
966 2 4.9220000000000006e+00 0.0000000000000000e+00 3.3316610161488086e+01 0 0 0
967 2 6.1524999999999999e+00 7.1042950623783407e-01 3.3316610161488086e+01 0 0 0
979 2 6.1524999999999999e+00 2.1312885187134989e+00 3.3316610161488086e+01 0 0 0
980 2 7.3829999999999991e+00 2.8417180249513345e+00 3.3316610161488086e+01 0 0 0
981 2 7.3829999999999991e+00 0.0000000000000000e+00 3.3316610161488086e+01 0 0 0
982 2 8.6134999999999984e+00 7.1042950623783407e-01 3.3316610161488086e+01 0 0 0
998 2 8.6134999999999984e+00 2.1312885187135002e+00 3.3316610161488086e+01 0 0 0
999 2 9.8440000000000012e+00 2.8417180249513332e+00 3.3316610161488086e+01 0 0 0
1000 2 9.8440000000000012e+00 0.0000000000000000e+00 3.3316610161488086e+01 0 0 0
1001 2 1.1074500000000002e+01 7.1042950623783330e-01 3.3316610161488086e+01 0 0 0
1021 2 1.1074500000000002e+01 2.1312885187135002e+00 3.3316610161488086e+01 0 0 0
950 2 0.0000000000000000e+00 7.1042950623783341e+00 3.3316610161488086e+01 0 0 0
951 2 0.0000000000000000e+00 4.2625770374269996e+00 3.3316610161488086e+01 0 0 0
952 2 1.2305000000000001e+00 4.9730065436648339e+00 3.3316610161488086e+01 0 0 0
960 2 1.2305000000000001e+00 6.3938655561404980e+00 3.3316610161488086e+01 0 0 0
961 2 2.4610000000000003e+00 7.1042950623783341e+00 3.3316610161488086e+01 0 0 0
962 2 2.4610000000000003e+00 4.2625770374269996e+00 3.3316610161488086e+01 0 0 0
963 2 3.6914999999999996e+00 4.9730065436648339e+00 3.3316610161488086e+01 0 0 0
975 2 3.6914999999999996e+00 6.3938655561404980e+00 3.3316610161488086e+01 0 0 0
1057 2 8.6135000000000002e+00 1.4919019630994494e+01 3.3316610161488086e+01 0 0 0
976 2 4.9220000000000006e+00 7.1042950623783341e+00 3.3316610161488086e+01 0 0 0
977 2 4.9220000000000006e+00 4.2625770374269978e+00 3.3316610161488086e+01 0 0 0
978 2 6.1524999999999999e+00 4.9730065436648339e+00 3.3316610161488086e+01 0 0 0
994 2 6.1524999999999999e+00 6.3938655561404980e+00 3.3316610161488086e+01 0 0 0
995 2 7.3830000000000009e+00 7.1042950623783341e+00 3.3316610161488086e+01 0 0 0
996 2 7.3829999999999991e+00 4.2625770374269996e+00 3.3316610161488086e+01 0 0 0
1926 1 7.4113238777268391e+00 9.8858059159401250e+00 3.5941044542920963e+01 -2 4 -1
997 2 8.6135000000000002e+00 4.9730065436648339e+00 3.3316610161488086e+01 0 0 0
1017 2 8.6135000000000002e+00 6.3938655561404980e+00 3.3316610161488086e+01 0 0 0
1018 2 9.8440000000000012e+00 7.1042950623783341e+00 3.3316610161488086e+01 0 0 0
1019 2 9.8440000000000012e+00 4.2625770374270004e+00 3.3316610161488086e+01 0 0 0
1020 2 1.1074500000000002e+01 4.9730065436648339e+00 3.3316610161488086e+01 0 0 0
1041 2 1.1074500000000002e+01 6.3938655561404980e+00 3.3316610161488086e+01 0 0 0