LAMMPS data file via write_data, version 16 Mar 2018, timestep = 100000

6750 atoms
2 atom types

0.0000000000000000e+00 4.9219999999999999e+01 xlo xhi
0.0000000000000000e+00 4.9019635930410494e+01 ylo yhi
4.2988316612812127e-01 5.9632116833871819e+01 zlo zhi

Masses

1 18.015
2 12.01

Atoms # atomic

3430 1 7.0853119284041313e+00 1.2422196415439299e+01 9.6852139259384611e+00 1 -1 0
409 1 1.1395715509549474e+01 1.3938619864548869e+01 2.8619115000363760e+00 1 0 1
5441 1 5.1773008123869211e+00 1.5579207306202269e+01 3.0650410131020789e+00 1 1 0
133 1 7.8795265149570763e+00 1.5954538589692159e+01 8.3236949921980496e+00 0 -1 0
3981 1 4.2913788008963243e+00 1.3079481087603697e+00 3.9766165171766210e+00 1 1 1
5065 1 1.1376350835218521e+01 3.0897733133483358e+00 7.7494271776709156e-01 -1 1 1
6391 1 6.7899350473187852e+00 6.3012464338669461e-01 5.7138710553549936e+00 0 1 1
6480 1 1.0394990412588513e+01 3.0224684763214844e+00 1.2088364815364601e+01 0 1 1
6622 1 1.3453647796178814e-01 1.4615568191043623e+01 1.0117539082179052e+01 -1 1 1
3124 1 6.5552262268043373e+00 7.2074932154189559e+00 5.5700058026028900e+00 1 0 1
391 1 7.4028662010017880e+00 2.4078320747494777e+00 2.6632320024956186e+00 1 1 0
3943 1 8.9585434725808089e+00 4.3304293002304535e+00 1.4556075419612942e+00 1 1 1
3341 1 9.3244735260709408e+00 7.3066024214136505e+00 2.5837038694279970e+00 0 2 0
3708 1 5.5991997278518746e-01 4.4747533846702570e-01 2.4102313268717186e+00 0 -1 0
3947 1 2.0986936362362392e+00 9.5079803891030519e+00 2.7732068369390475e+00 0 1 1
3163 1 1.2301582913659256e+01 1.2353549341346771e+01 8.0470980455568686e+00 -1 1 1
4730 1 6.0874932074404322e+00 7.1711273432806131e+00 1.8685928567613277e+00 1 1 0
3224 1 1.0974885995776786e+01 1.2965983628441046e+01 1.0580148258493296e+01 0 1 1
403 1 1.2121704874341850e+01 1.6128832595037249e+01 5.3392753402823310e+00 -1 1 0
5351 1 8.6155249989140188e+00 9.7558603706091365e+00 2.5162289808876954e+00 1 1 0
193 1 5.7557919047674511e-01 1.3101806520117144e+01 1.7032794288774340e+00 -1 0 0
6656 1 5.1344852466083193e+00 1.2613271311548417e+01 2.5502038447860378e+00 0 0 1
3188 1 6.9906876383586125e+00 1.3711211833815064e+01 7.0630833546962375e+00 1 0 0
1999 1 7.7478482703219642e-01 2.9584100754806695e+00 6.8227165641401593e+00 0 1 0
3941 1 8.3129910957663693e+00 4.6096791356694515e+00 1.1653801003253104e+01 0 0 1
1814 1 8.2780763962742760e+00 1.2893616805254732e+01 5.2608063948661403e+00 0 0 1
3074 1 6.9264799931509491e-01 6.9566369419928611e+00 7.4972078360556971e+00 0 0 1
5016 1 7.4977548135197951e+00 1.4554086101039593e+01 3.1466475942617156e+00 -2 -1 1
85 1 3.1598303600781672e+00 3.4904698275346009e+00 5.5697113348161356e+00 2 0 0
4819 1 2.0087602853316957e+00 5.1663641966588152e+00 3.3872731046893327e+00 0 0 1
436 1 1.1608025773070361e+01 7.8448495917087149e+00 5.2798815539217114e-01 2 0 0
1968 1 5.9057850023691598e+00 3.2156570514984604e+00 6.8473154313117970e+00 0 2 0
3364 1 4.7536908941668852e+00 2.9032682300177228e+00 9.9751473683367937e+00 1 0 0
1583 1 9.9227270414296775e+00 3.3050490314579868e+00 5.6016538959415936e+00 0 0 1
4725 1 9.3178324819155378e+00 1.1632398554433891e+00 4.1006510367787685e+00 0 1 1
5043 1 3.6769957626229055e+00 7.3172477291535376e+00 3.6096357706403115e+00 1 0 1
1486 1 2.1985617645931659e+00 1.7995994408060212e+00 9.1010465375145984e+00 -1 2 1
6659 1 3.5967701647395334e+00 6.7089185059501508e+00 6.3589357333853176e+00 0 0 1
4760 1 6.0707923779034569e+00 5.6538298825639117e+00 8.3803586867138868e+00 -1 0 1
5528 1 7.7555484998102422e+00 4.7029173729064953e+00 4.9928790033341652e+00 1 1 0
5341 1 9.5152642072809179e+00 8.2470958188312142e+00 7.8574150453697849e+00 1 0 0
157 1 1.0220007370083538e+01 3.7186143048529061e+00 8.1352914227970103e+00 0 0 0
5277 1 4.7134456421693871e-01 1.1963166664338438e+01 5.9920308626999121e+00 0 -1 0
6482 1 7.2301098582091123e+00 1.0152007440744693e+01 5.1018809254648652e+00 0 0 1
1778 1 4.8231168189857989e+00 1.1299597686609662e+01 4.8771142359899171e+00 -1 1 0
532 1 2.6083790952423280e+00 9.7946274597345351e+00 5.5712676200014339e+00 0 1 0
6589 1 1.0655049264026566e+01 7.6231255237082696e+00 5.2173573730359486e+00 1 0 1
5654 1 7.0554752242031746e+00 9.7296243284423145e+00 7.9085774716333592e+00 1 1 1
1870 1 5.7479165325319093e+00 9.3702877537833196e+00 1.1710355924540956e+01 0 0 0
2066 1 8.7579068652087546e+00 5.9985949802813110e+00 9.1508919421711621e+00 1 0 0
3878 1 1.0451478658906991e+01 1.1688494853521430e+01 1.6632371341745795e+00 1 0 1
2251 1 1.8206210379404053e-01 1.4168336328393773e+01 4.2499291890620237e+00 0 0 1
172 1 4.3417595422304451e+00 1.3585559040053189e+01 6.5699184484737083e+00 0 0 0
3762 1 1.1571537342865227e+01 7.3397849869423268e+00 1.0986970092876614e+01 -1 -1 0
4757 1 9.3827321073499004e+00 1.0835072173496867e+01 1.0180742662729509e+01 1 1 1
3895 1 1.1676341875784768e+01 9.0747393394759912e-01 2.3685796055846575e+00 0 0 0
5051 1 2.8093353061882702e+00 1.1834322440088897e+01 1.8084537653699888e+00 1 1 0
1636 1 2.7684164726229725e+00 1.5183780070226987e+01 9.8443581298450820e+00 -1 0 1
1521 1 4.8958331392411170e+00 2.5361987144088856e+00 1.3886494596053394e+00 0 0 1
2159 1 3.7479120699015658e+00 1.2675172103425798e+01 9.3838030805331591e+00 1 1 0
3690 1 1.1859604146868362e+01 1.0457070738629081e+01 4.7283770081693781e+00 0 -2 0
4798 1 9.9796227337491459e+00 6.9296369782890677e-01 9.0706415339412771e+00 1 1 1
259 1 7.1150992643533328e+00 1.6289188644568708e+00 9.8422542117426506e+00 0 0 0
1734 1 1.7963324660753817e+00 4.1006555748790419e+00 1.1205970735048595e+01 0 0 0
1841 1 2.3660476161825241e+00 6.5538905981353430e+00 1.1276827438025910e+01 -1 0 0
3776 1 4.7728666906684696e+00 6.3993837992514075e+00 1.1073031672487913e+01 1 1 0
2132 1 1.1079035998468640e+01 1.3013382548214429e+01 5.3989222040300309e+00 0 0 0
3497 1 9.8551722725623947e-01 8.0918263716949514e+00 9.9588523790988255e+00 0 0 1
3604 1 2.3815177791753634e+00 1.0207678316328522e+01 8.3489466450059968e+00 1 1 0
6567 1 7.7766355376197609e+00 1.2861807981860707e+01 7.3698446028988096e-01 1 -2 0
2032 1 4.6647206942208070e+00 8.4853589137941814e+00 8.5227351478181372e+00 1 1 0
1679 1 2.4228441897636714e+00 1.6268781434057701e+01 4.3155732780414766e+00 -1 0 1
3778 1 1.1966852993259463e+01 9.5926577864584548e+00 9.2105951078353687e+00 0 -1 0
4951 1 8.6394571152807398e+00 1.4539236420991246e+01 1.0773171630804887e+01 1 1 0
3088 1 3.6315131294693739e+00 1.1244865598647626e+01 1.1923136649360046e+01 0 1 0
1631 1 1.2251295445863240e+01 1.5472613017052982e+01 1.0738121070879163e+01 0 0 1
3768 1 6.5281447948689886e+00 9.6859269573899383e+00 5.2215286926894033e-01 1 -3 0
5014 1 9.6464872072935179e+00 1.6067314685574221e+01 2.3508754441215021e+00 1 1 1
3995 1 2.0617769669963195e+00 4.8172272585859366e+00 5.1996004166942245e-01 0 0 1
3568 1 6.0044077330218322e+00 1.2857725758450663e+01 1.2246847931678962e+01 0 0 0
6439 1 3.5691132750937421e-01 1.5934218159025169e+01 2.3051977334856790e+01 0 0 1
199 1 4.0048291129528044e+00 1.5481767276500690e+01 1.6296714109583291e+01 0 1 0
2079 1 1.1147701829253169e+01 1.4127890215142591e+01 1.7514247282595530e+01 -1 0 0
4831 1 4.6215075731507449e+00 9.0379829213060088e+00 2.3032887174824126e+01 1 2 1
3592 1 1.1656465779132347e+01 6.2220491412045851e+00 2.3870606146832031e+01 -1 1 0
5202 1 3.3392341305340245e-01 1.5125068276694822e+01 1.6257675218867860e+01 0 1 0
6737 1 8.8420511792603147e+00 1.4906572690374288e+01 1.3806124670896889e+01 1 0 0
6665 1 2.0721496829111965e+00 2.9675487874089597e+00 1.4943754556866857e+01 0 0 1
3316 1 5.8471214141252421e+00 4.7902763743634846e+00 1.3603233111909930e+01 1 1 1
5226 1 6.1762055546740564e+00 7.5617838305038863e+00 1.4500754448758039e+01 0 0 0
2131 1 6.0507838675365111e+00 1.2651603688691033e+01 2.0438290058059824e+01 1 1 0
2151 1 9.9451819211043837e+00 6.1361363397449491e+00 1.5225488648206289e+01 1 1 0
1478 1 1.1361133721302982e+01 3.8192354844942242e+00 1.4561153058704285e+01 0 0 0
2074 1 2.0403045115693801e+00 7.0699895863903439e+00 1.4152612893328262e+01 0 -2 0
5492 1 1.4574164035738859e+00 1.8343678683786394e-01 1.5098120839192902e+01 2 1 0
6447 1 3.8252014935642888e+00 9.0290214089390801e+00 1.4738391601395501e+01 1 1 1
225 1 1.2128567636294239e+01 3.6453759908536796e+00 2.2456389102087517e+01 1 1 0
3671 1 1.2294891780550405e+01 7.5194750466663915e+00 1.6562066349113579e+01 -1 -1 0
6561 1 1.2129903930998251e+01 1.1860173257119039e+01 1.3198886843446079e+01 0 1 1
3837 1 2.8248591482841037e+00 1.1628054725283157e+01 1.5339466941455514e+01 0 1 0
42 1 2.2357749710506916e+00 1.4414362597396496e+01 1.4791883921970438e+01 0 1 1
4843 1 2.3626759561011630e+00 7.7362227655109628e+00 2.3447586582664663e+01 1 1 1
3799 1 1.1891585932777110e+01 1.5309653382330366e+01 2.0058909433629509e+01 0 2 1
3557 1 3.4742292405033470e-01 1.1224554420809428e+01 2.1380599208209652e+01 0 -1 0
3044 1 1.1083266066332786e+01 1.4310879693612806e+01 2.2094357858478162e+01 1 0 1
2018 1 1.1525049859956340e+01 1.4210144316111903e+01 1.4498092143582921e+01 -1 1 0
2016 1 8.3061939157255509e+00 9.6825165081652855e+00 1.2552687077434717e+01 1 1 0
2148 1 1.4122056625087200e+00 2.9697228706042469e+00 1.9489146525750488e+01 1 0 0
5665 1 5.1619359740393724e+00 1.8389599154636860e+00 1.7294047384903479e+01 0 2 1
3229 1 6.5220597709358685e+00 3.6596069319989697e+00 1.5947414882720562e+01 -1 0 1
5113 1 5.6885483851693808e+00 1.0246343177958834e+00 1.9744063474325916e+01 0 1 1
3142 1 3.2592907482422371e+00 1.2629318604138828e+00 2.3549724156381302e+01 1 0 1
209 1 8.4171040826897130e+00 1.7223780736234462e+00 1.5138673424113522e+01 1 0 1
3993 1 2.9038505641678167e+00 3.6143892699761899e+00 1.7383729174409151e+01 1 0 0
3447 1 8.8603275100564483e-01 5.5398044609330483e+00 1.6114778781443132e+01 0 1 0
3676 1 4.3204906519067041e+00 3.5110726969611599e+00 2.4012547223228118e+01 1 0 0
6681 1 7.8539186587273189e-03 8.9865150697385410e+00 1.3833210778095868e+01 0 2 1
5242 1 7.7923148856452791e+00 5.2959981322511434e+00 1.7540341364643627e+01 1 0 0
6538 1 9.8548960163251333e+00 4.5683591430971964e+00 1.9128697274801223e+01 0 2 1
5568 1 9.5995889567755039e+00 3.7224653529628282e-01 1.2734146508432470e+01 2 1 0
1614 1 3.3739388236196244e+00 5.9689835260368991e+00 1.8577708669060868e+01 -1 1 1
330 1 2.9910955222913578e+00 8.4022290373047799e+00 1.7534122968199000e+01 0 1 0
4942 1 5.5915326275362469e+00 9.3318831962581257e+00 1.7610696893892580e+01 0 0 0
5165 1 7.9526761122254293e+00 7.7894133612493635e+00 1.6713319675858759e+01 2 1 0
379 1 9.8350392010208036e+00 1.1018136345320052e+01 1.4738292857320733e+01 1 1 0
5262 1 4.8535989664999031e+00 4.5770420014961904e-01 1.3123931408500559e+01 1 -1 1
28 1 9.4983299829453376e+00 1.2370166944261410e+01 2.1807047671460129e+01 0 0 1
2002 1 1.3556350737597516e+00 1.0904956547634701e+01 1.7501504687818453e+01 0 0 0
1394 1 1.4763697722417435e+00 1.4728995797350162e+01 1.8806459889051691e+01 1 2 1
365 1 5.2927650591196871e+00 1.2071507169902757e+01 1.6764495119623177e+01 1 0 0
442 1 1.1043209824077186e+01 9.8302698668076776e+00 1.6762397184054663e+01 2 0 0
5510 1 7.8095963090066114e+00 1.2770715742137355e+01 1.5086944314998082e+01 1 1 0
6725 1 8.3465020850013278e+00 1.1703324363944727e+01 1.9442098566294302e+01 0 0 1
1969 1 3.2899716902178846e+00 1.0174599288160147e+00 2.0800995140313116e+01 0 0 1
6460 1 1.1465384658425462e+01 9.5110961688290043e+00 2.1423839260744170e+01 1 -1 0
5348 1 7.2768180881312752e+00 2.0340051515819719e+00 2.1749153320043476e+01 -1 0 0
5054 1 7.1022041329517442e+00 1.3056566303680835e+01 2.2995897906822034e+01 -1 0 1
196 1 2.6954090707371386e-01 7.6001415941762547e+00 1.8375732051531692e+01 0 -1 0
6472 1 9.5269213950224643e+00 9.0983138935125289e+00 1.9187347544878179e+01 2 1 1
5408 1 1.0359969572190611e+01 8.4290614032276223e-01 1.9199636149590734e+01 0 1 0
5279 1 9.7619710078971131e+00 2.7306175056279258e+00 2.1239382503042425e+01 1 1 0
6481 1 8.5244611786476234e+00 5.9482084467258369e+00 2.3199178781028085e+01 1 0 0
399 1 1.2768603792652182e+00 5.4540042169712581e+00 2.0796741237743188e+01 1 -1 0
2246 1 2.8104745764142720e+00 1.5229024481574154e+01 2.2996906451846051e+01 1 -1 0
5119 1 3.6076555023313897e+00 1.6009774082884611e+01 2.0593013637845576e+01 2 0 0
3533 1 6.1325353439737365e+00 5.5086615407734296e+00 1.9819057685664841e+01 -1 1 0
3411 1 6.3738246449158877e+00 4.2788724882497871e+00 2.2396338521085557e+01 0 1 0
3450 1 9.3569315181964559e+00 7.0193207752283158e+00 1.2619042643288177e+01 1 1 0
6647 1 1.1002271530210329e+01 6.6247997394081910e+00 2.0775056596645360e+01 0 1 0
5369 1 1.2194158179436785e+00 1.1449878767338271e+01 1.3118410819665023e+01 0 1 0
5178 1 4.4515132569958666e+00 1.0750667352033032e+01 2.0586130834011499e+01 1 1 0
50 1 2.0132887364447254e+00 1.2191979369081142e+01 1.9701617736837335e+01 0 1 0
6333 1 5.3583212674472449e+00 1.4633642519077039e+01 1.8548464280710746e+01 0 -2 1
3463 1 8.5789626217194908e+00 1.3747496119270330e+01 1.7491365340842020e+01 0 -1 0
3327 1 6.8155034439014486e+00 8.3887152859154170e+00 2.0199598209592903e+01 1 1 0
3045 1 8.9184564549956047e-01 8.7327365473344081e+00 2.1342562927093251e+01 0 0 1
3234 1 3.9009424762423648e+00 3.1703483530578809e+00 1.2920083001767885e+01 0 -1 1
3388 1 1.1364423473608799e+01 2.0496860233753891e+00 1.6651596716632007e+01 0 2 1
3507 1 7.1653068995922542e+00 8.5331152121049634e+00 2.3009968119770242e+01 0 0 0
6718 1 5.8350203352197374e+00 1.5820881126558886e+01 1.2400091520324359e+01 0 0 0
3714 1 2.1421679264313176e+00 5.1699741162923294e+00 2.3504406220229257e+01 1 0 0
2084 1 2.9031239648217215e+00 1.2407574572350248e+01 2.3270064342066572e+01 1 1 0
427 1 6.6666783175389108e+00 5.3028136709462648e-01 2.3736632930532277e+01 0 0 1
140 1 5.2107796267698001e+00 1.1457932407667842e+01 2.4079457692281068e+01 0 -1 0
3732 1 2.8485701948029267e+00 1.5601740812856491e+01 1.2547064214395933e+01 1 1 0
6615 1 1.1620313985486876e+01 9.2568719556693537e+00 2.3909159320822202e+01 0 0 1
618 2 0.0000000000000000e+00 2.8417180249513345e+00 2.6812450895267656e+01 0 0 0
620 2 0.0000000000000000e+00 0.0000000000000000e+00 2.6812450895267656e+01 0 0 0
622 2 1.2305000000000001e+00 7.1042950623783474e-01 2.6812450895267656e+01 0 0 0
629 2 1.2305000000000001e+00 2.1312885187134998e+00 2.6812450895267656e+01 0 0 0
631 2 2.4610000000000003e+00 2.8417180249513345e+00 2.6812450895267656e+01 0 0 0
633 2 2.4610000000000003e+00 0.0000000000000000e+00 2.6812450895267656e+01 0 0 0
635 2 3.6915000000000004e+00 7.1042950623783474e-01 2.6812450895267656e+01 0 0 0
650 2 3.6914999999999996e+00 2.1312885187134998e+00 2.6812450895267656e+01 0 0 0
1058 2 9.8440000000000012e+00 1.5629449137232328e+01 3.3249549104728025e+01 0 0 0
652 2 4.9220000000000006e+00 2.8417180249513332e+00 2.6812450895267656e+01 0 0 0
654 2 4.9220000000000006e+00 0.0000000000000000e+00 2.6812450895267656e+01 0 0 0
656 2 6.1524999999999999e+00 7.1042950623783407e-01 2.6812450895267656e+01 0 0 0
679 2 6.1524999999999999e+00 2.1312885187134989e+00 2.6812450895267656e+01 0 0 0
681 2 7.3829999999999991e+00 2.8417180249513345e+00 2.6812450895267656e+01 0 0 0
683 2 7.3829999999999991e+00 0.0000000000000000e+00 2.6812450895267656e+01 0 0 0
685 2 8.6134999999999984e+00 7.1042950623783407e-01 2.6812450895267656e+01 0 0 0
716 2 8.6134999999999984e+00 2.1312885187135002e+00 2.6812450895267656e+01 0 0 0
718 2 9.8440000000000012e+00 2.8417180249513332e+00 2.6812450895267656e+01 0 0 0
720 2 9.8440000000000012e+00 0.0000000000000000e+00 2.6812450895267656e+01 0 0 0
722 2 1.1074500000000002e+01 7.1042950623783330e-01 2.6812450895267656e+01 0 0 0
761 2 1.1074500000000002e+01 2.1312885187135002e+00 2.6812450895267656e+01 0 0 0
6465 1 7.8431636342883373e-02 9.5913292611348293e+00 2.4583994986604527e+01 1 -1 1
623 2 0.0000000000000000e+00 7.1042950623783341e+00 2.6812450895267656e+01 0 0 0
625 2 0.0000000000000000e+00 4.2625770374269996e+00 2.6812450895267656e+01 0 0 0
627 2 1.2305000000000001e+00 4.9730065436648339e+00 2.6812450895267656e+01 0 0 0
642 2 1.2305000000000001e+00 6.3938655561404980e+00 2.6812450895267656e+01 0 0 0
644 2 2.4610000000000003e+00 7.1042950623783341e+00 2.6812450895267656e+01 0 0 0
646 2 2.4610000000000003e+00 4.2625770374269996e+00 2.6812450895267656e+01 0 0 0
648 2 3.6914999999999996e+00 4.9730065436648339e+00 2.6812450895267656e+01 0 0 0
671 2 3.6914999999999996e+00 6.3938655561404980e+00 2.6812450895267656e+01 0 0 0
673 2 4.9220000000000006e+00 7.1042950623783341e+00 2.6812450895267656e+01 0 0 0
675 2 4.9220000000000006e+00 4.2625770374269978e+00 2.6812450895267656e+01 0 0 0
677 2 6.1524999999999999e+00 4.9730065436648339e+00 2.6812450895267656e+01 0 0 0
708 2 6.1524999999999999e+00 6.3938655561404980e+00 2.6812450895267656e+01 0 0 0
710 2 7.3830000000000009e+00 7.1042950623783341e+00 2.6812450895267656e+01 0 0 0
712 2 7.3829999999999991e+00 4.2625770374269996e+00 2.6812450895267656e+01 0 0 0
5506 1 7.1775838649618136e+00 1.5473341398884079e+01 2.4351165935790910e+01 0 0 0
714 2 8.6135000000000002e+00 4.9730065436648339e+00 2.6812450895267656e+01 0 0 0
753 2 8.6135000000000002e+00 6.3938655561404980e+00 2.6812450895267656e+01 0 0 0
755 2 9.8440000000000012e+00 7.1042950623783341e+00 2.6812450895267656e+01 0 0 0
757 2 9.8440000000000012e+00 4.2625770374270004e+00 2.6812450895267656e+01 0 0 0
759 2 1.1074500000000002e+01 4.9730065436648339e+00 2.6812450895267656e+01 0 0 0
800 2 1.1074500000000002e+01 6.3938655561404980e+00 2.6812450895267656e+01 0 0 0
636 2 0.0000000000000000e+00 1.1366872099805333e+01 2.6812450895267656e+01 0 0 0
638 2 0.0000000000000000e+00 8.5251540748539991e+00 2.6812450895267656e+01 0 0 0
640 2 1.2305000000000001e+00 9.2355835810918343e+00 2.6812450895267656e+01 0 0 0
663 2 1.2305000000000001e+00 1.0656442593567498e+01 2.6812450895267656e+01 0 0 0
665 2 2.4610000000000003e+00 1.1366872099805333e+01 2.6812450895267656e+01 0 0 0
667 2 2.4610000000000003e+00 8.5251540748539991e+00 2.6812450895267656e+01 0 0 0
669 2 3.6915000000000004e+00 9.2355835810918343e+00 2.6812450895267656e+01 0 0 0
700 2 3.6914999999999996e+00 1.0656442593567499e+01 2.6812450895267656e+01 0 0 0
6582 1 9.9491977893355550e+00 3.9541408625178507e+00 2.4419065816709274e+01 1 0 1
702 2 4.9220000000000006e+00 1.1366872099805333e+01 2.6812450895267656e+01 0 0 0
704 2 4.9220000000000006e+00 8.5251540748539991e+00 2.6812450895267656e+01 0 0 0
706 2 6.1524999999999999e+00 9.2355835810918343e+00 2.6812450895267656e+01 0 0 0
745 2 6.1524999999999999e+00 1.0656442593567499e+01 2.6812450895267656e+01 0 0 0
747 2 7.3829999999999991e+00 1.1366872099805333e+01 2.6812450895267656e+01 0 0 0
749 2 7.3830000000000009e+00 8.5251540748539991e+00 2.6812450895267656e+01 0 0 0
751 2 8.6134999999999984e+00 9.2355835810918343e+00 2.6812450895267656e+01 0 0 0
792 2 8.6134999999999984e+00 1.0656442593567498e+01 2.6812450895267656e+01 0 0 0
794 2 9.8440000000000012e+00 1.1366872099805333e+01 2.6812450895267656e+01 0 0 0
796 2 9.8440000000000012e+00 8.5251540748539956e+00 2.6812450895267656e+01 0 0 0
798 2 1.1074500000000002e+01 9.2355835810918343e+00 2.6812450895267656e+01 0 0 0
839 2 1.1074500000000002e+01 1.0656442593567498e+01 2.6812450895267656e+01 0 0 0
841 2 1.2304999999999998e+01 1.1366872099805333e+01 2.6812450895267656e+01 0 0 0
1078 2 1.1074500000000002e+01 1.4919019630994494e+01 3.3249549104728025e+01 0 0 0
657 2 0.0000000000000000e+00 1.5629449137232333e+01 2.6812450895267656e+01 0 0 0
659 2 0.0000000000000000e+00 1.2787731112280996e+01 2.6812450895267656e+01 0 0 0
661 2 1.2305000000000001e+00 1.3498160618518829e+01 2.6812450895267656e+01 0 0 0
692 2 1.2305000000000001e+00 1.4919019630994494e+01 2.6812450895267656e+01 0 0 0
694 2 2.4610000000000003e+00 1.5629449137232328e+01 2.6812450895267656e+01 0 0 0
696 2 2.4610000000000003e+00 1.2787731112280996e+01 2.6812450895267656e+01 0 0 0
698 2 3.6915000000000004e+00 1.3498160618518829e+01 2.6812450895267656e+01 0 0 0
737 2 3.6915000000000004e+00 1.4919019630994494e+01 2.6812450895267656e+01 0 0 0
1059 2 9.8440000000000012e+00 1.2787731112280996e+01 3.3249549104728025e+01 0 0 0
739 2 4.9220000000000006e+00 1.5629449137232333e+01 2.6812450895267656e+01 0 0 0
741 2 4.9220000000000006e+00 1.2787731112280996e+01 2.6812450895267656e+01 0 0 0
743 2 6.1524999999999990e+00 1.3498160618518829e+01 2.6812450895267656e+01 0 0 0
784 2 6.1524999999999990e+00 1.4919019630994494e+01 2.6812450895267656e+01 0 0 0
786 2 7.3829999999999991e+00 1.5629449137232333e+01 2.6812450895267656e+01 0 0 0
788 2 7.3829999999999991e+00 1.2787731112280996e+01 2.6812450895267656e+01 0 0 0
790 2 8.6135000000000002e+00 1.3498160618518835e+01 2.6812450895267656e+01 0 0 0
831 2 8.6135000000000002e+00 1.4919019630994494e+01 2.6812450895267656e+01 0 0 0
833 2 9.8440000000000012e+00 1.5629449137232328e+01 2.6812450895267656e+01 0 0 0
835 2 9.8440000000000012e+00 1.2787731112280996e+01 2.6812450895267656e+01 0 0 0
837 2 1.1074500000000002e+01 1.3498160618518829e+01 2.6812450895267656e+01 0 0 0
873 2 1.1074500000000002e+01 1.4919019630994494e+01 2.6812450895267656e+01 0 0 0
619 2 0.0000000000000000e+00 1.4208590124756650e+00 3.0031000000000081e+01 0 0 0
621 2 0.0000000000000000e+00 0.0000000000000000e+00 3.0031000000000081e+01 0 0 0
628 2 1.2305000000000001e+00 3.5521475311891644e+00 3.0031000000000081e+01 0 0 0
630 2 1.2305000000000001e+00 2.1312885187134998e+00 3.0031000000000081e+01 0 0 0
632 2 2.4610000000000003e+00 1.4208590124756650e+00 3.0031000000000081e+01 0 0 0
634 2 2.4610000000000003e+00 0.0000000000000000e+00 3.0031000000000081e+01 0 0 0
649 2 3.6914999999999996e+00 3.5521475311891644e+00 3.0031000000000081e+01 0 0 0
651 2 3.6914999999999996e+00 2.1312885187134998e+00 3.0031000000000081e+01 0 0 0
653 2 4.9220000000000006e+00 1.4208590124756650e+00 3.0031000000000081e+01 0 0 0
655 2 4.9220000000000006e+00 0.0000000000000000e+00 3.0031000000000081e+01 0 0 0
678 2 6.1524999999999999e+00 3.5521475311891644e+00 3.0031000000000081e+01 0 0 0
680 2 6.1524999999999999e+00 2.1312885187134989e+00 3.0031000000000081e+01 0 0 0
682 2 7.3829999999999991e+00 1.4208590124756659e+00 3.0031000000000081e+01 0 0 0
684 2 7.3829999999999991e+00 0.0000000000000000e+00 3.0031000000000081e+01 0 0 0
715 2 8.6134999999999984e+00 3.5521475311891657e+00 3.0031000000000081e+01 0 0 0
717 2 8.6134999999999984e+00 2.1312885187135002e+00 3.0031000000000081e+01 0 0 0
719 2 9.8440000000000012e+00 1.4208590124756659e+00 3.0031000000000081e+01 0 0 0
721 2 9.8440000000000012e+00 0.0000000000000000e+00 3.0031000000000081e+01 0 0 0
760 2 1.1074500000000002e+01 3.5521475311891644e+00 3.0031000000000081e+01 0 0 0
762 2 1.1074500000000002e+01 2.1312885187135002e+00 3.0031000000000081e+01 0 0 0
624 2 0.0000000000000000e+00 5.6834360499026637e+00 3.0031000000000081e+01 0 0 0
626 2 0.0000000000000000e+00 4.2625770374269996e+00 3.0031000000000081e+01 0 0 0
641 2 1.2305000000000001e+00 7.8147245686161639e+00 3.0031000000000081e+01 0 0 0
643 2 1.2305000000000001e+00 6.3938655561404980e+00 3.0031000000000081e+01 0 0 0
645 2 2.4610000000000003e+00 5.6834360499026637e+00 3.0031000000000081e+01 0 0 0
647 2 2.4610000000000003e+00 4.2625770374269996e+00 3.0031000000000081e+01 0 0 0
670 2 3.6914999999999996e+00 7.8147245686161639e+00 3.0031000000000081e+01 0 0 0
672 2 3.6914999999999996e+00 6.3938655561404980e+00 3.0031000000000081e+01 0 0 0
674 2 4.9220000000000006e+00 5.6834360499026637e+00 3.0031000000000081e+01 0 0 0
676 2 4.9220000000000006e+00 4.2625770374269978e+00 3.0031000000000081e+01 0 0 0
707 2 6.1524999999999999e+00 7.8147245686161639e+00 3.0031000000000081e+01 0 0 0
709 2 6.1524999999999999e+00 6.3938655561404980e+00 3.0031000000000081e+01 0 0 0
711 2 7.3829999999999991e+00 5.6834360499026637e+00 3.0031000000000081e+01 0 0 0
713 2 7.3829999999999991e+00 4.2625770374269996e+00 3.0031000000000081e+01 0 0 0
752 2 8.6135000000000002e+00 7.8147245686161639e+00 3.0031000000000081e+01 0 0 0
754 2 8.6135000000000002e+00 6.3938655561404980e+00 3.0031000000000081e+01 0 0 0
756 2 9.8440000000000012e+00 5.6834360499026637e+00 3.0031000000000081e+01 0 0 0
758 2 9.8440000000000012e+00 4.2625770374270004e+00 3.0031000000000081e+01 0 0 0
799 2 1.1074500000000002e+01 7.8147245686161639e+00 3.0031000000000081e+01 0 0 0
801 2 1.1074500000000002e+01 6.3938655561404980e+00 3.0031000000000081e+01 0 0 0
637 2 0.0000000000000000e+00 9.9460130873296642e+00 3.0031000000000081e+01 0 0 0
639 2 0.0000000000000000e+00 8.5251540748539991e+00 3.0031000000000081e+01 0 0 0
662 2 1.2305000000000001e+00 1.2077301606043163e+01 3.0031000000000081e+01 0 0 0
664 2 1.2305000000000001e+00 1.0656442593567498e+01 3.0031000000000081e+01 0 0 0
666 2 2.4610000000000003e+00 9.9460130873296642e+00 3.0031000000000081e+01 0 0 0
668 2 2.4610000000000003e+00 8.5251540748539991e+00 3.0031000000000081e+01 0 0 0
699 2 3.6914999999999996e+00 1.2077301606043163e+01 3.0031000000000081e+01 0 0 0
701 2 3.6914999999999996e+00 1.0656442593567499e+01 3.0031000000000081e+01 0 0 0
703 2 4.9220000000000006e+00 9.9460130873296642e+00 3.0031000000000081e+01 0 0 0
705 2 4.9220000000000006e+00 8.5251540748539991e+00 3.0031000000000081e+01 0 0 0
744 2 6.1524999999999999e+00 1.2077301606043163e+01 3.0031000000000081e+01 0 0 0
746 2 6.1524999999999999e+00 1.0656442593567499e+01 3.0031000000000081e+01 0 0 0
748 2 7.3830000000000009e+00 9.9460130873296642e+00 3.0031000000000081e+01 0 0 0
750 2 7.3830000000000009e+00 8.5251540748539991e+00 3.0031000000000081e+01 0 0 0
791 2 8.6135000000000002e+00 1.2077301606043163e+01 3.0031000000000081e+01 0 0 0
793 2 8.6134999999999984e+00 1.0656442593567498e+01 3.0031000000000081e+01 0 0 0
795 2 9.8440000000000012e+00 9.9460130873296642e+00 3.0031000000000081e+01 0 0 0
797 2 9.8440000000000012e+00 8.5251540748539956e+00 3.0031000000000081e+01 0 0 0
838 2 1.1074500000000002e+01 1.2077301606043163e+01 3.0031000000000081e+01 0 0 0
840 2 1.1074500000000002e+01 1.0656442593567498e+01 3.0031000000000081e+01 0 0 0
658 2 0.0000000000000000e+00 1.4208590124756663e+01 3.0031000000000081e+01 0 0 0
660 2 0.0000000000000000e+00 1.2787731112280996e+01 3.0031000000000081e+01 0 0 0
693 2 1.2305000000000001e+00 1.4919019630994494e+01 3.0031000000000081e+01 0 0 0
695 2 2.4610000000000003e+00 1.4208590124756663e+01 3.0031000000000081e+01 0 0 0
697 2 2.4610000000000003e+00 1.2787731112280996e+01 3.0031000000000081e+01 0 0 0
738 2 3.6915000000000004e+00 1.4919019630994494e+01 3.0031000000000081e+01 0 0 0
740 2 4.9220000000000006e+00 1.4208590124756663e+01 3.0031000000000081e+01 0 0 0
742 2 4.9220000000000006e+00 1.2787731112280996e+01 3.0031000000000081e+01 0 0 0
785 2 6.1524999999999990e+00 1.4919019630994494e+01 3.0031000000000081e+01 0 0 0
787 2 7.3830000000000009e+00 1.4208590124756663e+01 3.0031000000000081e+01 0 0 0
789 2 7.3829999999999991e+00 1.2787731112280996e+01 3.0031000000000081e+01 0 0 0
832 2 8.6135000000000002e+00 1.4919019630994494e+01 3.0031000000000081e+01 0 0 0
834 2 9.8440000000000012e+00 1.4208590124756663e+01 3.0031000000000081e+01 0 0 0
836 2 9.8440000000000012e+00 1.2787731112280996e+01 3.0031000000000081e+01 0 0 0
872 2 1.1074500000000002e+01 1.6339878643470161e+01 3.0031000000000081e+01 0 0 0
874 2 1.1074500000000002e+01 1.4919019630994494e+01 3.0031000000000081e+01 0 0 0
876 2 1.2304999999999998e+01 1.4208590124756658e+01 3.0031000000000081e+01 0 0 0
947 2 0.0000000000000000e+00 2.8417180249513345e+00 3.3249549104728025e+01 0 0 0
948 2 0.0000000000000000e+00 0.0000000000000000e+00 3.3249549104728025e+01 0 0 0
949 2 1.2305000000000001e+00 7.1042950623783474e-01 3.3249549104728025e+01 0 0 0
953 2 1.2305000000000001e+00 2.1312885187134998e+00 3.3249549104728025e+01 0 0 0
954 2 2.4610000000000003e+00 2.8417180249513345e+00 3.3249549104728025e+01 0 0 0
955 2 2.4610000000000003e+00 0.0000000000000000e+00 3.3249549104728025e+01 0 0 0
956 2 3.6915000000000004e+00 7.1042950623783474e-01 3.3249549104728025e+01 0 0 0
964 2 3.6914999999999996e+00 2.1312885187134998e+00 3.3249549104728025e+01 0 0 0
6335 1 8.9455244661104008e+00 1.0193139354626181e+01 2.4147294645253400e+01 -1 1 1
965 2 4.9220000000000006e+00 2.8417180249513332e+00 3.3249549104728025e+01 0 0 0
966 2 4.9220000000000006e+00 0.0000000000000000e+00 3.3249549104728025e+01 0 0 0
967 2 6.1524999999999999e+00 7.1042950623783407e-01 3.3249549104728025e+01 0 0 0
979 2 6.1524999999999999e+00 2.1312885187134989e+00 3.3249549104728025e+01 0 0 0
980 2 7.3829999999999991e+00 2.8417180249513345e+00 3.3249549104728025e+01 0 0 0
981 2 7.3829999999999991e+00 0.0000000000000000e+00 3.3249549104728025e+01 0 0 0
982 2 8.6134999999999984e+00 7.1042950623783407e-01 3.3249549104728025e+01 0 0 0
998 2 8.6134999999999984e+00 2.1312885187135002e+00 3.3249549104728025e+01 0 0 0
999 2 9.8440000000000012e+00 2.8417180249513332e+00 3.3249549104728025e+01 0 0 0
1000 2 9.8440000000000012e+00 0.0000000000000000e+00 3.3249549104728025e+01 0 0 0
1001 2 1.1074500000000002e+01 7.1042950623783330e-01 3.3249549104728025e+01 0 0 0
1021 2 1.1074500000000002e+01 2.1312885187135002e+00 3.3249549104728025e+01 0 0 0
950 2 0.0000000000000000e+00 7.1042950623783341e+00 3.3249549104728025e+01 0 0 0
951 2 0.0000000000000000e+00 4.2625770374269996e+00 3.3249549104728025e+01 0 0 0
952 2 1.2305000000000001e+00 4.9730065436648339e+00 3.3249549104728025e+01 0 0 0
960 2 1.2305000000000001e+00 6.3938655561404980e+00 3.3249549104728025e+01 0 0 0
961 2 2.4610000000000003e+00 7.1042950623783341e+00 3.3249549104728025e+01 0 0 0
962 2 2.4610000000000003e+00 4.2625770374269996e+00 3.3249549104728025e+01 0 0 0
963 2 3.6914999999999996e+00 4.9730065436648339e+00 3.3249549104728025e+01 0 0 0
975 2 3.6914999999999996e+00 6.3938655561404980e+00 3.3249549104728025e+01 0 0 0
976 2 4.9220000000000006e+00 7.1042950623783341e+00 3.3249549104728025e+01 0 0 0
977 2 4.9220000000000006e+00 4.2625770374269978e+00 3.3249549104728025e+01 0 0 0
978 2 6.1524999999999999e+00 4.9730065436648339e+00 3.3249549104728025e+01 0 0 0
994 2 6.1524999999999999e+00 6.3938655561404980e+00 3.3249549104728025e+01 0 0 0
995 2 7.3830000000000009e+00 7.1042950623783341e+00 3.3249549104728025e+01 0 0 0